# vtk DataFile Version 3.0
MachLine results file. Generated by MachLine, USU AeroLab (c) 2022.
ASCII
DATASET POLYDATA
POINTS                4902 float
  0.000000000000E+00  0.000000000000E+00  0.000000000000E+00
  0.101010101000E+00  0.000000000000E+00  0.894358746100E-02
  0.101010101000E+00  0.112092873600E-02  0.887306460200E-02
  0.101010101000E+00  0.222417975600E-02  0.866260821400E-02
  0.101010101000E+00  0.329235413300E-02  0.831553732000E-02
  0.101010101000E+00  0.430860611900E-02  0.783732543500E-02
  0.101010101000E+00  0.525690881200E-02  0.723551424600E-02
  0.101010101000E+00  0.612230691300E-02  0.651959467500E-02
  0.101010101000E+00  0.689115257600E-02  0.570085720200E-02
  0.101010101000E+00  0.755132064700E-02  0.479221380500E-02
  0.101010101000E+00  0.809239988000E-02  0.380799433300E-02
  0.101010101000E+00  0.850585713300E-02  0.276372051600E-02
  0.101010101000E+00  0.878517193800E-02  0.167586117500E-02
  0.101010101000E+00  0.892593933400E-02  0.561572503100E-03
  0.101010101000E+00  0.892593933400E-02 -0.561572503100E-03
  0.101010101000E+00  0.878517193800E-02 -0.167586117500E-02
  0.101010101000E+00  0.850585713300E-02 -0.276372051600E-02
  0.101010101000E+00  0.809239988000E-02 -0.380799433300E-02
  0.101010101000E+00  0.755132064700E-02 -0.479221380500E-02
  0.101010101000E+00  0.689115257600E-02 -0.570085720200E-02
  0.101010101000E+00  0.612230691300E-02 -0.651959467500E-02
  0.101010101000E+00  0.525690881200E-02 -0.723551424600E-02
  0.101010101000E+00  0.430860611900E-02 -0.783732543500E-02
  0.101010101000E+00  0.329235413300E-02 -0.831553732000E-02
  0.101010101000E+00  0.222417975600E-02 -0.866260821400E-02
  0.101010101000E+00  0.112092873600E-02 -0.887306460200E-02
  0.101010101000E+00 -0.287647711300E-17 -0.894358746100E-02
  0.101010101000E+00 -0.112092873600E-02 -0.887306460200E-02
  0.101010101000E+00 -0.222417975600E-02 -0.866260821400E-02
  0.101010101000E+00 -0.329235413300E-02 -0.831553732000E-02
  0.101010101000E+00 -0.430860611900E-02 -0.783732543500E-02
  0.101010101000E+00 -0.525690881200E-02 -0.723551424600E-02
  0.101010101000E+00 -0.612230691300E-02 -0.651959467500E-02
  0.101010101000E+00 -0.689115257600E-02 -0.570085720200E-02
  0.101010101000E+00 -0.755132064700E-02 -0.479221380500E-02
  0.101010101000E+00 -0.809239988000E-02 -0.380799433300E-02
  0.101010101000E+00 -0.850585713300E-02 -0.276372051600E-02
  0.101010101000E+00 -0.878517193800E-02 -0.167586117500E-02
  0.101010101000E+00 -0.892593933400E-02 -0.561572503100E-03
  0.101010101000E+00 -0.892593933400E-02  0.561572503100E-03
  0.101010101000E+00 -0.878517193800E-02  0.167586117500E-02
  0.101010101000E+00 -0.850585713300E-02  0.276372051600E-02
  0.101010101000E+00 -0.809239988000E-02  0.380799433300E-02
  0.101010101000E+00 -0.755132064700E-02  0.479221380500E-02
  0.101010101000E+00 -0.689115257600E-02  0.570085720200E-02
  0.101010101000E+00 -0.612230691300E-02  0.651959467500E-02
  0.101010101000E+00 -0.525690881200E-02  0.723551424600E-02
  0.101010101000E+00 -0.430860611900E-02  0.783732543500E-02
  0.101010101000E+00 -0.329235413300E-02  0.831553732000E-02
  0.101010101000E+00 -0.222417975600E-02  0.866260821400E-02
  0.101010101000E+00 -0.112092873600E-02  0.887306460200E-02
  0.202020202000E+00  0.000000000000E+00  0.149260021200E-01
  0.202020202000E+00  0.187072411000E-02  0.148083061400E-01
  0.202020202000E+00  0.371194578400E-02  0.144570743200E-01
  0.202020202000E+00  0.549462785500E-02  0.138778458000E-01
  0.202020202000E+00  0.719065636200E-02  0.130797553700E-01
  0.202020202000E+00  0.877328392300E-02  0.120753893800E-01
  0.202020202000E+00  0.102175515600E-01  0.108805872800E-01
  0.202020202000E+00  0.115006823000E-01  0.951419182400E-02
  0.202020202000E+00  0.126024404100E-01  0.799775187900E-02
  0.202020202000E+00  0.135054505100E-01  0.635518261000E-02
  0.202020202000E+00  0.141954715800E-01  0.461238831400E-02
  0.202020202000E+00  0.146616215900E-01  0.279685389900E-02
  0.202020202000E+00  0.148965490700E-01  0.937211427800E-03
  0.202020202000E+00  0.148965490700E-01 -0.937211427800E-03
  0.202020202000E+00  0.146616215900E-01 -0.279685389900E-02
  0.202020202000E+00  0.141954715800E-01 -0.461238831400E-02
  0.202020202000E+00  0.135054505100E-01 -0.635518261000E-02
  0.202020202000E+00  0.126024404100E-01 -0.799775187900E-02
  0.202020202000E+00  0.115006823000E-01 -0.951419182400E-02
  0.202020202000E+00  0.102175515600E-01 -0.108805872800E-01
  0.202020202000E+00  0.877328392300E-02 -0.120753893800E-01
  0.202020202000E+00  0.719065636200E-02 -0.130797553700E-01
  0.202020202000E+00  0.549462785500E-02 -0.138778458000E-01
  0.202020202000E+00  0.371194578400E-02 -0.144570743200E-01
  0.202020202000E+00  0.187072411000E-02 -0.148083061400E-01
  0.202020202000E+00 -0.480056841700E-17 -0.149260021200E-01
  0.202020202000E+00 -0.187072411000E-02 -0.148083061400E-01
  0.202020202000E+00 -0.371194578400E-02 -0.144570743200E-01
  0.202020202000E+00 -0.549462785500E-02 -0.138778458000E-01
  0.202020202000E+00 -0.719065636200E-02 -0.130797553700E-01
  0.202020202000E+00 -0.877328392300E-02 -0.120753893800E-01
  0.202020202000E+00 -0.102175515600E-01 -0.108805872800E-01
  0.202020202000E+00 -0.115006823000E-01 -0.951419182400E-02
  0.202020202000E+00 -0.126024404100E-01 -0.799775187900E-02
  0.202020202000E+00 -0.135054505100E-01 -0.635518261000E-02
  0.202020202000E+00 -0.141954715800E-01 -0.461238831400E-02
  0.202020202000E+00 -0.146616215900E-01 -0.279685389900E-02
  0.202020202000E+00 -0.148965490700E-01 -0.937211427800E-03
  0.202020202000E+00 -0.148965490700E-01  0.937211427800E-03
  0.202020202000E+00 -0.146616215900E-01  0.279685389900E-02
  0.202020202000E+00 -0.141954715800E-01  0.461238831400E-02
  0.202020202000E+00 -0.135054505100E-01  0.635518261000E-02
  0.202020202000E+00 -0.126024404100E-01  0.799775187900E-02
  0.202020202000E+00 -0.115006823000E-01  0.951419182400E-02
  0.202020202000E+00 -0.102175515600E-01  0.108805872800E-01
  0.202020202000E+00 -0.877328392300E-02  0.120753893800E-01
  0.202020202000E+00 -0.719065636200E-02  0.130797553700E-01
  0.202020202000E+00 -0.549462785500E-02  0.138778458000E-01
  0.202020202000E+00 -0.371194578400E-02  0.144570743200E-01
  0.202020202000E+00 -0.187072411000E-02  0.148083061400E-01
  0.303030303000E+00  0.000000000000E+00  0.200741223800E-01
  0.303030303000E+00  0.251595466900E-02  0.199158319300E-01
  0.303030303000E+00  0.499223122900E-02  0.194434569100E-01
  0.303030303000E+00  0.738977732100E-02  0.186644469600E-01
  0.303030303000E+00  0.967078221000E-02  0.175910875400E-01
  0.303030303000E+00  0.117992730900E-01  0.162403061500E-01
  0.303030303000E+00  0.137416823800E-01  0.146334054400E-01
  0.303030303000E+00  0.154673771300E-01  0.127957271800E-01
  0.303030303000E+00  0.169491421000E-01  0.107562526600E-01
  0.303030303000E+00  0.181636089800E-01  0.854714560500E-02
  0.303030303000E+00  0.190916249000E-01  0.620324496200E-02
  0.303030303000E+00  0.197185544800E-01  0.376151544000E-02
  0.303030303000E+00  0.200345106800E-01  0.126046457300E-02
  0.303030303000E+00  0.200345106800E-01 -0.126046457300E-02
  0.303030303000E+00  0.197185544800E-01 -0.376151544000E-02
  0.303030303000E+00  0.190916249000E-01 -0.620324496200E-02
  0.303030303000E+00  0.181636089800E-01 -0.854714560500E-02
  0.303030303000E+00  0.169491421000E-01 -0.107562526600E-01
  0.303030303000E+00  0.154673771300E-01 -0.127957271800E-01
  0.303030303000E+00  0.137416823800E-01 -0.146334054400E-01
  0.303030303000E+00  0.117992730900E-01 -0.162403061500E-01
  0.303030303000E+00  0.967078221000E-02 -0.175910875400E-01
  0.303030303000E+00  0.738977732100E-02 -0.186644469600E-01
  0.303030303000E+00  0.499223122900E-02 -0.194434569100E-01
  0.303030303000E+00  0.251595466900E-02 -0.199158319300E-01
  0.303030303000E+00 -0.645633017400E-17 -0.200741223800E-01
  0.303030303000E+00 -0.251595466900E-02 -0.199158319300E-01
  0.303030303000E+00 -0.499223122900E-02 -0.194434569100E-01
  0.303030303000E+00 -0.738977732100E-02 -0.186644469600E-01
  0.303030303000E+00 -0.967078221000E-02 -0.175910875400E-01
  0.303030303000E+00 -0.117992730900E-01 -0.162403061500E-01
  0.303030303000E+00 -0.137416823800E-01 -0.146334054400E-01
  0.303030303000E+00 -0.154673771300E-01 -0.127957271800E-01
  0.303030303000E+00 -0.169491421000E-01 -0.107562526600E-01
  0.303030303000E+00 -0.181636089800E-01 -0.854714560500E-02
  0.303030303000E+00 -0.190916249000E-01 -0.620324496200E-02
  0.303030303000E+00 -0.197185544800E-01 -0.376151544000E-02
  0.303030303000E+00 -0.200345106800E-01 -0.126046457300E-02
  0.303030303000E+00 -0.200345106800E-01  0.126046457300E-02
  0.303030303000E+00 -0.197185544800E-01  0.376151544000E-02
  0.303030303000E+00 -0.190916249000E-01  0.620324496200E-02
  0.303030303000E+00 -0.181636089800E-01  0.854714560500E-02
  0.303030303000E+00 -0.169491421000E-01  0.107562526600E-01
  0.303030303000E+00 -0.154673771300E-01  0.127957271800E-01
  0.303030303000E+00 -0.137416823800E-01  0.146334054400E-01
  0.303030303000E+00 -0.117992730900E-01  0.162403061500E-01
  0.303030303000E+00 -0.967078221000E-02  0.175910875400E-01
  0.303030303000E+00 -0.738977732100E-02  0.186644469600E-01
  0.303030303000E+00 -0.499223122900E-02  0.194434569100E-01
  0.303030303000E+00 -0.251595466900E-02  0.199158319300E-01
  0.404040404000E+00  0.000000000000E+00  0.247132520800E-01
  0.404040404000E+00  0.309739179500E-02  0.245183807000E-01
  0.404040404000E+00  0.614593587100E-02  0.239368398200E-01
  0.404040404000E+00  0.909755486700E-02  0.229778006700E-01
  0.404040404000E+00  0.119056999900E-01  0.216563878800E-01
  0.404040404000E+00  0.145260851100E-01  0.199934409200E-01
  0.404040404000E+00  0.169173851900E-01  0.180151854500E-01
  0.404040404000E+00  0.190418880000E-01  0.157528197400E-01
  0.404040404000E+00  0.208660888600E-01  0.132420226500E-01
  0.404040404000E+00  0.223612190400E-01  0.105223909600E-01
[...]
CELL_DATA                9800
SCALARS C_p_ise float 1
LOOKUP_TABLE default
  0.350001690875E-01
  0.350001691178E-01
  0.350001692542E-01
  0.350001693961E-01
  0.350001692086E-01
  0.350001692658E-01
  0.350001695202E-01
  0.350001692977E-01
  0.350001690606E-01
  0.350001693239E-01
  0.350001695731E-01
  0.350001694157E-01
  0.350001693720E-01
  0.350001694755E-01
  0.350001695629E-01
  0.350001692373E-01
  0.350001689775E-01
  0.350001692514E-01
  0.350001695363E-01
  0.350001693011E-01
  0.350001691717E-01
  0.350001692806E-01
  0.350001692675E-01
  0.350001692837E-01
  0.350001691863E-01
  0.350001692070E-01
  0.350001692205E-01
  0.350001692540E-01
  0.350001693952E-01
  0.350001692077E-01
  0.350001692650E-01
  0.350001695194E-01
  0.350001692970E-01
  0.350001690600E-01
  0.350001693235E-01
  0.350001695728E-01
  0.350001694155E-01
  0.350001693720E-01
  0.350001694757E-01
  0.350001695632E-01
  0.350001692377E-01
  0.350001689780E-01
  0.350001692521E-01
  0.350001695370E-01
  0.350001693020E-01
  0.350001691726E-01
  0.350001692815E-01
  0.350001692679E-01
  0.350001692050E-01
  0.350001690907E-01
  0.130890509982E-01
  0.130890505956E-01
  0.130890507907E-01
  0.130890514898E-01
  0.130890512614E-01
  0.130890499949E-01
  0.130890502452E-01
  0.130890508742E-01
  0.130890508943E-01
  0.130890514636E-01
  0.130890514582E-01
  0.130890512897E-01
  0.130890513541E-01
  0.130890509486E-01
  0.130890508681E-01
  0.130890511243E-01
  0.130890510775E-01
  0.130890515061E-01
  0.130890513492E-01
  0.130890500367E-01
  0.130890502352E-01
  0.130890503792E-01
  0.130890504166E-01
  0.130890509762E-01
  0.130890509635E-01
  0.130890510270E-01
  0.130890510844E-01
  0.130890510435E-01
  0.130890510996E-01
  0.130890510956E-01
  0.130890509135E-01
  0.130890510335E-01
  0.130890510330E-01
  0.130890517084E-01
  0.130890517370E-01
  0.130890511398E-01
  0.130890510517E-01
  0.130890499607E-01
  0.130890500991E-01
  0.130890512642E-01
  0.130890510970E-01
  0.130890507644E-01
  0.130890507913E-01
  0.130890506133E-01
  0.130890506107E-01
  0.130890506346E-01
  0.130890506887E-01
  0.130890508629E-01
  0.130890507867E-01
  0.130890507363E-01
  0.130890508955E-01
  0.130890514769E-01
  0.130890515013E-01
  0.130890515627E-01
  0.130890512662E-01
  0.130890499955E-01
  0.130890502453E-01
  0.130890508739E-01
  0.130890508939E-01
  0.130890514631E-01
  0.130890514577E-01
  0.130890512891E-01
  0.130890513536E-01
  0.130890509479E-01
  0.130890508675E-01
  0.130890511236E-01
  0.130890510769E-01
  0.130890515054E-01
  0.130890513485E-01
  0.130890500360E-01
  0.130890502346E-01
  0.130890503785E-01
  0.130890504160E-01
  0.130890509755E-01
  0.130890509629E-01
  0.130890510264E-01
  0.130890510838E-01
  0.130890510429E-01
  0.130890510991E-01
  0.130890510951E-01
  0.130890509130E-01
  0.130890510330E-01
  0.130890510326E-01
  0.130890517080E-01
  0.130890517366E-01
  0.130890511394E-01
  0.130890510514E-01
  0.130890499604E-01
  0.130890500989E-01
  0.130890512640E-01
  0.130890510968E-01
  0.130890507643E-01
  0.130890507912E-01
  0.130890506134E-01
  0.130890506108E-01
  0.130890506362E-01
  0.130890506903E-01
  0.130890510704E-01
  0.130890510169E-01
  0.130890511011E-01
  0.115313354582E-01
  0.115313361653E-01
  0.115313361206E-01
  0.115313352658E-01
  0.115313355151E-01
  0.115313375206E-01
  0.115313373059E-01
  0.115313362393E-01
  0.115313364463E-01
  0.115313368148E-01
  0.115313367134E-01
  0.115313352136E-01
  0.115313353964E-01
  0.115313365143E-01
  0.115313362222E-01
  0.115313353050E-01
  0.115313353483E-01
  0.115313355485E-01
  0.115313355492E-01
  0.115313358464E-01
  0.115313358956E-01
  0.115313369895E-01
  0.115313368974E-01
  0.115313358427E-01
  0.115313360230E-01
  0.115313365043E-01
  0.115313363463E-01
  0.115313348441E-01
  0.115313350585E-01
  0.115313362468E-01
  0.115313360826E-01
  0.115313360384E-01
  0.115313361169E-01
  0.115313364746E-01
  0.115313364917E-01
  0.115313354454E-01
  0.115313353106E-01
  0.115313357777E-01
  0.115313356157E-01
  0.115313352976E-01
  0.115313355576E-01
  0.115313366047E-01
  0.115313365401E-01
  0.115313364312E-01
  0.115313365099E-01
  0.115313373193E-01
  0.115313371322E-01
  0.115313355088E-01
  0.115313354912E-01
  0.115313355618E-01
  0.115313354805E-01
  0.115313340715E-01
  0.115313343768E-01
  0.115313354588E-01
  0.115313355142E-01
  0.115313375327E-01
  0.115313373166E-01
  0.115313362510E-01
  0.115313364578E-01
  0.115313368263E-01
  0.115313367248E-01
  0.115313352246E-01
  0.115313354072E-01
  0.115313365245E-01
  0.115313362323E-01
  0.115313353143E-01
  0.115313353575E-01
  0.115313355567E-01
  0.115313355573E-01
  0.115313358534E-01
  0.115313359025E-01
  0.115313369953E-01
  0.115313369030E-01
  0.115313358471E-01
  0.115313360273E-01
  0.115313365073E-01
  0.115313363493E-01
  0.115313348458E-01
  0.115313350600E-01
  0.115313362471E-01
  0.115313360828E-01
  0.115313360373E-01
  0.115313361157E-01
  0.115313364721E-01
  0.115313364892E-01
  0.115313354416E-01
  0.115313353067E-01
  0.115313357727E-01
  0.115313356106E-01
  0.115313352914E-01
  0.115313355513E-01
  0.115313365975E-01
  0.115313365327E-01
  0.115313364230E-01
  0.115313365016E-01
  0.115313373099E-01
  0.115313371118E-01
  0.115313354115E-01
  0.115313354444E-01
  0.115313354245E-01
  0.951398032131E-02
  0.951398225456E-02
  0.951398211818E-02
  0.951398028714E-02
  0.951398049111E-02
  0.951398138675E-02
  0.951398147223E-02
  0.951398160133E-02
  0.951398155304E-02
  0.951398064682E-02
  0.951398050420E-02
  0.951397954740E-02
  0.951397946547E-02
  0.951397899903E-02
  0.951397921909E-02
  0.951398244389E-02
  0.951398246241E-02
  0.951398341763E-02
  0.951398322609E-02
  0.951398110739E-02
  0.951398103630E-02
  0.951397954678E-02
  0.951397958445E-02
  0.951397935010E-02
  0.951397936031E-02
  0.951397924011E-02
  0.951397933734E-02
  0.951398103252E-02
  0.951398087948E-02
  0.951397946022E-02
  0.951397948686E-02
  0.951397964927E-02
  0.951397959663E-02
  0.951397847159E-02
  0.951397873199E-02
  0.951398065886E-02
  0.951398044415E-02
  0.951398088430E-02
  0.951398091570E-02
  0.951398203249E-02
  0.951398189978E-02
  0.951397875816E-02
  0.951397899762E-02
  0.951398053926E-02
  0.951398026878E-02
  0.951397711391E-02
  0.951397758859E-02
  0.951398276336E-02
  0.951398210239E-02
  0.951397794621E-02
  0.951397800128E-02
  0.951397914865E-02
  0.951397932812E-02
  0.951398020987E-02
  0.951398049754E-02
  0.951398141195E-02
  0.951398149813E-02
  0.951398162828E-02
  0.951398157993E-02
  0.951398067307E-02
  0.951398053023E-02
  0.951397957210E-02
  0.951397948984E-02
  0.951397902165E-02
  0.951397924132E-02
  0.951398246405E-02
  0.951398248212E-02
  0.951398343504E-02
  0.951398324302E-02
  0.951398112183E-02
  0.951398105022E-02
  0.951397955809E-02
  0.951397959522E-02
  0.951397935816E-02
  0.951397936782E-02
  0.951397924486E-02
  0.951397934152E-02
  0.951398103393E-02
  0.951398088032E-02
  0.951397945831E-02
  0.951397948439E-02
  0.951397964410E-02
  0.951397959092E-02
  0.951397846327E-02
  0.951397872314E-02
  0.951398064754E-02
  0.951398043233E-02
  0.951398087016E-02
  0.951398090111E-02
  0.951398201579E-02
  0.951398188267E-02
  0.951397873922E-02
  0.951397897833E-02
  0.951398051853E-02
  0.951398024764E-02
  0.951397709091E-02
  0.951397752887E-02
  0.951398244561E-02
  0.951398204791E-02
  0.951398009342E-02
  0.820387135835E-02
  0.820386605364E-02
  0.820386643751E-02
  0.820387052617E-02
  0.820387046708E-02
  0.820386956006E-02
  0.820386972419E-02
  0.820386973729E-02
  0.820386972348E-02
  0.820386996899E-02
  0.820386972956E-02
  0.820386944733E-02
  0.820386939930E-02
  0.820387088201E-02
  0.820387075057E-02
  0.820386711604E-02
  0.820386722374E-02
  0.820386452438E-02
  0.820386483324E-02
  0.820386980758E-02
  0.820386962586E-02
  0.820387069603E-02
  0.820387047188E-02
  0.820386900016E-02
  0.820386896244E-02
  0.820386865080E-02
  0.820386871720E-02
  0.820386857232E-02
  0.820386859005E-02
  0.820386855375E-02
  0.820386863920E-02
  0.820387110696E-02
  0.820387124239E-02
  0.820387333764E-02
  0.820387327371E-02
  0.820387078711E-02
  0.820387066113E-02
  0.820386924949E-02
  0.820386929123E-02
  0.820386893157E-02
  0.820386903000E-02
  0.820387046921E-02
  0.820387019575E-02
  0.820386773534E-02
  0.820386795469E-02
  0.820387198304E-02
  0.820387179763E-02
  0.820386775634E-02
  0.820386819872E-02
  0.820387520360E-02
  0.820387462762E-02
  0.820387172456E-02
  0.820387185728E-02
  0.820387007919E-02
  0.820387035243E-02
  0.820386940920E-02
  0.820386957606E-02
  0.820386959300E-02
  0.820386957994E-02
  0.820386983443E-02
  0.820386959565E-02
  0.820386932502E-02
  0.820386927763E-02
  0.820387077369E-02
  0.820387064288E-02
  0.820386702297E-02
  0.820386713130E-02
  0.820386444749E-02
  0.820386475697E-02
  0.820386974753E-02
  0.820386956642E-02
  0.820387065327E-02
  0.820387042973E-02
  0.820386897497E-02
  0.820386893785E-02
  0.820386864329E-02
  0.820386871027E-02
  0.820386858245E-02
  0.820386860074E-02
  0.820386858132E-02
  0.820386866731E-02
  0.820387115163E-02
  0.820387128758E-02
  0.820387339889E-02
  0.820387333545E-02
  0.820387086423E-02
  0.820387073871E-02
  0.820386934154E-02
  0.820386938370E-02
  0.820386903736E-02
  0.820386913616E-02
  0.820387058722E-02
  0.820387031406E-02
  0.820386786361E-02
  0.820386808318E-02
  0.820387212091E-02
  0.820387194062E-02
  0.820386839022E-02
  0.820386873334E-02
  0.820387175692E-02
  0.721125549096E-02
  0.721125957187E-02
  0.721125965667E-02
  0.721126152863E-02
  0.721126135565E-02
  0.721125480876E-02
  0.721125501508E-02
  0.721125686727E-02
  0.721125673104E-02
  0.721125478294E-02
  0.721125471898E-02
  0.721125691203E-02
  0.721125658612E-02
  0.721125254499E-02
  0.721125268270E-02
  0.721125501619E-02
  0.721125499218E-02
  0.721125723980E-02
  0.721125752997E-02
  0.721126065141E-02
  0.721126059987E-02
  0.721125670947E-02
  0.721125704922E-02
  0.721126435128E-02
  0.721126374194E-02
  0.721125650346E-02
  0.721125647646E-02
  0.721125545343E-02
  0.721125562646E-02
  0.721125822684E-02
  0.721125821561E-02
  0.721125683445E-02
  0.721125688579E-02
  0.721125290907E-02
  0.721125316589E-02
  0.721125568018E-02
  0.721125566126E-02
  0.721126006167E-02
  0.721125969230E-02
  0.721125495844E-02
  0.721125511386E-02
  0.721125651766E-02
  0.721125658363E-02
  0.721125992649E-02
  0.721125982719E-02
  0.721125796545E-02
  0.721125791925E-02
  0.721125524528E-02
  0.721125549316E-02
  0.721125759753E-02
  0.721125751570E-02
  0.721125651483E-02
  0.721125674715E-02
  0.721126178515E-02
  0.721126148820E-02
  0.721125495831E-02
  0.721125516446E-02
  0.721125701606E-02
  0.721125688109E-02
  0.721125493740E-02
  0.721125487315E-02
  0.721125704186E-02
  0.721125671514E-02
  0.721125263893E-02
  0.721125277687E-02
  0.721125508939E-02
  0.721125506599E-02
  0.721125729718E-02
  0.721125758804E-02
  0.721126069320E-02
  0.721126064242E-02
  0.721125673617E-02
  0.721125707672E-02
  0.721126436321E-02
  0.721126375468E-02
  0.721125650082E-02
  0.721125647464E-02
  0.721125543629E-02
  0.721125561011E-02
  0.721125819495E-02
  0.721125818447E-02
  0.721125678750E-02
  0.721125683953E-02
  0.721125284691E-02
  0.721125310438E-02
  0.721125560301E-02
  0.721125558426E-02
  0.721125996292E-02
  0.721125959222E-02
  0.721125481482E-02
  0.721125497086E-02
  0.721125636365E-02
  0.721125643119E-02
  0.721125978051E-02
  0.721125968173E-02
  0.721125781319E-02
  0.721125772904E-02
  0.721125437963E-02
  0.721125449295E-02
  0.721125537583E-02
  0.620436463649E-02
  0.620435768246E-02
  0.620435811115E-02
  0.620436002722E-02
  0.620436011924E-02
  0.620436275200E-02
  0.620436232062E-02
  0.620435805460E-02
  0.620435809832E-02
  0.620435920846E-02
  0.620435898434E-02
  0.620435811344E-02
  0.620435812573E-02
  0.620436158552E-02
  0.620436158102E-02
  0.620436363493E-02
  0.620436362865E-02
  0.620436130875E-02
  0.620436135545E-02
  0.620435464733E-02
  0.620435490267E-02
  0.620435703979E-02
  0.620435684719E-02
  0.620435169218E-02
  0.620435218243E-02
  0.620436375913E-02
  0.620436305069E-02
  0.620435845941E-02
  0.620435852453E-02
  0.620435786324E-02
  0.620435803925E-02
  0.620435860497E-02
  0.620435869288E-02
  0.620436096655E-02
  0.620436082150E-02
  0.620435810048E-02
  0.620435815322E-02
  0.620435663643E-02
  0.620435657872E-02
  0.620435701788E-02
  0.620435712092E-02
  0.620436164348E-02
  0.620436146691E-02
  0.620435545365E-02
  0.620435581735E-02
  0.620436055121E-02
  0.620436054805E-02
  0.620436338867E-02
  0.620436333573E-02
  0.620436102269E-02
  0.620436109173E-02
  0.620436144394E-02
  0.620436151937E-02
  0.620435998684E-02
  0.620436015211E-02
  0.620436275919E-02
  0.620436232809E-02
  0.620435805130E-02
  0.620435809513E-02
  0.620435918582E-02
  0.620435896225E-02
  0.620435810191E-02
  0.620435811311E-02
  0.620436159383E-02
  0.620436158738E-02
  0.620436364032E-02
  0.620436363158E-02
  0.620436127880E-02
  0.620436132542E-02
  0.620435462232E-02
  0.620435487790E-02
  0.620435702448E-02
  0.620435683135E-02
  0.620435167034E-02
  0.620435216007E-02
  0.620436373047E-02
  0.620436302132E-02
  0.620435841972E-02
  0.620435848383E-02
  0.620435780719E-02
  0.620435798444E-02
  0.620435857767E-02
  0.620435866607E-02
  0.620436095455E-02
  0.620436080881E-02
  0.620435808162E-02
  0.620435813400E-02
  0.620435662525E-02
  0.620435656681E-02
  0.620435703991E-02
  0.620435714086E-02
  0.620436166261E-02
  0.620436148586E-02
  0.620435545439E-02
  0.620435581889E-02
  0.620436055158E-02
  0.620436054851E-02
  0.620436406166E-02
  0.620436401089E-02
  0.620436484864E-02
  0.554014772652E-02
  0.554015871199E-02
  0.554015865800E-02
  0.554015634789E-02
  0.554015649909E-02
  0.554015578436E-02
  0.554015566727E-02
  0.554015907852E-02
  0.554015888748E-02
  0.554015855163E-02
  0.554015852613E-02
  0.554016135542E-02
  0.554016103080E-02
  0.554015466344E-02
  0.554015496273E-02
  0.554015775722E-02
  0.554015765425E-02
  0.554015326970E-02
  0.554015342945E-02
  0.554015850928E-02
  0.554015840951E-02
  0.554015839226E-02
  0.554015845018E-02
  0.554016130876E-02
  0.554016130410E-02
  0.554015681746E-02
  0.554015673192E-02
  0.554015665281E-02
  0.554015635633E-02
  0.554015363278E-02
  0.554015374671E-02
  0.554015334024E-02
  0.554015364596E-02
  0.554015786714E-02
  0.554015795662E-02
  0.554016038187E-02
  0.554016009792E-02
  0.554015583096E-02
  0.554015618825E-02
  0.554016683483E-02
  0.554016645008E-02
  0.554015547002E-02
  0.554015566704E-02
  0.554015857985E-02
  0.554015832478E-02
  0.554015193403E-02
  0.554015223956E-02
  0.554015373142E-02
  0.554015375699E-02
  0.554015226652E-02
  0.554015219806E-02
  0.554015184170E-02
  0.554015212744E-02
  0.554015640873E-02
  0.554015645628E-02
  0.554015578586E-02
  0.554015566801E-02
  0.554015908526E-02
  0.554015889395E-02
  0.554015856196E-02
  0.554015853616E-02
  0.554016136869E-02
  0.554016104372E-02
  0.554015467950E-02
  0.554015497839E-02
  0.554015778128E-02
  0.554015767764E-02
  0.554015332998E-02
  0.554015348752E-02
  0.554015855708E-02
  0.554015845888E-02
  0.554015846556E-02
  0.554015852293E-02
  0.554016136999E-02
  0.554016136481E-02
  0.554015688381E-02
  0.554015679550E-02
  0.554015667770E-02
  0.554015637961E-02
  0.554015365326E-02
  0.554015376654E-02
  0.554015333765E-02
  0.554015364451E-02
  0.554015785015E-02
  0.554015794012E-02
  0.554016037390E-02
  0.554016008938E-02
  0.554015582419E-02
  0.554015618127E-02
  0.554016682977E-02
  0.554016644486E-02
  0.554015546680E-02
  0.554015566372E-02
  0.554015857878E-02
  0.554015832378E-02
  0.554015193807E-02
  0.554015227337E-02
  0.554015441273E-02
  0.554015422828E-02
  0.554014737961E-02
  0.485633875823E-02
  0.485633563682E-02
  0.485633578047E-02
  0.485632869298E-02
  0.485632922796E-02
  0.485634153234E-02
  0.485634108323E-02
  0.485633340694E-02
  0.485633351313E-02
  0.485633696624E-02
  0.485633676326E-02
  0.485633265560E-02
  0.485633282610E-02
  0.485634171411E-02
  0.485634115823E-02
  0.485632709653E-02
  0.485632770248E-02
  0.485634223844E-02
  0.485634179566E-02
  0.485633171137E-02
  0.485633210368E-02
  0.485633875891E-02
  0.485633875003E-02
  0.485633717541E-02
  0.485633702247E-02
  0.485633019552E-02
  0.485633054846E-02
  0.485634628415E-02
  0.485634557526E-02
  0.485633496445E-02
  0.485633523407E-02
  0.485634222547E-02
  0.485634230507E-02
  0.485633749747E-02
  0.485633739402E-02
  0.485632810262E-02
  0.485632834765E-02
  0.485633856656E-02
  0.485633842890E-02
  0.485633115242E-02
  0.485633124117E-02
  0.485633098951E-02
  0.485633121801E-02
  0.485634422844E-02
  0.485634382826E-02
  0.485633669942E-02
  0.485633659486E-02
  0.485633370010E-02
  0.485633394171E-02
  0.485633775160E-02
  0.485633772909E-02
  0.485634041084E-02
  0.485634019511E-02
  0.485632842054E-02
  0.485632914301E-02
  0.485634141483E-02
  0.485634096683E-02
  0.485633328814E-02
  0.485633339438E-02
  0.485633684892E-02
  0.485633664598E-02
  0.485633254238E-02
  0.485633271292E-02
  0.485634160701E-02
  0.485634105122E-02
  0.485632699754E-02
  0.485632760363E-02
  0.485634214992E-02
  0.485634170738E-02
  0.485633164156E-02
  0.485633203406E-02
  0.485633866821E-02
  0.485633866121E-02
  0.485633712059E-02
  0.485633696799E-02
  0.485633017472E-02
  0.485633052941E-02
  0.485634636843E-02
  0.485634565741E-02
  0.485633507362E-02
  0.485633534218E-02
  0.485634232544E-02
  0.485634240523E-02
  0.485633759972E-02
  0.485633749611E-02
  0.485632820586E-02
  0.485632845073E-02
  0.485633866998E-02
  0.485633853219E-02
  0.485633125535E-02
  0.485633134398E-02
  0.485633109134E-02
  0.485633131976E-02
  0.485634432827E-02
  0.485634392803E-02
  0.485633679334E-02
  0.485633668904E-02
  0.485633309003E-02
  0.485633323317E-02
  0.485633885253E-02
  0.435946788510E-02
  0.435946885607E-02
  0.435946868547E-02
  0.435946334757E-02
  0.435946337606E-02
  0.435945742020E-02
  0.435945767747E-02
  0.435946379239E-02
  0.435946356998E-02
  0.435946270107E-02
  0.435946280943E-02
  0.435946762781E-02
  0.435946766418E-02
  0.435946852600E-02
  0.435946832079E-02
  0.435946791328E-02
  0.435946754135E-02
  0.435945585671E-02
  0.435945654225E-02
  0.435947221201E-02
  0.435947191152E-02
  0.435946366873E-02
  0.435946382606E-02
  0.435946135605E-02
  0.435946152569E-02
  0.435947214724E-02
  0.435947188699E-02
  0.435946236383E-02
  0.435946268328E-02
  0.435947386497E-02
  0.435947337624E-02
  0.435946373379E-02
  0.435946399852E-02
  0.435946183291E-02
  0.435946202342E-02
  0.435947536494E-02
  0.435947507698E-02
  0.435947032166E-02
  0.435947032487E-02
  0.435946311578E-02
  0.435946331862E-02
  0.435947451000E-02
  0.435947429232E-02
  0.435946222372E-02
  0.435946260955E-02
  0.435947030891E-02
  0.435946989769E-02
  0.435946873721E-02
  0.435946887112E-02
  0.435946927578E-02
  0.435946941245E-02
  0.435946978498E-02
  0.435946946553E-02
  0.435946333813E-02
  0.435946336656E-02
  0.435945740974E-02
  0.435945766703E-02
  0.435946378731E-02
  0.435946356510E-02
  0.435946270227E-02
  0.435946281093E-02
  0.435946763538E-02
  0.435946767216E-02
  0.435946854008E-02
  0.435946833541E-02
  0.435946793440E-02
  0.435946756325E-02
  0.435945588828E-02
  0.435945657461E-02
  0.435947224915E-02
  0.435947194919E-02
  0.435946369628E-02
  0.435946385382E-02
  0.435946136160E-02
  0.435946153171E-02
  0.435947212068E-02
  0.435947186274E-02
  0.435946232189E-02
  0.435946264356E-02
  0.435947383424E-02
  0.435947334520E-02
  0.435946369357E-02
  0.435946395859E-02
  0.435946180467E-02
  0.435946199544E-02
  0.435947534644E-02
  0.435947505871E-02
  0.435947031261E-02
  0.435947031601E-02
  0.435946311554E-02
  0.435946331852E-02
  0.435947451743E-02
  0.435947429983E-02
  0.435946223688E-02
  0.435946262235E-02
  0.435947031542E-02
  0.435946984640E-02
  0.435946704775E-02