# vtk DataFile Version 3.0
MachLine results file. Generated by MachLine, USU AeroLab (c) 2022.
ASCII
DATASET POLYDATA
POINTS                4902 float
  0.111545794163E-10 -0.773795221435E-27 -0.281380080522E-27
  0.101010101000E+00 -0.845717903740E-13  0.894358745428E-02
  0.101010101000E+00  0.112092873507E-02  0.887306459535E-02
  0.101010101000E+00  0.222417975425E-02  0.866260820752E-02
  0.101010101000E+00  0.329235413045E-02  0.831553731379E-02
  0.101010101000E+00  0.430860611569E-02  0.783732542916E-02
  0.101010101000E+00  0.525690880798E-02  0.723551424062E-02
  0.101010101000E+00  0.612230690834E-02  0.651959467016E-02
  0.101010101000E+00  0.689115257077E-02  0.570085719778E-02
  0.101010101000E+00  0.755132064128E-02  0.479221380147E-02
  0.101010101000E+00  0.809239987389E-02  0.380799433022E-02
  0.101010101000E+00  0.850585712659E-02  0.276372051401E-02
  0.101010101000E+00  0.878517193139E-02  0.167586117382E-02
  0.101010101000E+00  0.892593932729E-02  0.561572502763E-03
  0.101010101000E+00  0.892593932730E-02 -0.561572502594E-03
  0.101010101000E+00  0.878517193142E-02 -0.167586117366E-02
  0.101010101000E+00  0.850585712664E-02 -0.276372051384E-02
  0.101010101000E+00  0.809239987396E-02 -0.380799433006E-02
  0.101010101000E+00  0.755132064138E-02 -0.479221380133E-02
  0.101010101000E+00  0.689115257088E-02 -0.570085719765E-02
  0.101010101000E+00  0.612230690846E-02 -0.651959467005E-02
  0.101010101000E+00  0.525690880812E-02 -0.723551424052E-02
  0.101010101000E+00  0.430860611584E-02 -0.783732542907E-02
  0.101010101000E+00  0.329235413061E-02 -0.831553731373E-02
  0.101010101000E+00  0.222417975441E-02 -0.866260820747E-02
  0.101010101000E+00  0.112092873524E-02 -0.887306459533E-02
  0.101010101000E+00  0.845689138969E-13 -0.894358745428E-02
  0.101010101000E+00 -0.112092873507E-02 -0.887306459535E-02
  0.101010101000E+00 -0.222417975425E-02 -0.866260820752E-02
  0.101010101000E+00 -0.329235413045E-02 -0.831553731379E-02
  0.101010101000E+00 -0.430860611569E-02 -0.783732542916E-02
  0.101010101000E+00 -0.525690880798E-02 -0.723551424062E-02
  0.101010101000E+00 -0.612230690834E-02 -0.651959467016E-02
  0.101010101000E+00 -0.689115257077E-02 -0.570085719778E-02
  0.101010101000E+00 -0.755132064128E-02 -0.479221380147E-02
  0.101010101000E+00 -0.809239987389E-02 -0.380799433022E-02
  0.101010101000E+00 -0.850585712659E-02 -0.276372051401E-02
  0.101010101000E+00 -0.878517193139E-02 -0.167586117382E-02
  0.101010101000E+00 -0.892593932729E-02 -0.561572502763E-03
  0.101010101000E+00 -0.892593932730E-02  0.561572502594E-03
  0.101010101000E+00 -0.878517193142E-02  0.167586117366E-02
  0.101010101000E+00 -0.850585712664E-02  0.276372051384E-02
  0.101010101000E+00 -0.809239987396E-02  0.380799433006E-02
  0.101010101000E+00 -0.755132064138E-02  0.479221380133E-02
  0.101010101000E+00 -0.689115257088E-02  0.570085719765E-02
  0.101010101000E+00 -0.612230690846E-02  0.651959467005E-02
  0.101010101000E+00 -0.525690880812E-02  0.723551424052E-02
  0.101010101000E+00 -0.430860611584E-02  0.783732542907E-02
  0.101010101000E+00 -0.329235413061E-02  0.831553731373E-02
  0.101010101000E+00 -0.222417975441E-02  0.866260820747E-02
  0.101010101000E+00 -0.112092873524E-02  0.887306459533E-02
  0.202020202000E+00 -0.354274922533E-16  0.149260021125E-01
  0.202020202000E+00  0.187072410906E-02  0.148083061326E-01
  0.202020202000E+00  0.371194578214E-02  0.144570743128E-01
  0.202020202000E+00  0.549462785225E-02  0.138778457930E-01
  0.202020202000E+00  0.719065635840E-02  0.130797553634E-01
  0.202020202000E+00  0.877328391861E-02  0.120753893740E-01
  0.202020202000E+00  0.102175515549E-01  0.108805872745E-01
  0.202020202000E+00  0.115006822942E-01  0.951419181923E-02
  0.202020202000E+00  0.126024404037E-01  0.799775187499E-02
  0.202020202000E+00  0.135054505032E-01  0.635518260682E-02
  0.202020202000E+00  0.141954715729E-01  0.461238831169E-02
  0.202020202000E+00  0.146616215827E-01  0.279685389760E-02
  0.202020202000E+00  0.148965490625E-01  0.937211427331E-03
  0.202020202000E+00  0.148965490625E-01 -0.937211427330E-03
  0.202020202000E+00  0.146616215827E-01 -0.279685389760E-02
  0.202020202000E+00  0.141954715729E-01 -0.461238831169E-02
  0.202020202000E+00  0.135054505032E-01 -0.635518260682E-02
  0.202020202000E+00  0.126024404037E-01 -0.799775187499E-02
  0.202020202000E+00  0.115006822942E-01 -0.951419181923E-02
  0.202020202000E+00  0.102175515549E-01 -0.108805872745E-01
  0.202020202000E+00  0.877328391861E-02 -0.120753893740E-01
  0.202020202000E+00  0.719065635840E-02 -0.130797553634E-01
  0.202020202000E+00  0.549462785225E-02 -0.138778457930E-01
  0.202020202000E+00  0.371194578214E-02 -0.144570743128E-01
  0.202020202000E+00  0.187072410906E-02 -0.148083061326E-01
  0.202020202000E+00  0.306269238374E-16 -0.149260021125E-01
  0.202020202000E+00 -0.187072410906E-02 -0.148083061326E-01
  0.202020202000E+00 -0.371194578214E-02 -0.144570743128E-01
  0.202020202000E+00 -0.549462785225E-02 -0.138778457930E-01
  0.202020202000E+00 -0.719065635840E-02 -0.130797553634E-01
  0.202020202000E+00 -0.877328391861E-02 -0.120753893740E-01
  0.202020202000E+00 -0.102175515549E-01 -0.108805872745E-01
  0.202020202000E+00 -0.115006822942E-01 -0.951419181923E-02
  0.202020202000E+00 -0.126024404037E-01 -0.799775187499E-02
  0.202020202000E+00 -0.135054505032E-01 -0.635518260682E-02
  0.202020202000E+00 -0.141954715729E-01 -0.461238831169E-02
  0.202020202000E+00 -0.146616215827E-01 -0.279685389760E-02
  0.202020202000E+00 -0.148965490625E-01 -0.937211427331E-03
  0.202020202000E+00 -0.148965490625E-01  0.937211427330E-03
  0.202020202000E+00 -0.146616215827E-01  0.279685389760E-02
  0.202020202000E+00 -0.141954715729E-01  0.461238831169E-02
  0.202020202000E+00 -0.135054505032E-01  0.635518260682E-02
  0.202020202000E+00 -0.126024404037E-01  0.799775187499E-02
  0.202020202000E+00 -0.115006822942E-01  0.951419181923E-02
  0.202020202000E+00 -0.102175515549E-01  0.108805872745E-01
  0.202020202000E+00 -0.877328391861E-02  0.120753893740E-01
  0.202020202000E+00 -0.719065635840E-02  0.130797553634E-01
  0.202020202000E+00 -0.549462785225E-02  0.138778457930E-01
  0.202020202000E+00 -0.371194578214E-02  0.144570743128E-01
  0.202020202000E+00 -0.187072410906E-02  0.148083061326E-01
  0.303030303000E+00 -0.190862155350E-16  0.200741223725E-01
  0.303030303000E+00  0.251595466806E-02  0.199158319226E-01
  0.303030303000E+00  0.499223122713E-02  0.194434569027E-01
  0.303030303000E+00  0.738977731824E-02  0.186644469530E-01
  0.303030303000E+00  0.967078220639E-02  0.175910875334E-01
  0.303030303000E+00  0.117992730856E-01  0.162403061439E-01
  0.303030303000E+00  0.137416823749E-01  0.146334054345E-01
  0.303030303000E+00  0.154673771242E-01  0.127957271752E-01
  0.303030303000E+00  0.169491420937E-01  0.107562526560E-01
  0.303030303000E+00  0.181636089732E-01  0.854714560181E-02
  0.303030303000E+00  0.190916248929E-01  0.620324495968E-02
  0.303030303000E+00  0.197185544726E-01  0.376151543859E-02
  0.303030303000E+00  0.200345106725E-01  0.126046457253E-02
  0.303030303000E+00  0.200345106725E-01 -0.126046457253E-02
  0.303030303000E+00  0.197185544726E-01 -0.376151543859E-02
  0.303030303000E+00  0.190916248929E-01 -0.620324495968E-02
  0.303030303000E+00  0.181636089732E-01 -0.854714560181E-02
  0.303030303000E+00  0.169491420937E-01 -0.107562526560E-01
  0.303030303000E+00  0.154673771242E-01 -0.127957271752E-01
  0.303030303000E+00  0.137416823749E-01 -0.146334054345E-01
  0.303030303000E+00  0.117992730856E-01 -0.162403061439E-01
  0.303030303000E+00  0.967078220639E-02 -0.175910875334E-01
  0.303030303000E+00  0.738977731824E-02 -0.186644469530E-01
  0.303030303000E+00  0.499223122713E-02 -0.194434569027E-01
  0.303030303000E+00  0.251595466806E-02 -0.199158319226E-01
  0.303030303000E+00  0.126298853622E-16 -0.200741223725E-01
  0.303030303000E+00 -0.251595466806E-02 -0.199158319226E-01
  0.303030303000E+00 -0.499223122713E-02 -0.194434569027E-01
  0.303030303000E+00 -0.738977731824E-02 -0.186644469530E-01
  0.303030303000E+00 -0.967078220639E-02 -0.175910875334E-01
  0.303030303000E+00 -0.117992730856E-01 -0.162403061439E-01
  0.303030303000E+00 -0.137416823749E-01 -0.146334054345E-01
  0.303030303000E+00 -0.154673771242E-01 -0.127957271752E-01
  0.303030303000E+00 -0.169491420937E-01 -0.107562526560E-01
  0.303030303000E+00 -0.181636089732E-01 -0.854714560181E-02
  0.303030303000E+00 -0.190916248929E-01 -0.620324495968E-02
  0.303030303000E+00 -0.197185544726E-01 -0.376151543859E-02
  0.303030303000E+00 -0.200345106725E-01 -0.126046457253E-02
  0.303030303000E+00 -0.200345106725E-01  0.126046457253E-02
  0.303030303000E+00 -0.197185544726E-01  0.376151543859E-02
  0.303030303000E+00 -0.190916248929E-01  0.620324495968E-02
  0.303030303000E+00 -0.181636089732E-01  0.854714560181E-02
  0.303030303000E+00 -0.169491420937E-01  0.107562526560E-01
  0.303030303000E+00 -0.154673771242E-01  0.127957271752E-01
  0.303030303000E+00 -0.137416823749E-01  0.146334054345E-01
  0.303030303000E+00 -0.117992730856E-01  0.162403061439E-01
  0.303030303000E+00 -0.967078220639E-02  0.175910875334E-01
  0.303030303000E+00 -0.738977731824E-02  0.186644469530E-01
  0.303030303000E+00 -0.499223122713E-02  0.194434569027E-01
  0.303030303000E+00 -0.251595466806E-02  0.199158319226E-01
  0.404040404000E+00 -0.125996311440E-16  0.247132520725E-01
  0.404040404000E+00  0.309739179406E-02  0.245183806925E-01
  0.404040404000E+00  0.614593586913E-02  0.239368398127E-01
  0.404040404000E+00  0.909755486423E-02  0.229778006630E-01
  0.404040404000E+00  0.119056999864E-01  0.216563878734E-01
  0.404040404000E+00  0.145260851056E-01  0.199934409139E-01
  0.404040404000E+00  0.169173851849E-01  0.180151854445E-01
  0.404040404000E+00  0.190418879942E-01  0.157528197352E-01
  0.404040404000E+00  0.208660888536E-01  0.132420226460E-01
  0.404040404000E+00  0.223612190332E-01  0.105223909568E-01
[...]
POINT_DATA                4902
SCALARS phi float 1
LOOKUP_TABLE default
  0.807793566946E-27
  0.000000000000E+00
 -0.216840434497E-18
  0.108420217249E-18
 -0.108420217249E-18
  0.433680868994E-18
  0.000000000000E+00
 -0.216840434497E-18
  0.650521303491E-18
  0.108420217249E-18
  0.000000000000E+00
  0.216840434497E-18
  0.108420217249E-18
  0.325260651746E-18
  0.108420217249E-18
  0.000000000000E+00
  0.000000000000E+00
 -0.325260651746E-18
  0.325260651746E-18
  0.108420217249E-18
  0.325260651746E-18
 -0.325260651746E-18
  0.108420217249E-18
 -0.325260651746E-18
 -0.108420217249E-18
  0.325260651746E-18
  0.000000000000E+00
  0.000000000000E+00
 -0.108420217249E-18
  0.650521303491E-18
 -0.650521303491E-18
 -0.433680868994E-18
  0.325260651746E-18
  0.000000000000E+00
  0.000000000000E+00
 -0.433680868994E-18
  0.108420217249E-18
  0.108420217249E-18
  0.108420217249E-18
  0.216840434497E-18
 -0.650521303491E-18
 -0.433680868994E-18
 -0.108420217249E-18
 -0.108420217249E-18
  0.000000000000E+00
  0.216840434497E-18
  0.216840434497E-18
 -0.650521303491E-18
  0.216840434497E-18
  0.216840434497E-18
  0.216840434497E-18
 -0.216840434497E-18
  0.108420217249E-18
 -0.216840434497E-18
 -0.325260651746E-18
 -0.216840434497E-18
  0.216840434497E-18
  0.325260651746E-18
  0.108420217249E-18
  0.000000000000E+00
 -0.542101086243E-18
  0.542101086243E-18
  0.000000000000E+00
  0.108420217249E-18
  0.108420217249E-18
  0.650521303491E-18
 -0.325260651746E-18
 -0.542101086243E-18
 -0.108420217249E-18
 -0.216840434497E-18
  0.000000000000E+00
  0.216840434497E-18
 -0.325260651746E-18
 -0.325260651746E-18
  0.216840434497E-18
 -0.108420217249E-18
  0.000000000000E+00
  0.108420217249E-18
 -0.542101086243E-18
 -0.216840434497E-18
  0.433680868994E-18
  0.108420217249E-18
  0.000000000000E+00
  0.108420217249E-18
  0.216840434497E-18
  0.216840434497E-18
 -0.542101086243E-18
  0.216840434497E-18
  0.433680868994E-18
  0.216840434497E-18
  0.216840434497E-18
  0.650521303491E-18
 -0.433680868994E-18
 -0.108420217249E-18
 -0.108420217249E-18
 -0.216840434497E-18
 -0.433680868994E-18
  0.000000000000E+00
 -0.216840434497E-18
 -0.325260651746E-18
  0.108420217249E-18
 -0.542101086243E-19
  0.325260651746E-18
 -0.108420217249E-18
  0.000000000000E+00
 -0.216840434497E-18
 -0.108420217249E-18
  0.162630325873E-18
 -0.379470760370E-18
  0.162630325873E-18
 -0.325260651746E-18
 -0.542101086243E-19
  0.542101086243E-19
  0.162630325873E-18
  0.216840434497E-18
 -0.271050543121E-18
 -0.162630325873E-18
  0.108420217249E-18
  0.162630325873E-18
 -0.271050543121E-18
 -0.162630325873E-18
  0.542101086243E-19
 -0.162630325873E-18
 -0.108420217249E-18
 -0.650521303491E-18
  0.379470760370E-18
  0.542101086243E-19
  0.000000000000E+00
  0.162630325873E-18
 -0.325260651746E-18
  0.162630325873E-18
  0.542101086243E-19
  0.542101086243E-19
  0.108420217249E-18
 -0.216840434497E-18
  0.542101086243E-19
  0.000000000000E+00
  0.162630325873E-18
 -0.108420217249E-18
 -0.216840434497E-18
  0.108420217249E-18
  0.216840434497E-18
 -0.162630325873E-18
 -0.108420217249E-18
 -0.162630325873E-18
  0.000000000000E+00
  0.542101086243E-19
  0.000000000000E+00
 -0.108420217249E-18
 -0.108420217249E-18
  0.542101086243E-19
 -0.108420217249E-18
 -0.216840434497E-18
  0.379470760370E-18
  0.000000000000E+00
  0.487890977618E-18
 -0.162630325873E-18
 -0.216840434497E-18
  0.000000000000E+00
  0.542101086243E-19
  0.542101086243E-19
  0.162630325873E-18
  0.162630325873E-18
  0.542101086243E-19
 -0.108420217249E-18
  0.542101086243E-19
  0.271050543121E-18
 -0.325260651746E-18
 -0.542101086243E-19
  0.108420217249E-18
  0.000000000000E+00
 -0.108420217249E-18
 -0.271050543121E-18
 -0.271050543121E-18
  0.325260651746E-18
  0.542101086243E-19
  0.108420217249E-18
 -0.216840434497E-18
  0.542101086243E-19
 -0.108420217249E-18
  0.108420217249E-18
  0.542101086243E-19
  0.000000000000E+00
 -0.542101086243E-19
  0.542101086243E-19
 -0.108420217249E-18
  0.542101086243E-19
  0.271050543121E-18
 -0.271050543121E-18
  0.216840434497E-18
 -0.325260651746E-18
  0.542101086243E-19
  0.271050543121E-18
  0.000000000000E+00
  0.271050543121E-18
  0.379470760370E-18
  0.162630325873E-18
  0.542101086243E-19
  0.162630325873E-18
 -0.108420217249E-18
  0.216840434497E-18
 -0.189735380185E-18
 -0.135525271561E-18
  0.135525271561E-18
  0.135525271561E-18
  0.189735380185E-18
  0.271050543121E-19
 -0.135525271561E-18
  0.271050543121E-19
  0.135525271561E-18
  0.542101086243E-19
  0.813151629364E-19
 -0.135525271561E-18
  0.162630325873E-18
  0.406575814682E-18
 -0.271050543121E-18
 -0.325260651746E-18
 -0.813151629364E-19
  0.813151629364E-19
  0.542101086243E-19
  0.813151629364E-19
 -0.216840434497E-18
 -0.271050543121E-18
  0.189735380185E-18
 -0.271050543121E-19
 -0.813151629364E-19
 -0.542101086243E-19
 -0.271050543121E-19
 -0.298155597434E-18
  0.298155597434E-18
  0.162630325873E-18
 -0.813151629364E-19
  0.542101086243E-19
  0.271050543121E-19
 -0.108420217249E-18
 -0.271050543121E-19
 -0.162630325873E-18
  0.189735380185E-18
 -0.135525271561E-18
  0.271050543121E-19
 -0.108420217249E-18
  0.189735380185E-18
 -0.813151629364E-19
  0.108420217249E-18
  0.271050543121E-18
 -0.271050543121E-19
  0.271050543121E-18
 -0.135525271561E-18
 -0.189735380185E-18
  0.271050543121E-19
  0.000000000000E+00
  0.813151629364E-19
 -0.542101086243E-19
 -0.108420217249E-18
  0.542101086243E-19
 -0.271050543121E-19
  0.271050543121E-19
 -0.271050543121E-19
  0.108420217249E-18
 -0.162630325873E-18
 -0.108420217249E-18
 -0.108420217249E-18
  0.271050543121E-18
 -0.162630325873E-18
  0.243945488809E-18
  0.162630325873E-18
 -0.108420217249E-18
 -0.243945488809E-18
 -0.813151629364E-19
  0.542101086243E-19
  0.271050543121E-19
  0.108420217249E-18
 -0.271050543121E-19
  0.243945488809E-18
 -0.216840434497E-18
 -0.542101086243E-19
  0.542101086243E-19
 -0.189735380185E-18
  0.813151629364E-19
  0.000000000000E+00
 -0.216840434497E-18
  0.813151629364E-19
  0.000000000000E+00
 -0.298155597434E-18
  0.000000000000E+00
  0.542101086243E-19
 -0.108420217249E-18
  0.162630325873E-18
 -0.542101086243E-19
 -0.108420217249E-18
 -0.108420217249E-18
  0.271050543121E-19
  0.542101086243E-19
  0.135525271561E-18
 -0.813151629364E-19
  0.813151629364E-19
  0.813151629364E-19
 -0.189735380185E-18
  0.000000000000E+00
 -0.542101086243E-19
  0.162630325873E-18
  0.406575814682E-19
  0.813151629364E-19
 -0.108420217249E-18
 -0.813151629364E-19
  0.000000000000E+00
 -0.948676900925E-19
  0.677626357803E-19
  0.135525271561E-19
  0.406575814682E-19
 -0.135525271561E-19
 -0.677626357803E-19
 -0.271050543121E-19
  0.677626357803E-19
 -0.121972744405E-18
  0.271050543121E-19
  0.542101086243E-19
  0.108420217249E-18
 -0.162630325873E-18
 -0.677626357803E-19
  0.000000000000E+00
 -0.677626357803E-19
  0.000000000000E+00
  0.135525271561E-19
 -0.121972744405E-18
  0.406575814682E-19
 -0.813151629364E-19
 -0.406575814682E-19
  0.271050543121E-19
  0.677626357803E-19
 -0.121972744405E-18
 -0.406575814682E-19
  0.406575814682E-19
  0.121972744405E-18
  0.000000000000E+00
  0.271050543121E-19
  0.000000000000E+00
  0.000000000000E+00
  0.135525271561E-19
  0.271050543121E-19
 -0.135525271561E-19
 -0.108420217249E-18
 -0.271050543121E-19
 -0.406575814682E-19
  0.406575814682E-19
 -0.813151629364E-19
  0.149077798717E-18
 -0.542101086243E-19
 -0.121972744405E-18
 -0.271050543121E-19
 -0.406575814682E-19
 -0.220228566286E-19
  0.508219768353E-20
  0.287991202066E-19
  0.169406589451E-20
 -0.677626357803E-20
 -0.677626357803E-20
  0.118584612616E-19
 -0.338813178902E-20
  0.000000000000E+00
  0.101643953671E-19
 -0.152465930506E-19
 -0.508219768353E-20
  0.118584612616E-19
  0.508219768353E-20
 -0.169406589451E-20
  0.152465930506E-19
  0.338813178902E-20
  0.169406589451E-20
  0.101643953671E-19
  0.338813178902E-20
  0.508219768353E-20
  0.000000000000E+00
  0.101643953671E-19
 -0.169406589451E-20
 -0.169406589451E-20
 -0.169406589451E-20
  0.847032947254E-20
 -0.338813178902E-20
 -0.118584612616E-19
  0.169406589451E-19
  0.169406589451E-19
 -0.677626357803E-20
 -0.847032947254E-20
 -0.508219768353E-20
  0.677626357803E-20
 -0.677626357803E-20
 -0.508219768353E-20
  0.118584612616E-19
 -0.169406589451E-19
 -0.338813178902E-20
 -0.169406589451E-20
 -0.118584612616E-19
  0.152465930506E-19
  0.169406589451E-20
  0.847032947254E-20
 -0.152465930506E-19
 -0.508219768353E-20
 -0.508219768353E-20
 -0.186347248396E-19
 -0.135525271561E-19
  0.271050543121E-19
  0.542101086243E-19
 -0.379470760370E-18
  0.135525271561E-19
  0.135525271561E-19
 -0.813151629364E-19
  0.677626357803E-19
  0.406575814682E-19
  0.000000000000E+00
 -0.406575814682E-19
 -0.135525271561E-19
  0.813151629364E-19
 -0.216840434497E-18
 -0.149077798717E-18
 -0.813151629364E-19
  0.542101086243E-19
 -0.948676900925E-19
 -0.677626357803E-19
 -0.271050543121E-19
  0.271050543121E-19
  0.677626357803E-19
 -0.135525271561E-19
  0.000000000000E+00
  0.271050543121E-19
  0.542101086243E-19
  0.176329666829E-04
 -0.119664909082E-04
 -0.102090706952E-04
 -0.216840434497E-18
 -0.329594710080E-06
  0.108420217249E-18
  0.135525271561E-18
 -0.121972744405E-18
  0.542101086243E-19
  0.135525271561E-19
 -0.135525271561E-19
 -0.813151629364E-19
 -0.281964251688E-05
 -0.149077798717E-18
  0.393023287526E-18
 -0.406575814682E-19
 -0.230392961653E-18
 -0.948676900925E-19
  0.519014895848E-05
  0.406575814682E-19
 -0.293473240486E-05
  0.542101086243E-19
  0.243945488809E-18
  0.542101086243E-19
  0.176182853029E-18
  0.135525271561E-19
  0.135525271561E-19
  0.169048914440E-04
  0.149077798717E-18
  0.150499133392E-05
  0.877071670357E-05
  0.677626357803E-19
  0.777842094329E-06
  0.737304502553E-05
 -0.243945488809E-18
 -0.189735380185E-18
  0.824817051977E-05
 -0.135525271561E-18
 -0.709772043487E-05
  0.564182494274E-05
 -0.230392961653E-18
 -0.572752022806E-05
  0.677626357803E-19
 -0.677626357803E-19
 -0.813151629364E-19
 -0.135525271561E-19
  0.121972744405E-18
 -0.875140286284E-05
 -0.181397322024E-04
  0.210843832036E-04
  0.216840434497E-18
 -0.155805895993E-04
  0.243945488809E-18
 -0.121331109939E-04
  0.189735380185E-18
  0.589071563228E-07
 -0.101423037126E-04
 -0.451351368205E-06
  0.121972744405E-18
 -0.356815302312E-05
 -0.107673505242E-04
  0.108420217249E-18
  0.311708124590E-18
 -0.429776498320E-05
  0.361896094807E-05
 -0.259569565342E-06
 -0.767612199806E-05
  0.341733402512E-05
  0.149077798717E-18
 -0.542101086243E-19
  0.406575814682E-19
 -0.271050543121E-19
  0.149690371004E-04
 -0.605429569448E-05
 -0.135525271561E-19
  0.108420217249E-18
 -0.271050543121E-19
 -0.813151629364E-19
  0.813151629364E-19
 -0.271050543121E-19
  0.460785923306E-18
 -0.542101086243E-19
 -0.514996031931E-18
  0.813151629364E-19
 -0.108420217249E-18
 -0.162630325873E-18
  0.108420217249E-18
  0.271050543121E-19
 -0.216840434497E-18
  0.162630325873E-18
 -0.298155597434E-18
  0.325260651746E-18
  0.162630325873E-18
 -0.813151629364E-19
 -0.271050543121E-19
  0.000000000000E+00
 -0.542101086243E-19
 -0.775228826937E-05
  0.813151629364E-19
  0.000000000000E+00
 -0.287180340654E-05
  0.263849236981E-05
  0.170586538368E-05
  0.162630325873E-18
  0.766653723507E-05
  0.162630325873E-18
 -0.813151629364E-19
  0.243945488809E-18
  0.162630325873E-18
  0.271050543121E-19
 -0.311224185016E-05
  0.542101086243E-19
  0.379470760370E-18
  0.677626357803E-18
  0.000000000000E+00
  0.216840434497E-18
 -0.435490289227E-05
  0.216840434497E-18
 -0.907585145931E-05
  0.258374066656E-05
  0.645078073728E-05
  0.193358670925E-05
  0.758941520740E-18
  0.325260651746E-18
  0.189735380185E-18
 -0.271050543121E-18
 -0.108420217249E-18
  0.162630325873E-18
 -0.216840434497E-18
  0.162630325873E-18
 -0.271050543121E-18
 -0.271050543121E-18
  0.542101086243E-18
  0.433680868994E-18
  0.650521303491E-18
  0.162630325873E-18
  0.704731412116E-18
  0.975781955237E-18
 -0.108420217249E-18
  0.108420217249E-18
 -0.216840434497E-18
  0.000000000000E+00
  0.975781955237E-18
  0.325260651746E-18
 -0.813151629364E-18
 -0.758941520740E-18
 -0.271050543121E-18
 -0.596311194867E-18
  0.758941520740E-18
  0.542101086243E-18
 -0.542101086243E-19
  0.000000000000E+00
  0.108420217249E-18
 -0.650521303491E-18
 -0.162630325873E-18
 -0.650521303491E-18
 -0.487890977618E-18
  0.108420217249E-18
  0.113841228111E-17
  0.596311194867E-18
 -0.108420217249E-18
  0.379470760370E-18
 -0.975781955237E-18
 -0.108420217249E-18
 -0.119262238973E-17
 -0.487890977618E-18
 -0.487890977618E-18
  0.433680868994E-18
  0.704731412116E-18
  0.542101086243E-18
  0.271050543121E-18
  0.433680868994E-18
  0.108420217249E-18
  0.379470760370E-18
 -0.704731412116E-18
 -0.542101086243E-19
  0.271050543121E-18
 -0.325260651746E-18
 -0.108420217249E-18
  0.758941520740E-18
 -0.108420217249E-18
 -0.271050543121E-18
 -0.758941520740E-18
 -0.975781955237E-18
  0.379470760370E-18
 -0.162630325873E-18
 -0.487890977618E-18
  0.487890977618E-18
 -0.487890977618E-18
  0.921571846613E-18
 -0.325260651746E-18
 -0.596311194867E-18
 -0.108420217249E-18
  0.542101086243E-18
  0.758941520740E-18
  0.758941520740E-18
 -0.758941520740E-18
  0.542101086243E-18
 -0.542101086243E-18
 -0.487890977618E-18
 -0.596311194867E-18
 -0.542101086243E-19
 -0.271050543121E-18
  0.000000000000E+00
 -0.433680868994E-18
 -0.650521303491E-18
 -0.704731412116E-18
  0.000000000000E+00
  0.162630325873E-18
  0.216840434497E-18
  0.162630325873E-18
  0.867361737988E-18
 -0.108420217249E-18
  0.108420217249E-18
 -0.487890977618E-18
 -0.162630325873E-18
 -0.216840434497E-18
  0.433680868994E-18
 -0.325260651746E-18
  0.325260651746E-18
 -0.487890977618E-18
 -0.216840434497E-18
 -0.542101086243E-18
  0.542101086243E-19
  0.379470760370E-18
 -0.379470760370E-18
  0.542101086243E-19
 -0.162630325873E-18
  0.130104260698E-17
 -0.222261445360E-17
 -0.216840434497E-18
  0.108420217249E-18
 -0.379470760370E-18
  0.487890977618E-18
 -0.758941520740E-18
  0.758941520740E-18
 -0.108420217249E-17
 -0.108420217249E-17
 -0.108420217249E-18
  0.108420217249E-17
  0.130104260698E-17
  0.280122393609E-04
 -0.867361737988E-18
 -0.379470760370E-18
  0.379470760370E-18
 -0.216840434497E-18
  0.650521303491E-18
  0.379470760370E-18
  0.921571846613E-18
 -0.162630325873E-18
  0.000000000000E+00
  0.271050543121E-18
 -0.271050543121E-18
  0.325260651746E-18
  0.325260651746E-18
 -0.921571846613E-18
  0.542101086243E-19
  0.119262238973E-17
 -0.433680868994E-18
  0.542101086243E-19
  0.542101086243E-18
 -0.379470760370E-18
 -0.113841228111E-17
 -0.758941520740E-18
  0.325260651746E-18
 -0.271050543121E-18
  0.487890977618E-18
 -0.813151629364E-18
  0.542101086243E-19
  0.325260651746E-18
  0.379470760370E-18
  0.704731412116E-18
  0.135525271561E-17
  0.433680868994E-18
  0.433680868994E-18
 -0.195156391047E-17
 -0.140946282423E-17
 -0.867361737988E-18
 -0.542101086243E-18
  0.000000000000E+00
 -0.151788304148E-17
  0.000000000000E+00
  0.325260651746E-18
  0.325260651746E-18
  0.325260651746E-18
  0.542101086243E-18
 -0.758941520740E-18
  0.108420217249E-17
  0.325260651746E-18
 -0.108420217249E-17
  0.216840434497E-18
  0.108420217249E-17
 -0.195156391047E-17
  0.433680868994E-18
 -0.130104260698E-17
 -0.162630325873E-17
  0.867361737988E-18
 -0.281892564846E-17
 -0.867361737988E-18
 -0.975781955237E-18
 -0.216840434497E-18
 -0.162630325873E-17
 -0.108420217249E-17
  0.758941520740E-18
 -0.130104260698E-17
  0.108420217249E-18
  0.108420217249E-17
  0.650521303491E-18
 -0.108420217249E-18
 -0.119262238973E-17
 -0.108420217249E-18
 -0.325260651746E-18
  0.184314369323E-17
 -0.542101086243E-18
 -0.975781955237E-18
  0.205998412772E-17
 -0.314418630021E-17
  0.000000000000E+00
  0.542101086243E-18
  0.867361737988E-18
 -0.195156391047E-17
 -0.108420217249E-18
 -0.108420217249E-18
  0.119262238973E-17
  0.108420217249E-18
  0.975781955237E-18
  0.216840434497E-18
 -0.542101086243E-18
  0.216840434497E-17
  0.130104260698E-17
  0.108420217249E-18
  0.650521303491E-18
  0.173472347598E-17
 -0.216840434497E-18
 -0.140946282423E-17
 -0.119262238973E-17
 -0.975781955237E-18
 -0.205998412772E-17
  0.238524477947E-17
 -0.108420217249E-17
  0.000000000000E+00
 -0.975781955237E-18
  0.444522890719E-17
  0.216840434497E-17
  0.108420217249E-17
  0.346944695195E-17
  0.205998412772E-17
 -0.650521303491E-18
  0.542101086243E-18
 -0.433680868994E-18
  0.000000000000E+00
  0.140946282423E-17
  0.477048955894E-17
  0.195156391047E-17
 -0.173472347598E-17
 -0.650521303491E-18
 -0.216840434497E-18
 -0.173472347598E-17
 -0.130104260698E-17
  0.390312782095E-17
 -0.281892564846E-17
  0.867361737988E-18
  0.758941520740E-18
 -0.867361737988E-18
 -0.325260651746E-18
 -0.195156391047E-17
  0.650521303491E-17
  0.314418630021E-17
  0.325260651746E-18
  0.000000000000E+00
 -0.542101086243E-18
 -0.292734586571E-17
 -0.650521303491E-18
  0.867361737988E-18
 -0.867361737988E-18
  0.325260651746E-18
  0.227682456222E-17
 -0.574627151417E-17
  0.596311194867E-17
 -0.520417042793E-17
 -0.195156391047E-17
 -0.791467585914E-17
 -0.108420217249E-17
 -0.249366499672E-17
  0.455364912444E-17
  0.195156391047E-17
 -0.260208521397E-17
 -0.195156391047E-17
 -0.108420217249E-18
 -0.487890977618E-17
  0.216840434497E-18
 -0.975781955237E-18
 -0.650521303491E-18
  0.401154803820E-17
  0.422838847269E-17
  0.704731412116E-17
  0.205998412772E-17
 -0.140946282423E-17
 -0.975781955237E-18
  0.271050543121E-17
  0.542101086243E-17
  0.000000000000E+00
  0.108420217249E-18
 -0.650521303491E-18
 -0.975781955237E-18
  0.151788304148E-17
 -0.542101086243E-17
  0.238524477947E-17
 -0.162630325873E-17
  0.108420217249E-17
 -0.162630325873E-17
  0.466206934169E-17
  0.140946282423E-17
 -0.845677694539E-17
 -0.542101086243E-18
  0.216840434497E-17
 -0.411996825544E-17
 -0.124683249836E-16
  0.867361737988E-18
 -0.758941520740E-18
  0.867361737988E-18
  0.325260651746E-17
 -0.758941520740E-18
 -0.325260651746E-18
  0.108420217249E-18
 -0.802309607639E-17
 -0.368628738645E-17
 -0.650521303491E-18
 -0.151788304148E-17
 -0.195156391047E-17
 -0.303576608296E-17
  0.661363325216E-17
 -0.433680868994E-18
 -0.162630325873E-17
 -0.693889390391E-17
  0.975781955237E-18
  0.845677694539E-17
  0.173472347598E-17
  0.737257477290E-17
  0.216840434497E-17
  0.368628738645E-17
 -0.123599047663E-16
  0.216840434497E-18
  0.574627151417E-17
  0.227682456222E-17
 -0.433680868994E-18
 -0.401154803820E-17
  0.216840434497E-18
  0.921571846613E-17
  0.151788304148E-17
 -0.292734586571E-17
  0.867361737988E-17
  0.520417042793E-17
 -0.975781955237E-17
 -0.542101086243E-17
 -0.108420217249E-17
 -0.401154803820E-17
  0.102999206386E-16
  0.802309607639E-17
 -0.433680868994E-18
 -0.195156391047E-17
  0.227682456222E-17
  0.205998412772E-17
  0.639679281766E-17
 -0.661363325216E-17
 -0.889045781438E-17
  0.260208521397E-17
  0.162630325873E-17
  0.823993651089E-17
  0.487890977618E-17
  0.585469173142E-17
 -0.108420217249E-17
 -0.509575021068E-17
  0.368628738645E-17
  0.650521303491E-18
  0.758941520740E-18
  0.975781955237E-17
  0.379470760370E-17
  0.791467585914E-17
 -0.173472347598E-17
  0.422838847269E-17
  0.542101086243E-17
 -0.596311194867E-17
  0.650521303491E-18
 -0.986623976962E-17
 -0.201661604082E-16
 -0.163714528045E-16
  0.130104260698E-17
 -0.693889390391E-17
  0.108420217249E-17
  0.108420217249E-18
  0.346944695195E-17
  0.325260651746E-17
 -0.119262238973E-17
 -0.607153216592E-17
  0.878203759713E-17
  0.125767452008E-16
 -0.205998412772E-17
  0.758941520740E-18
  0.650521303491E-17
  0.509575021068E-17
  0.105167610731E-16
  0.238524477947E-17
 -0.758941520740E-17
  0.000000000000E+00
  0.693889390391E-17
 -0.130104260698E-17
 -0.368628738645E-17
  0.813151629364E-17
 -0.542101086243E-18
  0.758941520740E-17
  0.411996825544E-17
 -0.867361737988E-18
  0.100830802041E-16
  0.769783542465E-17
 -0.520417042793E-17
 -0.672205346941E-17
  0.106251812904E-16
  0.136609473733E-16
  0.100830802041E-16
 -0.748099499015E-17
 -0.769783542465E-17