# vtk DataFile Version 3.0
MachLine results file. Generated by MachLine, USU AeroLab (c) 2022.
ASCII
DATASET POLYDATA
POINTS                4902 float
  0.000000000000E+00  0.000000000000E+00  0.000000000000E+00
  0.101010101000E+00  0.000000000000E+00  0.894358746100E-02
  0.101010101000E+00  0.112092873600E-02  0.887306460200E-02
  0.101010101000E+00  0.222417975600E-02  0.866260821400E-02
  0.101010101000E+00  0.329235413300E-02  0.831553732000E-02
  0.101010101000E+00  0.430860611900E-02  0.783732543500E-02
  0.101010101000E+00  0.525690881200E-02  0.723551424600E-02
  0.101010101000E+00  0.612230691300E-02  0.651959467500E-02
  0.101010101000E+00  0.689115257600E-02  0.570085720200E-02
  0.101010101000E+00  0.755132064700E-02  0.479221380500E-02
  0.101010101000E+00  0.809239988000E-02  0.380799433300E-02
  0.101010101000E+00  0.850585713300E-02  0.276372051600E-02
  0.101010101000E+00  0.878517193800E-02  0.167586117500E-02
  0.101010101000E+00  0.892593933400E-02  0.561572503100E-03
  0.101010101000E+00  0.892593933400E-02 -0.561572503100E-03
  0.101010101000E+00  0.878517193800E-02 -0.167586117500E-02
  0.101010101000E+00  0.850585713300E-02 -0.276372051600E-02
  0.101010101000E+00  0.809239988000E-02 -0.380799433300E-02
  0.101010101000E+00  0.755132064700E-02 -0.479221380500E-02
  0.101010101000E+00  0.689115257600E-02 -0.570085720200E-02
  0.101010101000E+00  0.612230691300E-02 -0.651959467500E-02
  0.101010101000E+00  0.525690881200E-02 -0.723551424600E-02
  0.101010101000E+00  0.430860611900E-02 -0.783732543500E-02
  0.101010101000E+00  0.329235413300E-02 -0.831553732000E-02
  0.101010101000E+00  0.222417975600E-02 -0.866260821400E-02
  0.101010101000E+00  0.112092873600E-02 -0.887306460200E-02
  0.101010101000E+00 -0.287647711300E-17 -0.894358746100E-02
  0.101010101000E+00 -0.112092873600E-02 -0.887306460200E-02
  0.101010101000E+00 -0.222417975600E-02 -0.866260821400E-02
  0.101010101000E+00 -0.329235413300E-02 -0.831553732000E-02
  0.101010101000E+00 -0.430860611900E-02 -0.783732543500E-02
  0.101010101000E+00 -0.525690881200E-02 -0.723551424600E-02
  0.101010101000E+00 -0.612230691300E-02 -0.651959467500E-02
  0.101010101000E+00 -0.689115257600E-02 -0.570085720200E-02
  0.101010101000E+00 -0.755132064700E-02 -0.479221380500E-02
  0.101010101000E+00 -0.809239988000E-02 -0.380799433300E-02
  0.101010101000E+00 -0.850585713300E-02 -0.276372051600E-02
  0.101010101000E+00 -0.878517193800E-02 -0.167586117500E-02
  0.101010101000E+00 -0.892593933400E-02 -0.561572503100E-03
  0.101010101000E+00 -0.892593933400E-02  0.561572503100E-03
  0.101010101000E+00 -0.878517193800E-02  0.167586117500E-02
  0.101010101000E+00 -0.850585713300E-02  0.276372051600E-02
  0.101010101000E+00 -0.809239988000E-02  0.380799433300E-02
  0.101010101000E+00 -0.755132064700E-02  0.479221380500E-02
  0.101010101000E+00 -0.689115257600E-02  0.570085720200E-02
  0.101010101000E+00 -0.612230691300E-02  0.651959467500E-02
  0.101010101000E+00 -0.525690881200E-02  0.723551424600E-02
  0.101010101000E+00 -0.430860611900E-02  0.783732543500E-02
  0.101010101000E+00 -0.329235413300E-02  0.831553732000E-02
  0.101010101000E+00 -0.222417975600E-02  0.866260821400E-02
  0.101010101000E+00 -0.112092873600E-02  0.887306460200E-02
  0.202020202000E+00  0.000000000000E+00  0.149260021200E-01
  0.202020202000E+00  0.187072411000E-02  0.148083061400E-01
  0.202020202000E+00  0.371194578400E-02  0.144570743200E-01
  0.202020202000E+00  0.549462785500E-02  0.138778458000E-01
  0.202020202000E+00  0.719065636200E-02  0.130797553700E-01
  0.202020202000E+00  0.877328392300E-02  0.120753893800E-01
  0.202020202000E+00  0.102175515600E-01  0.108805872800E-01
  0.202020202000E+00  0.115006823000E-01  0.951419182400E-02
  0.202020202000E+00  0.126024404100E-01  0.799775187900E-02
  0.202020202000E+00  0.135054505100E-01  0.635518261000E-02
  0.202020202000E+00  0.141954715800E-01  0.461238831400E-02
  0.202020202000E+00  0.146616215900E-01  0.279685389900E-02
  0.202020202000E+00  0.148965490700E-01  0.937211427800E-03
  0.202020202000E+00  0.148965490700E-01 -0.937211427800E-03
  0.202020202000E+00  0.146616215900E-01 -0.279685389900E-02
  0.202020202000E+00  0.141954715800E-01 -0.461238831400E-02
  0.202020202000E+00  0.135054505100E-01 -0.635518261000E-02
  0.202020202000E+00  0.126024404100E-01 -0.799775187900E-02
  0.202020202000E+00  0.115006823000E-01 -0.951419182400E-02
  0.202020202000E+00  0.102175515600E-01 -0.108805872800E-01
  0.202020202000E+00  0.877328392300E-02 -0.120753893800E-01
  0.202020202000E+00  0.719065636200E-02 -0.130797553700E-01
  0.202020202000E+00  0.549462785500E-02 -0.138778458000E-01
  0.202020202000E+00  0.371194578400E-02 -0.144570743200E-01
  0.202020202000E+00  0.187072411000E-02 -0.148083061400E-01
  0.202020202000E+00 -0.480056841700E-17 -0.149260021200E-01
  0.202020202000E+00 -0.187072411000E-02 -0.148083061400E-01
  0.202020202000E+00 -0.371194578400E-02 -0.144570743200E-01
  0.202020202000E+00 -0.549462785500E-02 -0.138778458000E-01
  0.202020202000E+00 -0.719065636200E-02 -0.130797553700E-01
  0.202020202000E+00 -0.877328392300E-02 -0.120753893800E-01
  0.202020202000E+00 -0.102175515600E-01 -0.108805872800E-01
  0.202020202000E+00 -0.115006823000E-01 -0.951419182400E-02
  0.202020202000E+00 -0.126024404100E-01 -0.799775187900E-02
  0.202020202000E+00 -0.135054505100E-01 -0.635518261000E-02
  0.202020202000E+00 -0.141954715800E-01 -0.461238831400E-02
  0.202020202000E+00 -0.146616215900E-01 -0.279685389900E-02
  0.202020202000E+00 -0.148965490700E-01 -0.937211427800E-03
  0.202020202000E+00 -0.148965490700E-01  0.937211427800E-03
  0.202020202000E+00 -0.146616215900E-01  0.279685389900E-02
  0.202020202000E+00 -0.141954715800E-01  0.461238831400E-02
  0.202020202000E+00 -0.135054505100E-01  0.635518261000E-02
  0.202020202000E+00 -0.126024404100E-01  0.799775187900E-02
  0.202020202000E+00 -0.115006823000E-01  0.951419182400E-02
  0.202020202000E+00 -0.102175515600E-01  0.108805872800E-01
  0.202020202000E+00 -0.877328392300E-02  0.120753893800E-01
  0.202020202000E+00 -0.719065636200E-02  0.130797553700E-01
  0.202020202000E+00 -0.549462785500E-02  0.138778458000E-01
  0.202020202000E+00 -0.371194578400E-02  0.144570743200E-01
  0.202020202000E+00 -0.187072411000E-02  0.148083061400E-01
  0.303030303000E+00  0.000000000000E+00  0.200741223800E-01
  0.303030303000E+00  0.251595466900E-02  0.199158319300E-01
  0.303030303000E+00  0.499223122900E-02  0.194434569100E-01
  0.303030303000E+00  0.738977732100E-02  0.186644469600E-01
  0.303030303000E+00  0.967078221000E-02  0.175910875400E-01
  0.303030303000E+00  0.117992730900E-01  0.162403061500E-01
  0.303030303000E+00  0.137416823800E-01  0.146334054400E-01
  0.303030303000E+00  0.154673771300E-01  0.127957271800E-01
  0.303030303000E+00  0.169491421000E-01  0.107562526600E-01
  0.303030303000E+00  0.181636089800E-01  0.854714560500E-02
  0.303030303000E+00  0.190916249000E-01  0.620324496200E-02
  0.303030303000E+00  0.197185544800E-01  0.376151544000E-02
  0.303030303000E+00  0.200345106800E-01  0.126046457300E-02
  0.303030303000E+00  0.200345106800E-01 -0.126046457300E-02
  0.303030303000E+00  0.197185544800E-01 -0.376151544000E-02
  0.303030303000E+00  0.190916249000E-01 -0.620324496200E-02
  0.303030303000E+00  0.181636089800E-01 -0.854714560500E-02
  0.303030303000E+00  0.169491421000E-01 -0.107562526600E-01
  0.303030303000E+00  0.154673771300E-01 -0.127957271800E-01
  0.303030303000E+00  0.137416823800E-01 -0.146334054400E-01
  0.303030303000E+00  0.117992730900E-01 -0.162403061500E-01
  0.303030303000E+00  0.967078221000E-02 -0.175910875400E-01
  0.303030303000E+00  0.738977732100E-02 -0.186644469600E-01
  0.303030303000E+00  0.499223122900E-02 -0.194434569100E-01
  0.303030303000E+00  0.251595466900E-02 -0.199158319300E-01
  0.303030303000E+00 -0.645633017400E-17 -0.200741223800E-01
  0.303030303000E+00 -0.251595466900E-02 -0.199158319300E-01
  0.303030303000E+00 -0.499223122900E-02 -0.194434569100E-01
  0.303030303000E+00 -0.738977732100E-02 -0.186644469600E-01
  0.303030303000E+00 -0.967078221000E-02 -0.175910875400E-01
  0.303030303000E+00 -0.117992730900E-01 -0.162403061500E-01
  0.303030303000E+00 -0.137416823800E-01 -0.146334054400E-01
  0.303030303000E+00 -0.154673771300E-01 -0.127957271800E-01
  0.303030303000E+00 -0.169491421000E-01 -0.107562526600E-01
  0.303030303000E+00 -0.181636089800E-01 -0.854714560500E-02
  0.303030303000E+00 -0.190916249000E-01 -0.620324496200E-02
  0.303030303000E+00 -0.197185544800E-01 -0.376151544000E-02
  0.303030303000E+00 -0.200345106800E-01 -0.126046457300E-02
  0.303030303000E+00 -0.200345106800E-01  0.126046457300E-02
  0.303030303000E+00 -0.197185544800E-01  0.376151544000E-02
  0.303030303000E+00 -0.190916249000E-01  0.620324496200E-02
  0.303030303000E+00 -0.181636089800E-01  0.854714560500E-02
  0.303030303000E+00 -0.169491421000E-01  0.107562526600E-01
  0.303030303000E+00 -0.154673771300E-01  0.127957271800E-01
  0.303030303000E+00 -0.137416823800E-01  0.146334054400E-01
  0.303030303000E+00 -0.117992730900E-01  0.162403061500E-01
  0.303030303000E+00 -0.967078221000E-02  0.175910875400E-01
  0.303030303000E+00 -0.738977732100E-02  0.186644469600E-01
  0.303030303000E+00 -0.499223122900E-02  0.194434569100E-01
  0.303030303000E+00 -0.251595466900E-02  0.199158319300E-01
  0.404040404000E+00  0.000000000000E+00  0.247132520800E-01
  0.404040404000E+00  0.309739179500E-02  0.245183807000E-01
  0.404040404000E+00  0.614593587100E-02  0.239368398200E-01
  0.404040404000E+00  0.909755486700E-02  0.229778006700E-01
  0.404040404000E+00  0.119056999900E-01  0.216563878800E-01
  0.404040404000E+00  0.145260851100E-01  0.199934409200E-01
  0.404040404000E+00  0.169173851900E-01  0.180151854500E-01
  0.404040404000E+00  0.190418880000E-01  0.157528197400E-01
  0.404040404000E+00  0.208660888600E-01  0.132420226500E-01
  0.404040404000E+00  0.223612190400E-01  0.105223909600E-01
[...]
CELL_DATA                9800
SCALARS C_p_ise float 1
LOOKUP_TABLE default
  0.350001693006E-01
  0.350001691304E-01
  0.350001689534E-01
  0.350001692578E-01
  0.350001696607E-01
  0.350001694241E-01
  0.350001691552E-01
  0.350001691084E-01
  0.350001693998E-01
  0.350001696357E-01
  0.350001694614E-01
  0.350001693535E-01
  0.350001693340E-01
  0.350001693464E-01
  0.350001694980E-01
  0.350001695435E-01
  0.350001693605E-01
  0.350001692881E-01
  0.350001693616E-01
  0.350001694139E-01
  0.350001694606E-01
  0.350001693466E-01
  0.350001691169E-01
  0.350001690925E-01
  0.350001691212E-01
  0.350001691029E-01
  0.350001690513E-01
  0.350001689539E-01
  0.350001692589E-01
  0.350001696618E-01
  0.350001694251E-01
  0.350001691561E-01
  0.350001691092E-01
  0.350001694005E-01
  0.350001696362E-01
  0.350001694617E-01
  0.350001693537E-01
  0.350001693341E-01
  0.350001693463E-01
  0.350001694977E-01
  0.350001695430E-01
  0.350001693599E-01
  0.350001692873E-01
  0.350001693607E-01
  0.350001694129E-01
  0.350001694595E-01
  0.350001693455E-01
  0.350001691161E-01
  0.350001691320E-01
  0.350001692796E-01
  0.130890508342E-01
  0.130890505816E-01
  0.130890505907E-01
  0.130890510695E-01
  0.130890510399E-01
  0.130890513816E-01
  0.130890513535E-01
  0.130890504493E-01
  0.130890505900E-01
  0.130890501051E-01
  0.130890502198E-01
  0.130890512943E-01
  0.130890509455E-01
  0.130890502518E-01
  0.130890502744E-01
  0.130890504845E-01
  0.130890505052E-01
  0.130890498288E-01
  0.130890501248E-01
  0.130890506907E-01
  0.130890505838E-01
  0.130890506107E-01
  0.130890506490E-01
  0.130890510833E-01
  0.130890510825E-01
  0.130890511306E-01
  0.130890512973E-01
  0.130890519300E-01
  0.130890517402E-01
  0.130890505878E-01
  0.130890505966E-01
  0.130890505136E-01
  0.130890505351E-01
  0.130890510981E-01
  0.130890511350E-01
  0.130890514716E-01
  0.130890513859E-01
  0.130890508537E-01
  0.130890508502E-01
  0.130890507017E-01
  0.130890509458E-01
  0.130890517965E-01
  0.130890514666E-01
  0.130890504450E-01
  0.130890504451E-01
  0.130890510435E-01
  0.130890509716E-01
  0.130890507486E-01
  0.130890507951E-01
  0.130890509064E-01
  0.130890510413E-01
  0.130890516269E-01
  0.130890514787E-01
  0.130890510211E-01
  0.130890510419E-01
  0.130890513773E-01
  0.130890513495E-01
  0.130890504449E-01
  0.130890505856E-01
  0.130890501008E-01
  0.130890502154E-01
  0.130890512902E-01
  0.130890509414E-01
  0.130890502480E-01
  0.130890502706E-01
  0.130890504811E-01
  0.130890505018E-01
  0.130890498258E-01
  0.130890501218E-01
  0.130890506881E-01
  0.130890505812E-01
  0.130890506086E-01
  0.130890506470E-01
  0.130890510818E-01
  0.130890510810E-01
  0.130890511296E-01
  0.130890512964E-01
  0.130890519295E-01
  0.130890517397E-01
  0.130890505878E-01
  0.130890505967E-01
  0.130890505142E-01
  0.130890505357E-01
  0.130890510993E-01
  0.130890511361E-01
  0.130890514733E-01
  0.130890513876E-01
  0.130890508558E-01
  0.130890508524E-01
  0.130890507043E-01
  0.130890509485E-01
  0.130890517996E-01
  0.130890514698E-01
  0.130890504486E-01
  0.130890504492E-01
  0.130890510487E-01
  0.130890510434E-01
  0.130890509811E-01
  0.130890510384E-01
  0.130890508839E-01
  0.115313363696E-01
  0.115313362339E-01
  0.115313360683E-01
  0.115313352590E-01
  0.115313354290E-01
  0.115313360566E-01
  0.115313361569E-01
  0.115313365036E-01
  0.115313364090E-01
  0.115313362664E-01
  0.115313361691E-01
  0.115313355393E-01
  0.115313357386E-01
  0.115313375631E-01
  0.115313371752E-01
  0.115313354264E-01
  0.115313357319E-01
  0.115313373875E-01
  0.115313373825E-01
  0.115313366127E-01
  0.115313367756E-01
  0.115313376771E-01
  0.115313374337E-01
  0.115313355166E-01
  0.115313358135E-01
  0.115313372012E-01
  0.115313370427E-01
  0.115313349199E-01
  0.115313351700E-01
  0.115313370521E-01
  0.115313366833E-01
  0.115313358134E-01
  0.115313358524E-01
  0.115313361108E-01
  0.115313361556E-01
  0.115313354133E-01
  0.115313353902E-01
  0.115313352361E-01
  0.115313351201E-01
  0.115313351253E-01
  0.115313353086E-01
  0.115313353548E-01
  0.115313354812E-01
  0.115313370233E-01
  0.115313367931E-01
  0.115313367215E-01
  0.115313366530E-01
  0.115313357315E-01
  0.115313357292E-01
  0.115313357688E-01
  0.115313358716E-01
  0.115313356199E-01
  0.115313355934E-01
  0.115313354216E-01
  0.115313354339E-01
  0.115313360660E-01
  0.115313361652E-01
  0.115313365122E-01
  0.115313364174E-01
  0.115313362746E-01
  0.115313361772E-01
  0.115313355470E-01
  0.115313357462E-01
  0.115313375702E-01
  0.115313371822E-01
  0.115313354327E-01
  0.115313357382E-01
  0.115313373930E-01
  0.115313373879E-01
  0.115313366173E-01
  0.115313367802E-01
  0.115313376808E-01
  0.115313374374E-01
  0.115313355194E-01
  0.115313358162E-01
  0.115313372029E-01
  0.115313370444E-01
  0.115313349206E-01
  0.115313351707E-01
  0.115313370518E-01
  0.115313366830E-01
  0.115313358121E-01
  0.115313358511E-01
  0.115313361086E-01
  0.115313361534E-01
  0.115313354101E-01
  0.115313353870E-01
  0.115313352321E-01
  0.115313351160E-01
  0.115313351204E-01
  0.115313353037E-01
  0.115313353491E-01
  0.115313354756E-01
  0.115313370169E-01
  0.115313367868E-01
  0.115313367126E-01
  0.115313366490E-01
  0.115313353707E-01
  0.115313355423E-01
  0.115313364654E-01
  0.951397777426E-02
  0.951397969993E-02
  0.951397976409E-02
  0.951398199296E-02
  0.951398196667E-02
  0.951398126958E-02
  0.951398123400E-02
  0.951397921963E-02
  0.951397938692E-02
  0.951398137576E-02
  0.951398094805E-02
  0.951397785588E-02
  0.951397811931E-02
  0.951397973335E-02
  0.951397995240E-02
  0.951398309726E-02
  0.951398293045E-02
  0.951398088277E-02
  0.951398094277E-02
  0.951397944494E-02
  0.951397944735E-02
  0.951397904198E-02
  0.951397914208E-02
  0.951398106880E-02
  0.951398083283E-02
  0.951397842484E-02
  0.951397873839E-02
  0.951398137042E-02
  0.951398108777E-02
  0.951397889913E-02
  0.951397889322E-02
  0.951397963164E-02
  0.951397953040E-02
  0.951397933230E-02
  0.951397949236E-02
  0.951398033745E-02
  0.951397999743E-02
  0.951397787051E-02
  0.951397821960E-02
  0.951398279711E-02
  0.951398274872E-02
  0.951398067369E-02
  0.951398075849E-02
  0.951398042626E-02
  0.951398018714E-02
  0.951397790815E-02
  0.951397824330E-02
  0.951398216592E-02
  0.951398178519E-02
  0.951397930560E-02
  0.951397919008E-02
  0.951397713218E-02
  0.951397754016E-02
  0.951398202977E-02
  0.951398194755E-02
  0.951398126516E-02
  0.951398122938E-02
  0.951397921660E-02
  0.951397938391E-02
  0.951398137363E-02
  0.951398094593E-02
  0.951397785451E-02
  0.951397811792E-02
  0.951397973266E-02
  0.951397995167E-02
  0.951398309722E-02
  0.951398293036E-02
  0.951398088334E-02
  0.951398094329E-02
  0.951397944611E-02
  0.951397944845E-02
  0.951397904371E-02
  0.951397914373E-02
  0.951398107106E-02
  0.951398083500E-02
  0.951397842759E-02
  0.951397874104E-02
  0.951398137361E-02
  0.951398109087E-02
  0.951397890273E-02
  0.951397889672E-02
  0.951397963558E-02
  0.951397953425E-02
  0.951397933655E-02
  0.951397949651E-02
  0.951398034193E-02
  0.951398000182E-02
  0.951397787517E-02
  0.951397822416E-02
  0.951398280186E-02
  0.951398275338E-02
  0.951398067841E-02
  0.951398076311E-02
  0.951398043064E-02
  0.951398019120E-02
  0.951397790901E-02
  0.951397820569E-02
  0.951398171730E-02
  0.951398131171E-02
  0.951397753891E-02
  0.820387173743E-02
  0.820387154327E-02
  0.820387158214E-02
  0.820386902512E-02
  0.820386924915E-02
  0.820386970290E-02
  0.820386970576E-02
  0.820387099678E-02
  0.820387097468E-02
  0.820387119045E-02
  0.820387115455E-02
  0.820387326009E-02
  0.820387296545E-02
  0.820386991291E-02
  0.820387020486E-02
  0.820386941471E-02
  0.820386933290E-02
  0.820386648823E-02
  0.820386656058E-02
  0.820386924904E-02
  0.820386919899E-02
  0.820387033224E-02
  0.820387034847E-02
  0.820386987970E-02
  0.820386976015E-02
  0.820386867781E-02
  0.820386862944E-02
  0.820386728047E-02
  0.820386722639E-02
  0.820386666367E-02
  0.820386686012E-02
  0.820387202045E-02
  0.820387199729E-02
  0.820387197086E-02
  0.820387207032E-02
  0.820387168787E-02
  0.820387151698E-02
  0.820387228350E-02
  0.820387182115E-02
  0.820386452579E-02
  0.820386519651E-02
  0.820386871395E-02
  0.820386872415E-02
  0.820387034048E-02
  0.820387021755E-02
  0.820387182328E-02
  0.820387171324E-02
  0.820386918357E-02
  0.820386942726E-02
  0.820387219462E-02
  0.820387210890E-02
  0.820387533396E-02
  0.820387502155E-02
  0.820386884333E-02
  0.820386922927E-02
  0.820386965893E-02
  0.820386966294E-02
  0.820387095299E-02
  0.820387093118E-02
  0.820387114830E-02
  0.820387111267E-02
  0.820387322061E-02
  0.820387292627E-02
  0.820386987678E-02
  0.820387016904E-02
  0.820386938242E-02
  0.820386930095E-02
  0.820386646017E-02
  0.820386653286E-02
  0.820386922549E-02
  0.820386917579E-02
  0.820387031341E-02
  0.820387032999E-02
  0.820386986575E-02
  0.820386974654E-02
  0.820386866882E-02
  0.820386862081E-02
  0.820386727651E-02
  0.820386722278E-02
  0.820386666476E-02
  0.820386686154E-02
  0.820387202653E-02
  0.820387200370E-02
  0.820387198187E-02
  0.820387208163E-02
  0.820387170367E-02
  0.820387153307E-02
  0.820387230391E-02
  0.820387184184E-02
  0.820386455057E-02
  0.820386522153E-02
  0.820386874277E-02
  0.820386875317E-02
  0.820387037299E-02
  0.820387025017E-02
  0.820387186141E-02
  0.820387175344E-02
  0.820386969819E-02
  0.820386982452E-02
  0.820387189575E-02
  0.721125632102E-02
  0.721125386833E-02
  0.721125434669E-02
  0.721126145113E-02
  0.721126093165E-02
  0.721125254977E-02
  0.721125289750E-02
  0.721125771783E-02
  0.721125753850E-02
  0.721125356734E-02
  0.721125371844E-02
  0.721125634372E-02
  0.721125613763E-02
  0.721125478185E-02
  0.721125503812E-02
  0.721125830884E-02
  0.721125795981E-02
  0.721125461833E-02
  0.721125494998E-02
  0.721126231025E-02
  0.721126210747E-02
  0.721125659030E-02
  0.721125698743E-02
  0.721126162766E-02
  0.721126118891E-02
  0.721125663463E-02
  0.721125652593E-02
  0.721125678211E-02
  0.721125689072E-02
  0.721126091604E-02
  0.721126064459E-02
  0.721125421327E-02
  0.721125456231E-02
  0.721125441232E-02
  0.721125460674E-02
  0.721125622799E-02
  0.721125625433E-02
  0.721125958493E-02
  0.721125941748E-02
  0.721126261725E-02
  0.721126227617E-02
  0.721125565644E-02
  0.721125614799E-02
  0.721125960895E-02
  0.721125935918E-02
  0.721125541705E-02
  0.721125560007E-02
  0.721125819204E-02
  0.721125806225E-02
  0.721125542686E-02
  0.721125555103E-02
  0.721125553614E-02
  0.721125585377E-02
  0.721126160606E-02
  0.721126096855E-02
  0.721125257712E-02
  0.721125292431E-02
  0.721125774760E-02
  0.721125756835E-02
  0.721125359546E-02
  0.721125374707E-02
  0.721125637476E-02
  0.721125616845E-02
  0.721125480228E-02
  0.721125505865E-02
  0.721125832295E-02
  0.721125797427E-02
  0.721125462946E-02
  0.721125496150E-02
  0.721126231840E-02
  0.721126211605E-02
  0.721125659571E-02
  0.721125699330E-02
  0.721126163054E-02
  0.721126119227E-02
  0.721125663516E-02
  0.721125652696E-02
  0.721125678045E-02
  0.721125688955E-02
  0.721126091234E-02
  0.721126064140E-02
  0.721125420771E-02
  0.721125455728E-02
  0.721125440559E-02
  0.721125460059E-02
  0.721125622113E-02
  0.721125624751E-02
  0.721125956946E-02
  0.721125940235E-02
  0.721126259868E-02
  0.721126225719E-02
  0.721125562292E-02
  0.721125611523E-02
  0.721125958085E-02
  0.721125933090E-02
  0.721125538030E-02
  0.721125548110E-02
  0.721125675729E-02
  0.721125670765E-02
  0.721125647268E-02
  0.620436350201E-02
  0.620436229567E-02
  0.620436237251E-02
  0.620435819729E-02
  0.620435830085E-02
  0.620436132646E-02
  0.620436091471E-02
  0.620435660430E-02
  0.620435686988E-02
  0.620435953096E-02
  0.620435908822E-02
  0.620435266040E-02
  0.620435307179E-02
  0.620436138434E-02
  0.620436125533E-02
  0.620435590296E-02
  0.620435605266E-02
  0.620436126430E-02
  0.620436112263E-02
  0.620435645908E-02
  0.620435686152E-02
  0.620435961983E-02
  0.620435944524E-02
  0.620435544995E-02
  0.620435581488E-02
  0.620436506632E-02
  0.620436454109E-02
  0.620436177422E-02
  0.620436174199E-02
  0.620435895701E-02
  0.620435903524E-02
  0.620436072709E-02
  0.620436034664E-02
  0.620435436840E-02
  0.620435472540E-02
  0.620435814604E-02
  0.620435821645E-02
  0.620435724105E-02
  0.620435713906E-02
  0.620435442654E-02
  0.620435465905E-02
  0.620436135841E-02
  0.620436089624E-02
  0.620435113930E-02
  0.620435165093E-02
  0.620436163632E-02
  0.620436137209E-02
  0.620435768191E-02
  0.620435798775E-02
  0.620436304128E-02
  0.620436278607E-02
  0.620435882387E-02
  0.620435908922E-02
  0.620435849514E-02
  0.620435840772E-02
  0.620436145851E-02
  0.620436104544E-02
  0.620435673050E-02
  0.620435699620E-02
  0.620435965482E-02
  0.620435921196E-02
  0.620435277492E-02
  0.620435318644E-02
  0.620436150234E-02
  0.620436137208E-02
  0.620435600626E-02
  0.620435615472E-02
  0.620436134438E-02
  0.620436120123E-02
  0.620435650705E-02
  0.620435690839E-02
  0.620435964247E-02
  0.620435946706E-02
  0.620435545207E-02
  0.620435581606E-02
  0.620436504508E-02
  0.620436451856E-02
  0.620436172238E-02
  0.620436168913E-02
  0.620435887950E-02
  0.620435895702E-02
  0.620436062964E-02
  0.620436024917E-02
  0.620435426400E-02
  0.620435462134E-02
  0.620435803995E-02
  0.620435811061E-02
  0.620435713971E-02
  0.620435703745E-02
  0.620435432368E-02
  0.620435455621E-02
  0.620436126693E-02
  0.620436080407E-02
  0.620435103727E-02
  0.620435154935E-02
  0.620436154099E-02
  0.620436128329E-02
  0.620435916124E-02
  0.620435942250E-02
  0.620436372327E-02
  0.554014918745E-02
  0.554015104007E-02
  0.554015131490E-02
  0.554015704947E-02
  0.554015683352E-02
  0.554015461214E-02
  0.554015462480E-02
  0.554016002307E-02
  0.554015993186E-02
  0.554015725916E-02
  0.554015736638E-02
  0.554016586521E-02
  0.554016544711E-02
  0.554015497562E-02
  0.554015553004E-02
  0.554016108104E-02
  0.554016083393E-02
  0.554015827945E-02
  0.554015822802E-02
  0.554015427123E-02
  0.554015433584E-02
  0.554015261787E-02
  0.554015273667E-02
  0.554015586480E-02
  0.554015603623E-02
  0.554015667766E-02
  0.554015665912E-02
  0.554015683973E-02
  0.554015661539E-02
  0.554015544935E-02
  0.554015545190E-02
  0.554015697395E-02
  0.554015720503E-02
  0.554016818325E-02
  0.554016767702E-02
  0.554015592530E-02
  0.554015624440E-02
  0.554015796294E-02
  0.554015803190E-02
  0.554016271537E-02
  0.554016256345E-02
  0.554015746833E-02
  0.554015756458E-02
  0.554016175053E-02
  0.554016151305E-02
  0.554015659654E-02
  0.554015678680E-02
  0.554015533933E-02
  0.554015515895E-02
  0.554014902008E-02
  0.554014935170E-02
  0.554015623735E-02
  0.554015631348E-02
  0.554015689071E-02
  0.554015667415E-02
  0.554015441188E-02
  0.554015442426E-02
  0.554015981580E-02
  0.554015972439E-02
  0.554015704987E-02
  0.554015715693E-02
  0.554016565717E-02
  0.554016523892E-02
  0.554015477177E-02
  0.554015532606E-02
  0.554016089617E-02
  0.554016064841E-02
  0.554015811991E-02
  0.554015806772E-02
  0.554015414912E-02
  0.554015421312E-02
  0.554015253848E-02
  0.554015265878E-02
  0.554015586318E-02
  0.554015603632E-02
  0.554015675601E-02
  0.554015673859E-02
  0.554015699472E-02
  0.554015676921E-02
  0.554015563096E-02
  0.554015563168E-02
  0.554015715583E-02
  0.554015738577E-02
  0.554016836057E-02
  0.554016785386E-02
  0.554015609248E-02
  0.554015641142E-02
  0.554015812365E-02
  0.554015819235E-02
  0.554016287072E-02
  0.554016271859E-02
  0.554015762000E-02
  0.554015771611E-02
  0.554016190068E-02
  0.554016166315E-02
  0.554015674721E-02
  0.554015693972E-02
  0.554015540032E-02
  0.554015525625E-02
  0.554014909319E-02
  0.485633712542E-02
  0.485634056352E-02
  0.485634049064E-02
  0.485633014093E-02
  0.485633073662E-02
  0.485634450000E-02
  0.485634404117E-02
  0.485633468768E-02
  0.485633485113E-02
  0.485633520739E-02
  0.485633503276E-02
  0.485633103303E-02
  0.485633115655E-02
  0.485633491371E-02
  0.485633476445E-02
  0.485632928995E-02
  0.485632983911E-02
  0.485634337023E-02
  0.485634278427E-02
  0.485633213258E-02
  0.485633247566E-02
  0.485634384269E-02
  0.485634342670E-02
  0.485633208420E-02
  0.485633231993E-02
  0.485633074348E-02
  0.485633108753E-02
  0.485633943153E-02
  0.485633905616E-02
  0.485633479083E-02
  0.485633489165E-02
  0.485633860678E-02
  0.485633876204E-02
  0.485633551461E-02
  0.485633552712E-02
  0.485633589281E-02
  0.485633548201E-02
  0.485633045072E-02
  0.485633101136E-02
  0.485634150748E-02
  0.485634110831E-02
  0.485632963492E-02
  0.485633008783E-02
  0.485634468985E-02
  0.485634446993E-02
  0.485634004427E-02
  0.485633992274E-02
  0.485633773064E-02
  0.485633743722E-02
  0.485633595130E-02
  0.485633596263E-02
  0.485633507124E-02
  0.485633525283E-02
  0.485633049343E-02
  0.485633086599E-02
  0.485634468019E-02
  0.485634421981E-02
  0.485633487883E-02
  0.485633504204E-02
  0.485633540447E-02
  0.485633522967E-02
  0.485633123155E-02
  0.485633135489E-02
  0.485633510959E-02
  0.485633496013E-02
  0.485632947896E-02
  0.485633002789E-02
  0.485634354795E-02
  0.485634296174E-02
  0.485633229330E-02
  0.485633263603E-02
  0.485634396672E-02
  0.485634354992E-02
  0.485633210438E-02
  0.485633234013E-02
  0.485633064049E-02
  0.485633098553E-02
  0.485633924270E-02
  0.485633886954E-02
  0.485633460453E-02
  0.485633470580E-02
  0.485633844521E-02
  0.485633860001E-02
  0.485633536601E-02
  0.485633537845E-02
  0.485633575749E-02
  0.485633534661E-02
  0.485633032791E-02
  0.485633088847E-02
  0.485634139538E-02
  0.485634099611E-02
  0.485632953070E-02
  0.485632998349E-02
  0.485634458960E-02
  0.485634436936E-02
  0.485633993843E-02
  0.485633978323E-02
  0.485633669514E-02
  0.485633651755E-02
  0.485633716691E-02
  0.435946934595E-02
  0.435946848253E-02
  0.435946833698E-02
  0.435946247334E-02
  0.435946275111E-02
  0.435946573595E-02
  0.435946577521E-02
  0.435946440529E-02
  0.435946433307E-02
  0.435946798272E-02
  0.435946793599E-02
  0.435947093437E-02
  0.435947102590E-02
  0.435947459906E-02
  0.435947420714E-02
  0.435946308830E-02
  0.435946310836E-02
  0.435945480452E-02
  0.435945547995E-02
  0.435947580182E-02
  0.435947530212E-02
  0.435946335337E-02
  0.435946352720E-02
  0.435946741181E-02
  0.435946700821E-02
  0.435946144887E-02
  0.435946177507E-02
  0.435946344616E-02
  0.435946355125E-02
  0.435946764262E-02
  0.435946737544E-02
  0.435946171819E-02
  0.435946195049E-02
  0.435946035833E-02
  0.435946061820E-02
  0.435947112091E-02
  0.435947094563E-02
  0.435947664051E-02
  0.435947625812E-02
  0.435945575037E-02
  0.435945639195E-02
  0.435947400245E-02
  0.435947371474E-02
  0.435946570799E-02
  0.435946587148E-02
  0.435946070469E-02
  0.435946066047E-02
  0.435946743937E-02
  0.435946716854E-02
  0.435946976144E-02
  0.435946975233E-02
  0.435947079003E-02
  0.435947063752E-02
  0.435946238773E-02
  0.435946266503E-02
  0.435946562292E-02
  0.435946566231E-02
  0.435946428304E-02
  0.435946421090E-02
  0.435946785576E-02
  0.435946780906E-02
  0.435947080654E-02
  0.435947089805E-02
  0.435947447396E-02
  0.435947408198E-02
  0.435946296951E-02
  0.435946298941E-02
  0.435945469451E-02
  0.435945536990E-02
  0.435947570954E-02
  0.435947521049E-02
  0.435946330801E-02
  0.435946348240E-02
  0.435946744420E-02
  0.435946703861E-02
  0.435946153385E-02
  0.435946185685E-02
  0.435946354298E-02
  0.435946364724E-02
  0.435946774966E-02
  0.435946748315E-02
  0.435946183245E-02
  0.435946206467E-02
  0.435946045645E-02
  0.435946071630E-02
  0.435947120564E-02
  0.435947103036E-02
  0.435947671264E-02
  0.435947633026E-02
  0.435945581158E-02
  0.435945645319E-02
  0.435947405557E-02
  0.435947376791E-02
  0.435946575709E-02
  0.435946592067E-02
  0.435946076027E-02
  0.435946072060E-02
  0.435946854088E-02