# vtk DataFile Version 3.0
MachLine results file. Generated by MachLine, USU AeroLab (c) 2022.
ASCII
DATASET POLYDATA
POINTS                4902 float
  0.111545794163E-05 -0.773795221435E-22 -0.281380080522E-22
  0.101010148637E+00 -0.845717903740E-08  0.894291592205E-02
  0.101010148637E+00  0.112083617936E-02  0.887239941830E-02
  0.101010148637E+00  0.222400455957E-02  0.866195987589E-02
  0.101010148637E+00  0.329209905974E-02  0.831491605217E-02
  0.101010148637E+00  0.430827519156E-02  0.783674103521E-02
  0.101010148637E+00  0.525650724931E-02  0.723497593058E-02
  0.101010148637E+00  0.612184104794E-02  0.651911093351E-02
  0.101010148637E+00  0.689062975554E-02  0.570043566333E-02
  0.101010148637E+00  0.755074911633E-02  0.479186111707E-02
  0.101010148637E+00  0.809178865250E-02  0.380771605791E-02
  0.101010148637E+00  0.850521584809E-02  0.276352104231E-02
  0.101010148637E+00  0.878451070913E-02  0.167574364853E-02
  0.101010148637E+00  0.892526858915E-02  0.561538777311E-03
  0.101010148637E+00  0.892526965121E-02 -0.561521896329E-03
  0.101010148637E+00  0.878451387857E-02 -0.167572703377E-02
  0.101010148637E+00  0.850522107492E-02 -0.276350495580E-02
  0.101010148637E+00  0.809179585428E-02 -0.380770075334E-02
  0.101010148637E+00  0.755075817949E-02 -0.479184683580E-02
  0.101010148637E+00  0.689064053715E-02 -0.570042263059E-02
  0.101010148637E+00  0.612185337797E-02 -0.651909935483E-02
  0.101010148637E+00  0.525652093331E-02 -0.723496598857E-02
  0.101010148637E+00  0.430829001373E-02 -0.783673288665E-02
  0.101010148637E+00  0.329211478631E-02 -0.831490982558E-02
  0.101010148637E+00  0.222402094254E-02 -0.866195566946E-02
  0.101010148637E+00  0.112085296034E-02 -0.887239729837E-02
  0.101010148637E+00  0.845717903452E-08 -0.894291592205E-02
  0.101010148637E+00 -0.112083617936E-02 -0.887239941830E-02
  0.101010148637E+00 -0.222400455957E-02 -0.866195987589E-02
  0.101010148637E+00 -0.329209905974E-02 -0.831491605217E-02
  0.101010148637E+00 -0.430827519156E-02 -0.783674103521E-02
  0.101010148637E+00 -0.525650724931E-02 -0.723497593058E-02
  0.101010148637E+00 -0.612184104794E-02 -0.651911093351E-02
  0.101010148637E+00 -0.689062975554E-02 -0.570043566333E-02
  0.101010148637E+00 -0.755074911633E-02 -0.479186111707E-02
  0.101010148637E+00 -0.809178865250E-02 -0.380771605791E-02
  0.101010148637E+00 -0.850521584809E-02 -0.276352104231E-02
  0.101010148637E+00 -0.878451070913E-02 -0.167574364853E-02
  0.101010148637E+00 -0.892526858915E-02 -0.561538777311E-03
  0.101010148637E+00 -0.892526965121E-02  0.561521896329E-03
  0.101010148637E+00 -0.878451387857E-02  0.167572703377E-02
  0.101010148637E+00 -0.850522107492E-02  0.276350495580E-02
  0.101010148637E+00 -0.809179585428E-02  0.380770075334E-02
  0.101010148637E+00 -0.755075817949E-02  0.479184683580E-02
  0.101010148637E+00 -0.689064053715E-02  0.570042263059E-02
  0.101010148637E+00 -0.612185337797E-02  0.651909935483E-02
  0.101010148637E+00 -0.525652093331E-02  0.723496598857E-02
  0.101010148637E+00 -0.430829001373E-02  0.783673288665E-02
  0.101010148637E+00 -0.329211478631E-02  0.831490982558E-02
  0.101010148637E+00 -0.222402094254E-02  0.866195566946E-02
  0.101010148637E+00 -0.112085296034E-02  0.887239729837E-02
  0.202020243193E+00 -0.354274922533E-11  0.149252544487E-01
  0.202020243193E+00  0.187063039842E-02  0.148075643647E-01
  0.202020243193E+00  0.371175984227E-02  0.144563501390E-01
  0.202020243193E+00  0.549435261553E-02  0.138771506341E-01
  0.202020243193E+00  0.719029616548E-02  0.130791001823E-01
  0.202020243193E+00  0.877284444995E-02  0.120747845033E-01
  0.202020243193E+00  0.102170397412E-01  0.108800422535E-01
  0.202020243193E+00  0.115001062071E-01  0.951371524309E-02
  0.202020243193E+00  0.126018091283E-01  0.799735125966E-02
  0.202020243193E+00  0.135047739952E-01  0.635486427024E-02
  0.202020243193E+00  0.141947605012E-01  0.461215727422E-02
  0.202020243193E+00  0.146608871613E-01  0.279671380284E-02
  0.202020243193E+00  0.148958028738E-01  0.937164484664E-03
  0.202020243193E+00  0.148958028742E-01 -0.937164477593E-03
  0.202020243193E+00  0.146608871626E-01 -0.279671379588E-02
  0.202020243193E+00  0.141947605034E-01 -0.461215726748E-02
  0.202020243193E+00  0.135047739983E-01 -0.635486426382E-02
  0.202020243193E+00  0.126018091321E-01 -0.799735125368E-02
  0.202020243193E+00  0.115001062116E-01 -0.951371523763E-02
  0.202020243193E+00  0.102170397463E-01 -0.108800422486E-01
  0.202020243193E+00  0.877284445568E-02 -0.120747844991E-01
  0.202020243193E+00  0.719029617169E-02 -0.130791001789E-01
  0.202020243193E+00  0.549435262212E-02 -0.138771506315E-01
  0.202020243193E+00  0.371175984913E-02 -0.144563501373E-01
  0.202020243193E+00  0.187063040545E-02 -0.148075643638E-01
  0.202020243193E+00  0.354274442487E-11 -0.149252544487E-01
  0.202020243193E+00 -0.187063039842E-02 -0.148075643647E-01
  0.202020243193E+00 -0.371175984227E-02 -0.144563501390E-01
  0.202020243193E+00 -0.549435261553E-02 -0.138771506341E-01
  0.202020243193E+00 -0.719029616548E-02 -0.130791001823E-01
  0.202020243193E+00 -0.877284444995E-02 -0.120747845033E-01
  0.202020243193E+00 -0.102170397412E-01 -0.108800422535E-01
  0.202020243193E+00 -0.115001062071E-01 -0.951371524309E-02
  0.202020243193E+00 -0.126018091283E-01 -0.799735125966E-02
  0.202020243193E+00 -0.135047739952E-01 -0.635486427024E-02
  0.202020243193E+00 -0.141947605012E-01 -0.461215727422E-02
  0.202020243193E+00 -0.146608871613E-01 -0.279671380284E-02
  0.202020243193E+00 -0.148958028738E-01 -0.937164484664E-03
  0.202020243193E+00 -0.148958028742E-01  0.937164477593E-03
  0.202020243193E+00 -0.146608871626E-01  0.279671379588E-02
  0.202020243193E+00 -0.141947605034E-01  0.461215726748E-02
  0.202020243193E+00 -0.135047739983E-01  0.635486426382E-02
  0.202020243193E+00 -0.126018091321E-01  0.799735125368E-02
  0.202020243193E+00 -0.115001062116E-01  0.951371523763E-02
  0.202020243193E+00 -0.102170397463E-01  0.108800422486E-01
  0.202020243193E+00 -0.877284445568E-02  0.120747844991E-01
  0.202020243193E+00 -0.719029617169E-02  0.130791001789E-01
  0.202020243193E+00 -0.549435262212E-02  0.138771506315E-01
  0.202020243193E+00 -0.371175984913E-02  0.144563501373E-01
  0.202020243193E+00 -0.187063040545E-02  0.148075643638E-01
  0.303030339339E+00 -0.190862155350E-11  0.200733722907E-01
  0.303030339339E+00  0.251586065599E-02  0.199150877556E-01
  0.303030339339E+00  0.499204468754E-02  0.194427303866E-01
  0.303030339339E+00  0.738950119295E-02  0.186637495453E-01
  0.303030339339E+00  0.967042085007E-02  0.175904302327E-01
  0.303030339339E+00  0.117988321970E-01  0.162396993162E-01
  0.303030339339E+00  0.137411689072E-01  0.146328586498E-01
  0.303030339339E+00  0.154667991751E-01  0.127952490566E-01
  0.303030339339E+00  0.169485087777E-01  0.107558507437E-01
  0.303030339339E+00  0.181629302781E-01  0.854682623425E-02
  0.303030339339E+00  0.190909115221E-01  0.620301317348E-02
  0.303030339339E+00  0.197178176765E-01  0.376137488916E-02
  0.303030339339E+00  0.200337620707E-01  0.126041747641E-02
  0.303030339339E+00  0.200337620710E-01 -0.126041747260E-02
  0.303030339339E+00  0.197178176772E-01 -0.376137488541E-02
  0.303030339339E+00  0.190909115233E-01 -0.620301316985E-02
  0.303030339339E+00  0.181629302797E-01 -0.854682623080E-02
  0.303030339339E+00  0.169485087797E-01 -0.107558507405E-01
  0.303030339339E+00  0.154667991775E-01 -0.127952490536E-01
  0.303030339339E+00  0.137411689100E-01 -0.146328586471E-01
  0.303030339339E+00  0.117988322001E-01 -0.162396993139E-01
  0.303030339339E+00  0.967042085341E-02 -0.175904302308E-01
  0.303030339339E+00  0.738950119650E-02 -0.186637495439E-01
  0.303030339339E+00  0.499204469123E-02 -0.194427303857E-01
  0.303030339339E+00  0.251586065978E-02 -0.199150877552E-01
  0.303030339339E+00  0.190861509729E-11 -0.200733722907E-01
  0.303030339339E+00 -0.251586065599E-02 -0.199150877556E-01
  0.303030339339E+00 -0.499204468754E-02 -0.194427303866E-01
  0.303030339339E+00 -0.738950119295E-02 -0.186637495453E-01
  0.303030339339E+00 -0.967042085007E-02 -0.175904302327E-01
  0.303030339339E+00 -0.117988321970E-01 -0.162396993162E-01
  0.303030339339E+00 -0.137411689072E-01 -0.146328586498E-01
  0.303030339339E+00 -0.154667991751E-01 -0.127952490566E-01
  0.303030339339E+00 -0.169485087777E-01 -0.107558507437E-01
  0.303030339339E+00 -0.181629302781E-01 -0.854682623425E-02
  0.303030339339E+00 -0.190909115221E-01 -0.620301317348E-02
  0.303030339339E+00 -0.197178176765E-01 -0.376137488916E-02
  0.303030339339E+00 -0.200337620707E-01 -0.126041747641E-02
  0.303030339339E+00 -0.200337620710E-01  0.126041747260E-02
  0.303030339339E+00 -0.197178176772E-01  0.376137488541E-02
  0.303030339339E+00 -0.190909115233E-01  0.620301316985E-02
  0.303030339339E+00 -0.181629302797E-01  0.854682623080E-02
  0.303030339339E+00 -0.169485087797E-01  0.107558507405E-01
  0.303030339339E+00 -0.154667991775E-01  0.127952490536E-01
  0.303030339339E+00 -0.137411689100E-01  0.146328586471E-01
  0.303030339339E+00 -0.117988322001E-01  0.162396993139E-01
  0.303030339339E+00 -0.967042085341E-02  0.175904302308E-01
  0.303030339339E+00 -0.738950119650E-02  0.186637495439E-01
  0.303030339339E+00 -0.499204469123E-02  0.194427303857E-01
  0.303030339339E+00 -0.251586065978E-02  0.199150877552E-01
  0.404040437180E+00 -0.125996311440E-11  0.247124997964E-01
  0.404040437180E+00  0.309729750761E-02  0.245176343485E-01
  0.404040437180E+00  0.614574878445E-02  0.239361111711E-01
  0.404040437180E+00  0.909727793176E-02  0.229771012148E-01
  0.404040437180E+00  0.119053375735E-01  0.216557286494E-01
  0.404040437180E+00  0.145256429278E-01  0.199928323105E-01
  0.404040437180E+00  0.169168702155E-01  0.180146370597E-01
  0.404040437180E+00  0.190413083547E-01  0.157523402173E-01
  0.404040437180E+00  0.208654536853E-01  0.132416195573E-01
  0.404040437180E+00  0.223605383529E-01  0.105220706544E-01
[...]
POINT_DATA                4902
SCALARS phi float 1
LOOKUP_TABLE default
  0.000000000000E+00
  0.325260651746E-18
 -0.542101086243E-18
 -0.325260651746E-18
 -0.108420217249E-18
  0.108420217249E-18
 -0.108420217249E-18
  0.325260651746E-18
  0.216840434497E-18
  0.108420217249E-18
 -0.325260651746E-18
  0.433680868994E-18
  0.000000000000E+00
 -0.433680868994E-18
  0.000000000000E+00
  0.000000000000E+00
  0.325260651746E-18
  0.000000000000E+00
 -0.433680868994E-18
  0.542101086243E-18
  0.108420217249E-18
  0.433680868994E-18
  0.216840434497E-18
  0.325260651746E-18
  0.108420217249E-18
  0.000000000000E+00
 -0.216840434497E-18
  0.758941520740E-18
  0.000000000000E+00
 -0.433680868994E-18
 -0.650521303491E-18
  0.000000000000E+00
  0.108420217249E-18
  0.108420217249E-18
  0.000000000000E+00
  0.542101086243E-18
  0.108420217249E-18
  0.216840434497E-18
 -0.325260651746E-18
 -0.108420217249E-18
  0.108420217249E-18
  0.000000000000E+00
 -0.542101086243E-18
  0.542101086243E-18
 -0.542101086243E-18
  0.650521303491E-18
  0.108420217249E-18
  0.216840434497E-18
 -0.325260651746E-18
  0.325260651746E-18
 -0.325260651746E-18
  0.108420217249E-18
 -0.325260651746E-18
  0.000000000000E+00
 -0.433680868994E-18
 -0.108420217249E-18
  0.108420217249E-18
  0.000000000000E+00
  0.000000000000E+00
 -0.325260651746E-18
 -0.108420217249E-18
  0.000000000000E+00
  0.325260651746E-18
 -0.325260651746E-18
  0.108420217249E-18
  0.000000000000E+00
 -0.216840434497E-18
 -0.325260651746E-18
  0.108420217249E-18
  0.542101086243E-18
  0.000000000000E+00
  0.108420217249E-18
  0.108420217249E-18
  0.108420217249E-18
 -0.325260651746E-18
  0.000000000000E+00
  0.325260651746E-18
 -0.108420217249E-18
  0.325260651746E-18
  0.216840434497E-18
  0.000000000000E+00
 -0.216840434497E-18
 -0.108420217249E-18
 -0.216840434497E-18
  0.325260651746E-18
  0.216840434497E-18
 -0.216840434497E-18
 -0.650521303491E-18
  0.216840434497E-18
  0.216840434497E-18
  0.433680868994E-18
  0.108420217249E-18
  0.433680868994E-18
  0.108420217249E-18
  0.325260651746E-18
  0.108420217249E-18
  0.325260651746E-18
 -0.433680868994E-18
 -0.108420217249E-18
 -0.325260651746E-18
 -0.433680868994E-18
 -0.433680868994E-18
  0.325260651746E-18
 -0.162630325873E-18
  0.162630325873E-18
  0.000000000000E+00
  0.108420217249E-18
 -0.108420217249E-18
  0.000000000000E+00
 -0.325260651746E-18
  0.542101086243E-18
 -0.542101086243E-19
  0.162630325873E-18
  0.271050543121E-18
  0.542101086243E-19
  0.542101086243E-19
  0.433680868994E-18
  0.162630325873E-18
 -0.216840434497E-18
  0.162630325873E-18
 -0.216840434497E-18
 -0.379470760370E-18
  0.000000000000E+00
 -0.325260651746E-18
 -0.542101086243E-19
 -0.216840434497E-18
  0.542101086243E-19
 -0.162630325873E-18
 -0.271050543121E-18
 -0.162630325873E-18
  0.487890977618E-18
 -0.325260651746E-18
 -0.325260651746E-18
 -0.162630325873E-18
 -0.216840434497E-18
 -0.542101086243E-19
  0.000000000000E+00
  0.216840434497E-18
  0.216840434497E-18
  0.704731412116E-18
  0.325260651746E-18
 -0.108420217249E-18
  0.325260651746E-18
  0.162630325873E-18
  0.487890977618E-18
 -0.542101086243E-18
 -0.108420217249E-18
 -0.433680868994E-18
  0.271050543121E-18
 -0.162630325873E-18
  0.542101086243E-18
  0.108420217249E-18
 -0.108420217249E-18
 -0.162630325873E-18
 -0.542101086243E-19
  0.271050543121E-18
  0.542101086243E-19
  0.216840434497E-18
  0.216840434497E-18
  0.000000000000E+00
 -0.542101086243E-19
 -0.379470760370E-18
 -0.542101086243E-19
  0.162630325873E-18
  0.542101086243E-19
  0.162630325873E-18
  0.542101086243E-19
 -0.271050543121E-18
 -0.542101086243E-19
 -0.487890977618E-18
  0.542101086243E-19
  0.325260651746E-18
  0.542101086243E-19
 -0.271050543121E-18
  0.325260651746E-18
 -0.216840434497E-18
  0.108420217249E-18
  0.542101086243E-19
  0.325260651746E-18
  0.379470760370E-18
 -0.379470760370E-18
  0.000000000000E+00
  0.487890977618E-18
  0.000000000000E+00
  0.162630325873E-18
  0.162630325873E-18
 -0.542101086243E-19
  0.108420217249E-18
 -0.487890977618E-18
  0.271050543121E-18
 -0.162630325873E-18
  0.216840434497E-18
 -0.108420217249E-18
  0.325260651746E-18
 -0.542101086243E-19
 -0.108420217249E-18
 -0.487890977618E-18
  0.162630325873E-18
  0.108420217249E-18
 -0.542101086243E-19
  0.216840434497E-18
 -0.162630325873E-18
  0.271050543121E-18
 -0.271050543121E-19
 -0.542101086243E-19
  0.542101086243E-19
  0.000000000000E+00
 -0.189735380185E-18
 -0.406575814682E-18
  0.108420217249E-18
 -0.379470760370E-18
 -0.108420217249E-18
 -0.542101086243E-19
  0.271050543121E-19
  0.135525271561E-18
 -0.271050543121E-18
 -0.813151629364E-19
  0.162630325873E-18
 -0.325260651746E-18
 -0.813151629364E-19
 -0.542101086243E-19
  0.000000000000E+00
 -0.406575814682E-18
 -0.542101086243E-19
  0.162630325873E-18
 -0.108420217249E-18
 -0.162630325873E-18
 -0.352365706058E-18
  0.108420217249E-18
 -0.216840434497E-18
 -0.352365706058E-18
  0.108420217249E-18
 -0.379470760370E-18
 -0.189735380185E-18
 -0.108420217249E-18
 -0.243945488809E-18
  0.000000000000E+00
  0.542101086243E-19
 -0.216840434497E-18
  0.189735380185E-18
 -0.243945488809E-18
 -0.162630325873E-18
  0.271050543121E-19
  0.000000000000E+00
  0.271050543121E-19
  0.271050543121E-19
 -0.813151629364E-19
  0.189735380185E-18
 -0.813151629364E-19
  0.542101086243E-19
 -0.271050543121E-18
  0.000000000000E+00
 -0.542101086243E-19
 -0.813151629364E-19
  0.135525271561E-18
 -0.135525271561E-18
  0.243945488809E-18
 -0.271050543121E-19
  0.135525271561E-18
 -0.813151629364E-19
  0.000000000000E+00
 -0.135525271561E-18
 -0.189735380185E-18
  0.243945488809E-18
 -0.325260651746E-18
 -0.271050543121E-19
  0.813151629364E-19
 -0.813151629364E-19
 -0.216840434497E-18
  0.216840434497E-18
 -0.108420217249E-18
  0.813151629364E-19
 -0.542101086243E-19
  0.189735380185E-18
  0.000000000000E+00
 -0.813151629364E-19
 -0.542101086243E-19
 -0.298155597434E-18
 -0.108420217249E-18
 -0.542101086243E-19
 -0.135525271561E-18
  0.542101086243E-19
  0.352365706058E-18
 -0.271050543121E-19
 -0.542101086243E-19
 -0.162630325873E-18
 -0.542101086243E-19
 -0.813151629364E-19
 -0.813151629364E-19
  0.135525271561E-18
  0.108420217249E-18
  0.813151629364E-19
 -0.108420217249E-18
  0.271050543121E-19
 -0.271050543121E-18
  0.542101086243E-19
  0.000000000000E+00
  0.542101086243E-19
 -0.271050543121E-19
 -0.813151629364E-19
  0.542101086243E-19
  0.000000000000E+00
  0.813151629364E-19
 -0.542101086243E-19
  0.948676900925E-19
  0.271050543121E-19
  0.271050543121E-19
  0.677626357803E-19
  0.000000000000E+00
 -0.813151629364E-19
  0.135525271561E-19
  0.135525271561E-19
 -0.271050543121E-19
  0.135525271561E-19
  0.406575814682E-19
 -0.135525271561E-19
  0.271050543121E-19
 -0.677626357803E-19
 -0.542101086243E-19
  0.406575814682E-19
  0.542101086243E-19
  0.271050543121E-19
  0.121972744405E-18
  0.135525271561E-19
 -0.677626357803E-19
  0.677626357803E-19
  0.000000000000E+00
 -0.542101086243E-19
 -0.135525271561E-18
 -0.271050543121E-19
 -0.406575814682E-19
  0.203287907341E-18
  0.813151629364E-19
  0.948676900925E-19
  0.813151629364E-19
 -0.271050543121E-19
  0.271050543121E-19
 -0.108420217249E-18
 -0.271050543121E-19
  0.135525271561E-19
 -0.406575814682E-19
  0.813151629364E-19
 -0.135525271561E-19
  0.948676900925E-19
 -0.677626357803E-19
 -0.542101086243E-19
  0.135525271561E-19
 -0.677626357803E-19
  0.813151629364E-19
 -0.406575814682E-19
 -0.948676900925E-19
  0.847032947254E-20
 -0.677626357803E-20
  0.118584612616E-19
 -0.677626357803E-20
 -0.338813178902E-20
 -0.677626357803E-20
  0.000000000000E+00
  0.169406589451E-19
 -0.338813178902E-20
 -0.135525271561E-19
 -0.118584612616E-19
  0.338813178902E-20
  0.169406589451E-20
 -0.169406589451E-19
 -0.508219768353E-20
 -0.169406589451E-20
  0.169406589451E-20
  0.203287907341E-19
 -0.135525271561E-19
  0.152465930506E-19
 -0.508219768353E-20
  0.135525271561E-19
  0.118584612616E-19
  0.847032947254E-20
  0.152465930506E-19
  0.169406589451E-20
 -0.338813178902E-20
  0.118584612616E-19
 -0.169406589451E-20
  0.118584612616E-19
  0.338813178902E-20
  0.169406589451E-20
 -0.101643953671E-19
 -0.508219768353E-20
 -0.677626357803E-20
  0.152465930506E-19
 -0.203287907341E-19
  0.101643953671E-19
 -0.508219768353E-20
 -0.169406589451E-19
 -0.508219768353E-20
  0.220228566286E-19
 -0.508219768353E-20
  0.847032947254E-20
  0.169406589451E-20
  0.135525271561E-19
  0.847032947254E-20
 -0.135525271561E-19
  0.220228566286E-19
 -0.135525271561E-19
 -0.406575814682E-19
  0.000000000000E+00
  0.135525271561E-19
  0.677626357803E-19
  0.000000000000E+00
 -0.813151629364E-19
  0.271050543121E-19
 -0.542101086243E-19
  0.108420217249E-18
  0.271050543121E-19
 -0.542101086243E-19
 -0.542101086243E-19
 -0.542101086243E-19
 -0.406575814682E-19
 -0.677626357803E-19
  0.121972744405E-18
 -0.406575814682E-19
  0.813151629364E-19
  0.121972744405E-18
  0.121972744405E-18
  0.000000000000E+00
  0.948676900925E-19
 -0.677626357803E-19
 -0.135525271561E-18
 -0.813151629364E-19
 -0.542101086243E-19
  0.208772312855E-05
 -0.164253518160E-05
 -0.420128341838E-18
  0.146590303774E-05
  0.542101086243E-19
 -0.772356060245E-05
 -0.522428811202E-07
  0.431123627607E-05
 -0.148573017841E-05
  0.869680024466E-06
 -0.284603070277E-18
 -0.135525271561E-18
  0.677626357803E-19
  0.813151629364E-19
 -0.891691144764E-06
 -0.542101086243E-19
 -0.311708124590E-18
  0.251640999614E-05
 -0.166234804254E-05
  0.251264099504E-05
 -0.842948611865E-06
 -0.135525271561E-19
 -0.162630325873E-18
  0.000000000000E+00
 -0.406575814682E-19
 -0.352365706058E-18
  0.108420217249E-18
  0.000000000000E+00
  0.406575814682E-19
  0.300850873448E-05
 -0.108420217249E-18
  0.103221249075E-05
  0.000000000000E+00
 -0.406575814682E-19
 -0.948676900925E-19
  0.118382123788E-05
  0.203287907341E-18
 -0.135525271561E-19
 -0.135525271561E-19
 -0.169131520028E-05
  0.135525271561E-19
 -0.135525271561E-18
 -0.117364316592E-05
 -0.948676900925E-19
  0.677626357803E-19
 -0.677626357803E-19
  0.813151629364E-19
  0.121972744405E-18
 -0.406575814682E-19
 -0.813151629364E-19
  0.677626357803E-19
 -0.813151629364E-19
 -0.121972744405E-18
 -0.243945488809E-18
  0.271050543121E-19
 -0.674003181570E-05
 -0.150896355700E-06
  0.257568400699E-05
  0.813151629364E-19
 -0.121972744405E-18
 -0.216840434497E-18
 -0.958459822297E-06
  0.271050543121E-19
  0.813151629364E-19
 -0.135525271561E-19
 -0.948676900925E-19
  0.274345578008E-05
 -0.365918233214E-18
 -0.948676900925E-19
 -0.677626357803E-19
  0.000000000000E+00
 -0.271050543121E-19
  0.123288865892E-05
  0.326650860389E-05
 -0.271050543121E-19
 -0.189735380185E-18
  0.108420217249E-18
 -0.216840434497E-18
 -0.271050543121E-19
  0.813151629364E-19
 -0.135525271561E-18
  0.542101086243E-19
 -0.162630325873E-18
  0.271050543121E-19
  0.298155597434E-18
 -0.271050543121E-19
  0.271050543121E-19
 -0.189735380185E-18
 -0.949904733660E-06
 -0.135525271561E-18
  0.508498676908E-06
 -0.243945488809E-18
  0.189735380185E-18
 -0.162630325873E-18
 -0.271050543121E-19
  0.000000000000E+00
 -0.162630325873E-18
  0.542101086243E-19
  0.352365706058E-18
  0.596311194867E-18
 -0.644727081947E-06
  0.000000000000E+00
 -0.110628075304E-05
 -0.406575814682E-18
 -0.150734831765E-06
  0.108420217249E-18
 -0.542101086243E-19
 -0.433680868994E-18
  0.273408988593E-05
 -0.135525271561E-18
 -0.623416249179E-18
  0.271050543121E-18
  0.731836466428E-18
  0.731836466428E-18
  0.867361737988E-18
  0.216840434497E-18
  0.298155597434E-18
 -0.542101086243E-18
  0.000000000000E+00
 -0.173989896997E-05
 -0.439426651297E-06
  0.151199213336E-05
 -0.261424445811E-06
  0.355234864165E-05
 -0.810783835996E-05
  0.108420217249E-18
  0.921571846613E-18
 -0.585870306831E-05
 -0.596311194867E-18
 -0.142868827275E-05
 -0.487890977618E-18
  0.596311194867E-18
  0.433680868994E-18
  0.650521303491E-18
  0.433680868994E-18
  0.867361737988E-18
  0.102999206386E-17
  0.271050543121E-18
 -0.102999206386E-17
  0.162630325873E-18
 -0.975781955237E-18
  0.704731412116E-18
  0.433680868994E-18
 -0.596311194867E-18
  0.596311194867E-18
  0.216840434497E-18
 -0.108420217249E-18
  0.162630325873E-18
 -0.542101086243E-19
 -0.758941520740E-18
  0.704731412116E-18
 -0.542101086243E-19
  0.704731412116E-18
  0.325260651746E-18
  0.487890977618E-18
  0.542101086243E-19
 -0.704731412116E-18
  0.325260651746E-18
 -0.487890977618E-18
  0.000000000000E+00
 -0.433680868994E-18
  0.162630325873E-18
 -0.813151629364E-18
  0.975781955237E-18
  0.325260651746E-18
 -0.542101086243E-19
  0.108420217249E-18
  0.433680868994E-18
  0.921571846613E-18
  0.108420217249E-18
 -0.168051336735E-17
  0.542101086243E-19
  0.108420217249E-18
 -0.542101086243E-19
  0.271050543121E-18
  0.271050543121E-18
  0.325260651746E-18
 -0.379470760370E-18
  0.813151629364E-18
 -0.487890977618E-18
 -0.271050543121E-18
  0.542101086243E-18
  0.867361737988E-18
  0.596311194867E-18
 -0.596311194867E-18
 -0.271050543121E-18
 -0.975781955237E-18
 -0.813151629364E-18
  0.178893358460E-17
  0.216840434497E-18
  0.325260651746E-18
  0.325260651746E-18
  0.542101086243E-18
 -0.433680868994E-18
  0.704731412116E-18
  0.000000000000E+00
  0.162630325873E-18
 -0.325260651746E-18
  0.119262238973E-17
 -0.542101086243E-19
 -0.650521303491E-18
 -0.542101086243E-19
  0.813151629364E-18
 -0.487890977618E-18
 -0.216840434497E-18
  0.162630325873E-18
 -0.325260651746E-18
 -0.433680868994E-18
  0.271050543121E-18
  0.271050543121E-18
  0.271050543121E-18
  0.243945488809E-17
 -0.758941520740E-18
 -0.487890977618E-18
 -0.596311194867E-18
 -0.433680868994E-18
 -0.379470760370E-18
  0.000000000000E+00
  0.379470760370E-18
  0.325260651746E-18
 -0.207031297277E-05
  0.433680868994E-18
 -0.162630325873E-18
  0.650521303491E-18
  0.379470760370E-18
  0.596311194867E-18
  0.130104260698E-17
 -0.168051336735E-17
 -0.271050543121E-18
  0.379470760370E-18
  0.162630325873E-18
  0.162630325873E-18
  0.271050543121E-18
  0.124683249836E-17
  0.271050543121E-18
 -0.162630325873E-18
  0.758941520740E-18
 -0.130104260698E-17
 -0.542101086243E-18
 -0.487890977618E-18
 -0.650521303491E-18
 -0.758941520740E-18
  0.867361737988E-18
  0.249366499672E-17
  0.487890977618E-18
  0.216840434497E-18
 -0.325260651746E-18
 -0.758941520740E-18
  0.650521303491E-18
  0.195156391047E-17
  0.000000000000E+00
 -0.433680868994E-18
 -0.433680868994E-18
  0.921571846613E-18
 -0.921571846613E-18
  0.108420217249E-18
  0.000000000000E+00
 -0.216840434497E-18
 -0.281892564846E-17
  0.216840434497E-18
 -0.542101086243E-19
 -0.433680868994E-18
  0.162630325873E-18
 -0.108420217249E-18
  0.216840434497E-18
  0.487890977618E-18
 -0.650521303491E-18
  0.379470760370E-18
  0.113841228111E-17
  0.108420217249E-17
  0.281892564846E-17
  0.102999206386E-17
 -0.433680868994E-18
 -0.271050543121E-18
 -0.130104260698E-17
  0.216840434497E-18
  0.542101086243E-18
 -0.108420217249E-18
  0.975781955237E-18
  0.433680868994E-18
  0.119262238973E-17
  0.650521303491E-18
  0.975781955237E-18
 -0.433680868994E-18
 -0.433680868994E-18
  0.433680868994E-18
  0.238524477947E-17
 -0.433680868994E-18
  0.216840434497E-18
  0.867361737988E-18
  0.108420217249E-18
  0.151788304148E-17
 -0.758941520740E-18
 -0.867361737988E-18
 -0.650521303491E-18
  0.542101086243E-18
 -0.151788304148E-17
 -0.130104260698E-17
  0.108420217249E-18
  0.184314369323E-17
  0.325260651746E-18
 -0.325260651746E-18
 -0.195156391047E-17
  0.119262238973E-17
  0.151788304148E-17
  0.216840434497E-18
  0.000000000000E+00
  0.195156391047E-17
 -0.867361737988E-18
 -0.542101086243E-18
 -0.108420217249E-17
  0.433680868994E-18
  0.650521303491E-18
  0.867361737988E-18
 -0.975781955237E-18
  0.108420217249E-17
  0.151788304148E-17
  0.758941520740E-18
  0.108420217249E-18
 -0.650521303491E-18
 -0.205998412772E-17
 -0.867361737988E-18
  0.216840434497E-18
  0.433680868994E-18
 -0.119262238973E-17
 -0.325260651746E-18
 -0.433680868994E-18
  0.000000000000E+00
 -0.227682456222E-17
  0.867361737988E-18
 -0.292734586571E-17
 -0.401154803820E-17
 -0.205998412772E-17
  0.119262238973E-17
  0.249366499672E-17
 -0.433680868994E-18
 -0.281892564846E-17
 -0.422838847269E-17
 -0.292734586571E-17
 -0.260208521397E-17
 -0.650521303491E-18
 -0.195156391047E-17
  0.650521303491E-18
  0.975781955237E-18
 -0.216840434497E-18
  0.260208521397E-17
 -0.260208521397E-17
  0.184314369323E-17
 -0.303576608296E-17
 -0.758941520740E-18
  0.238524477947E-17
  0.000000000000E+00
  0.151788304148E-17
 -0.281892564846E-17
  0.173472347598E-17
  0.108420217249E-18
  0.260208521397E-17
 -0.542101086243E-18
  0.650521303491E-18
  0.368628738645E-17
 -0.108420217249E-18
  0.173472347598E-17
  0.455364912444E-17
 -0.758941520740E-18
  0.325260651746E-18
  0.227682456222E-17
 -0.249366499672E-17
 -0.108420217249E-18
 -0.433680868994E-18
  0.130104260698E-17
 -0.130104260698E-17
 -0.173386724072E-06
  0.444522890719E-17
  0.184314369323E-17
  0.216840434497E-18
  0.205998412772E-17
 -0.542101086243E-18
 -0.140946282423E-17
 -0.433680868994E-18
 -0.509575021068E-17
 -0.336102673471E-17
 -0.346944695195E-17
  0.325260651746E-18
 -0.108420217249E-18
  0.162630325873E-17
  0.498732999343E-17
 -0.379470760370E-17
 -0.108420217249E-16
  0.650521303491E-18
 -0.780625564190E-17
 -0.292734586571E-17
  0.151788304148E-17
 -0.216840434497E-18
 -0.542101086243E-18
 -0.487890977618E-17
 -0.260208521397E-17
  0.184931747339E-04
  0.303576608296E-17
  0.379470760370E-17
  0.108420217249E-18
 -0.336102673471E-17
 -0.195156391047E-17
  0.216840434497E-18
  0.216840434497E-17
 -0.108420217249E-18
 -0.281892564846E-17
  0.162630325873E-17
 -0.292734586571E-17
  0.650521303491E-18
  0.303576608296E-17
 -0.650521303491E-18
  0.205998412772E-17
 -0.650521303491E-18
 -0.205998412772E-17
 -0.140946282423E-17
 -0.758941520740E-18
  0.184314369323E-17
  0.628837260042E-17
  0.477048955894E-17
 -0.325260651746E-18
 -0.205998412772E-17
  0.542101086243E-18
  0.748099499015E-17
  0.910729824888E-17
  0.325260651746E-18
 -0.433680868994E-17
 -0.205998412772E-17
 -0.260208521397E-17
  0.108420217249E-17
  0.433680868994E-17
 -0.325260651746E-18
  0.498732999343E-17
  0.177809156288E-16
  0.184314369323E-17
 -0.108420217249E-18
 -0.271050543121E-17
 -0.607153216592E-17
  0.683047368666E-17
  0.617995238317E-17
  0.108420217249E-17
  0.639679281766E-17
 -0.195156391047E-17
  0.000000000000E+00
 -0.325260651746E-18
 -0.433680868994E-18
 -0.325260651746E-17
  0.943255890062E-17
  0.975781955237E-18
 -0.899887803163E-17
 -0.346944695195E-17
  0.531259064518E-17
 -0.693889390391E-17
 -0.162630325873E-17
 -0.314418630021E-17
  0.249366499672E-17
 -0.379470760370E-17
  0.650521303491E-18
 -0.281892564846E-17
  0.151788304148E-17
 -0.422838847269E-17
 -0.639679281766E-17
  0.823993651089E-17
  0.173472347598E-17
  0.111672823766E-16
  0.110588621594E-16
  0.346944695195E-17
 -0.151788304148E-17
  0.140946282423E-17
 -0.336102673471E-17
 -0.921571846613E-17
  0.650521303491E-17
 -0.715573433840E-17
  0.715573433840E-17
  0.119262238973E-17
 -0.650521303491E-18
 -0.119262238973E-16
 -0.140946282423E-17
 -0.142030484596E-16
 -0.148535697631E-16
 -0.116009632456E-16
  0.137693675906E-16
  0.325260651746E-18
 -0.726415455565E-17
 -0.889045781438E-17
 -0.281892564846E-17
  0.357786716920E-17
  0.466206934169E-17
 -0.131188462871E-16
  0.433680868994E-17
 -0.113841228111E-16
  0.123599047663E-16
  0.151788304148E-17
 -0.791467585914E-17
 -0.726415455565E-17
  0.867361737988E-18
 -0.162630325873E-16
  0.433680868994E-17
  0.260208521397E-17
  0.954097911787E-17
  0.303576608296E-16
 -0.910729824888E-17
  0.281892564846E-17
  0.748099499015E-17
  0.650521303491E-18
  0.108420217249E-17
 -0.585469173142E-17
  0.249366499672E-17
  0.433680868994E-17
 -0.715573433840E-17
  0.639679281766E-17
 -0.173472347598E-17
 -0.249366499672E-17
 -0.253703308362E-16
 -0.542101086243E-18
 -0.119262238973E-17
  0.780625564190E-17
 -0.878203759713E-17
 -0.323092247401E-16
  0.100830802041E-16
  0.170219741080E-16
 -0.552943107968E-17