# vtk DataFile Version 3.0
MachLine results file. Generated by MachLine, USU AeroLab (c) 2022.
ASCII
DATASET POLYDATA
POINTS                4902 float
  0.111545794163E-05 -0.773795221435E-22 -0.281380080522E-22
  0.101010148637E+00 -0.845717903740E-08  0.894291592205E-02
  0.101010148637E+00  0.112083617936E-02  0.887239941830E-02
  0.101010148637E+00  0.222400455957E-02  0.866195987589E-02
  0.101010148637E+00  0.329209905974E-02  0.831491605217E-02
  0.101010148637E+00  0.430827519156E-02  0.783674103521E-02
  0.101010148637E+00  0.525650724931E-02  0.723497593058E-02
  0.101010148637E+00  0.612184104794E-02  0.651911093351E-02
  0.101010148637E+00  0.689062975554E-02  0.570043566333E-02
  0.101010148637E+00  0.755074911633E-02  0.479186111707E-02
  0.101010148637E+00  0.809178865250E-02  0.380771605791E-02
  0.101010148637E+00  0.850521584809E-02  0.276352104231E-02
  0.101010148637E+00  0.878451070913E-02  0.167574364853E-02
  0.101010148637E+00  0.892526858915E-02  0.561538777311E-03
  0.101010148637E+00  0.892526965121E-02 -0.561521896329E-03
  0.101010148637E+00  0.878451387857E-02 -0.167572703377E-02
  0.101010148637E+00  0.850522107492E-02 -0.276350495580E-02
  0.101010148637E+00  0.809179585428E-02 -0.380770075334E-02
  0.101010148637E+00  0.755075817949E-02 -0.479184683580E-02
  0.101010148637E+00  0.689064053715E-02 -0.570042263059E-02
  0.101010148637E+00  0.612185337797E-02 -0.651909935483E-02
  0.101010148637E+00  0.525652093331E-02 -0.723496598857E-02
  0.101010148637E+00  0.430829001373E-02 -0.783673288665E-02
  0.101010148637E+00  0.329211478631E-02 -0.831490982558E-02
  0.101010148637E+00  0.222402094254E-02 -0.866195566946E-02
  0.101010148637E+00  0.112085296034E-02 -0.887239729837E-02
  0.101010148637E+00  0.845717903452E-08 -0.894291592205E-02
  0.101010148637E+00 -0.112083617936E-02 -0.887239941830E-02
  0.101010148637E+00 -0.222400455957E-02 -0.866195987589E-02
  0.101010148637E+00 -0.329209905974E-02 -0.831491605217E-02
  0.101010148637E+00 -0.430827519156E-02 -0.783674103521E-02
  0.101010148637E+00 -0.525650724931E-02 -0.723497593058E-02
  0.101010148637E+00 -0.612184104794E-02 -0.651911093351E-02
  0.101010148637E+00 -0.689062975554E-02 -0.570043566333E-02
  0.101010148637E+00 -0.755074911633E-02 -0.479186111707E-02
  0.101010148637E+00 -0.809178865250E-02 -0.380771605791E-02
  0.101010148637E+00 -0.850521584809E-02 -0.276352104231E-02
  0.101010148637E+00 -0.878451070913E-02 -0.167574364853E-02
  0.101010148637E+00 -0.892526858915E-02 -0.561538777311E-03
  0.101010148637E+00 -0.892526965121E-02  0.561521896329E-03
  0.101010148637E+00 -0.878451387857E-02  0.167572703377E-02
  0.101010148637E+00 -0.850522107492E-02  0.276350495580E-02
  0.101010148637E+00 -0.809179585428E-02  0.380770075334E-02
  0.101010148637E+00 -0.755075817949E-02  0.479184683580E-02
  0.101010148637E+00 -0.689064053715E-02  0.570042263059E-02
  0.101010148637E+00 -0.612185337797E-02  0.651909935483E-02
  0.101010148637E+00 -0.525652093331E-02  0.723496598857E-02
  0.101010148637E+00 -0.430829001373E-02  0.783673288665E-02
  0.101010148637E+00 -0.329211478631E-02  0.831490982558E-02
  0.101010148637E+00 -0.222402094254E-02  0.866195566946E-02
  0.101010148637E+00 -0.112085296034E-02  0.887239729837E-02
  0.202020243193E+00 -0.354274922533E-11  0.149252544487E-01
  0.202020243193E+00  0.187063039842E-02  0.148075643647E-01
  0.202020243193E+00  0.371175984227E-02  0.144563501390E-01
  0.202020243193E+00  0.549435261553E-02  0.138771506341E-01
  0.202020243193E+00  0.719029616548E-02  0.130791001823E-01
  0.202020243193E+00  0.877284444995E-02  0.120747845033E-01
  0.202020243193E+00  0.102170397412E-01  0.108800422535E-01
  0.202020243193E+00  0.115001062071E-01  0.951371524309E-02
  0.202020243193E+00  0.126018091283E-01  0.799735125966E-02
  0.202020243193E+00  0.135047739952E-01  0.635486427024E-02
  0.202020243193E+00  0.141947605012E-01  0.461215727422E-02
  0.202020243193E+00  0.146608871613E-01  0.279671380284E-02
  0.202020243193E+00  0.148958028738E-01  0.937164484664E-03
  0.202020243193E+00  0.148958028742E-01 -0.937164477593E-03
  0.202020243193E+00  0.146608871626E-01 -0.279671379588E-02
  0.202020243193E+00  0.141947605034E-01 -0.461215726748E-02
  0.202020243193E+00  0.135047739983E-01 -0.635486426382E-02
  0.202020243193E+00  0.126018091321E-01 -0.799735125368E-02
  0.202020243193E+00  0.115001062116E-01 -0.951371523763E-02
  0.202020243193E+00  0.102170397463E-01 -0.108800422486E-01
  0.202020243193E+00  0.877284445568E-02 -0.120747844991E-01
  0.202020243193E+00  0.719029617169E-02 -0.130791001789E-01
  0.202020243193E+00  0.549435262212E-02 -0.138771506315E-01
  0.202020243193E+00  0.371175984913E-02 -0.144563501373E-01
  0.202020243193E+00  0.187063040545E-02 -0.148075643638E-01
  0.202020243193E+00  0.354274442487E-11 -0.149252544487E-01
  0.202020243193E+00 -0.187063039842E-02 -0.148075643647E-01
  0.202020243193E+00 -0.371175984227E-02 -0.144563501390E-01
  0.202020243193E+00 -0.549435261553E-02 -0.138771506341E-01
  0.202020243193E+00 -0.719029616548E-02 -0.130791001823E-01
  0.202020243193E+00 -0.877284444995E-02 -0.120747845033E-01
  0.202020243193E+00 -0.102170397412E-01 -0.108800422535E-01
  0.202020243193E+00 -0.115001062071E-01 -0.951371524309E-02
  0.202020243193E+00 -0.126018091283E-01 -0.799735125966E-02
  0.202020243193E+00 -0.135047739952E-01 -0.635486427024E-02
  0.202020243193E+00 -0.141947605012E-01 -0.461215727422E-02
  0.202020243193E+00 -0.146608871613E-01 -0.279671380284E-02
  0.202020243193E+00 -0.148958028738E-01 -0.937164484664E-03
  0.202020243193E+00 -0.148958028742E-01  0.937164477593E-03
  0.202020243193E+00 -0.146608871626E-01  0.279671379588E-02
  0.202020243193E+00 -0.141947605034E-01  0.461215726748E-02
  0.202020243193E+00 -0.135047739983E-01  0.635486426382E-02
  0.202020243193E+00 -0.126018091321E-01  0.799735125368E-02
  0.202020243193E+00 -0.115001062116E-01  0.951371523763E-02
  0.202020243193E+00 -0.102170397463E-01  0.108800422486E-01
  0.202020243193E+00 -0.877284445568E-02  0.120747844991E-01
  0.202020243193E+00 -0.719029617169E-02  0.130791001789E-01
  0.202020243193E+00 -0.549435262212E-02  0.138771506315E-01
  0.202020243193E+00 -0.371175984913E-02  0.144563501373E-01
  0.202020243193E+00 -0.187063040545E-02  0.148075643638E-01
  0.303030339339E+00 -0.190862155350E-11  0.200733722907E-01
  0.303030339339E+00  0.251586065599E-02  0.199150877556E-01
  0.303030339339E+00  0.499204468754E-02  0.194427303866E-01
  0.303030339339E+00  0.738950119295E-02  0.186637495453E-01
  0.303030339339E+00  0.967042085007E-02  0.175904302327E-01
  0.303030339339E+00  0.117988321970E-01  0.162396993162E-01
  0.303030339339E+00  0.137411689072E-01  0.146328586498E-01
  0.303030339339E+00  0.154667991751E-01  0.127952490566E-01
  0.303030339339E+00  0.169485087777E-01  0.107558507437E-01
  0.303030339339E+00  0.181629302781E-01  0.854682623425E-02
  0.303030339339E+00  0.190909115221E-01  0.620301317348E-02
  0.303030339339E+00  0.197178176765E-01  0.376137488916E-02
  0.303030339339E+00  0.200337620707E-01  0.126041747641E-02
  0.303030339339E+00  0.200337620710E-01 -0.126041747260E-02
  0.303030339339E+00  0.197178176772E-01 -0.376137488541E-02
  0.303030339339E+00  0.190909115233E-01 -0.620301316985E-02
  0.303030339339E+00  0.181629302797E-01 -0.854682623080E-02
  0.303030339339E+00  0.169485087797E-01 -0.107558507405E-01
  0.303030339339E+00  0.154667991775E-01 -0.127952490536E-01
  0.303030339339E+00  0.137411689100E-01 -0.146328586471E-01
  0.303030339339E+00  0.117988322001E-01 -0.162396993139E-01
  0.303030339339E+00  0.967042085341E-02 -0.175904302308E-01
  0.303030339339E+00  0.738950119650E-02 -0.186637495439E-01
  0.303030339339E+00  0.499204469123E-02 -0.194427303857E-01
  0.303030339339E+00  0.251586065978E-02 -0.199150877552E-01
  0.303030339339E+00  0.190861509729E-11 -0.200733722907E-01
  0.303030339339E+00 -0.251586065599E-02 -0.199150877556E-01
  0.303030339339E+00 -0.499204468754E-02 -0.194427303866E-01
  0.303030339339E+00 -0.738950119295E-02 -0.186637495453E-01
  0.303030339339E+00 -0.967042085007E-02 -0.175904302327E-01
  0.303030339339E+00 -0.117988321970E-01 -0.162396993162E-01
  0.303030339339E+00 -0.137411689072E-01 -0.146328586498E-01
  0.303030339339E+00 -0.154667991751E-01 -0.127952490566E-01
  0.303030339339E+00 -0.169485087777E-01 -0.107558507437E-01
  0.303030339339E+00 -0.181629302781E-01 -0.854682623425E-02
  0.303030339339E+00 -0.190909115221E-01 -0.620301317348E-02
  0.303030339339E+00 -0.197178176765E-01 -0.376137488916E-02
  0.303030339339E+00 -0.200337620707E-01 -0.126041747641E-02
  0.303030339339E+00 -0.200337620710E-01  0.126041747260E-02
  0.303030339339E+00 -0.197178176772E-01  0.376137488541E-02
  0.303030339339E+00 -0.190909115233E-01  0.620301316985E-02
  0.303030339339E+00 -0.181629302797E-01  0.854682623080E-02
  0.303030339339E+00 -0.169485087797E-01  0.107558507405E-01
  0.303030339339E+00 -0.154667991775E-01  0.127952490536E-01
  0.303030339339E+00 -0.137411689100E-01  0.146328586471E-01
  0.303030339339E+00 -0.117988322001E-01  0.162396993139E-01
  0.303030339339E+00 -0.967042085341E-02  0.175904302308E-01
  0.303030339339E+00 -0.738950119650E-02  0.186637495439E-01
  0.303030339339E+00 -0.499204469123E-02  0.194427303857E-01
  0.303030339339E+00 -0.251586065978E-02  0.199150877552E-01
  0.404040437180E+00 -0.125996311440E-11  0.247124997964E-01
  0.404040437180E+00  0.309729750761E-02  0.245176343485E-01
  0.404040437180E+00  0.614574878445E-02  0.239361111711E-01
  0.404040437180E+00  0.909727793176E-02  0.229771012148E-01
  0.404040437180E+00  0.119053375735E-01  0.216557286494E-01
  0.404040437180E+00  0.145256429278E-01  0.199928323105E-01
  0.404040437180E+00  0.169168702155E-01  0.180146370597E-01
  0.404040437180E+00  0.190413083547E-01  0.157523402173E-01
  0.404040437180E+00  0.208654536853E-01  0.132416195573E-01
  0.404040437180E+00  0.223605383529E-01  0.105220706544E-01
[...]
POINT_DATA                4902
SCALARS phi float 1
LOOKUP_TABLE default
 -0.587629107158E-20
  0.130104260698E-16
 -0.346944695195E-17
 -0.182791058171E+00
 -0.336222042163E+00
 -0.297473552303E+00
 -0.161700776969E+00
 -0.866935970538E-01
 -0.732986631251E-01
 -0.802309607639E-15
  0.896721180411E-01
  0.111961545954E+00
  0.871822418960E-01
  0.906691914052E-01
  0.696996297618E-01
 -0.663592924020E-02
 -0.537770932984E-01
 -0.929346061387E-02
  0.374287998343E-01
  0.144372578944E-01
 -0.141919583632E-01
  0.650733833919E-08
  0.183882978986E-01
  0.130477838578E-01
  0.241250650620E-01
  0.103601611189E-01
 -0.731335582927E-01
 -0.170815095344E+00
 -0.158790760336E+00
 -0.780235124329E-01
 -0.983588210879E-15
  0.936793991032E-01
  0.252848931696E+00
  0.333838338382E+00
  0.219852671080E+00
 -0.401215728040E-02
 -0.145643613610E+00
 -0.187157897005E+00
 -0.153981509227E+00
 -0.599270345326E-08
  0.286440441732E+00
  0.522246800038E+00
  0.544657306609E+00
  0.393510097993E+00
  0.190483392811E+00
 -0.461425989341E-02
 -0.145043791541E+00
 -0.168690020380E+00
 -0.724176746639E-01
 -0.314724316361E-01
  0.224013787895E-01
 -0.281892564846E-15
 -0.118828558104E-15
 -0.559448321003E-15
  0.536029554077E-15
  0.547305256671E-15
 -0.588071258356E-15
  0.359087759527E-15
 -0.133573707650E-15
 -0.910729824888E-16
 -0.641847686111E-16
 -0.832667268469E-16
  0.349546780409E-15
 -0.121430643318E-16
 -0.355618312575E-16
 -0.155257751100E-15
  0.266280053562E-15
 -0.328730098698E-15
  0.607153216592E-16
  0.189952220619E-15
 -0.902056207508E-16
  0.124032728532E-15
 -0.164798730218E-16
  0.858688120609E-16
  0.607153216592E-17
 -0.182145964978E-15
  0.260208521397E-17
 -0.340005801291E-15
  0.247198095327E-15
 -0.125767452008E-15
  0.537764277553E-15
 -0.170002900646E-15
 -0.451028103754E-16
 -0.876035355368E-16
 -0.158727198052E-15
  0.145716771982E-15
  0.332199545650E-15
  0.369496100383E-15
  0.152655665886E-15
  0.121430643318E-16
 -0.470977423728E-15
 -0.127502175484E-15
 -0.162196645004E-15
  0.642715047849E-15
 -0.173472347598E-17
 -0.326995375222E-15
  0.780625564190E-16
 -0.820524204137E-15
 -0.657460197395E-15
  0.137043154602E-15
  0.303576608296E-16
 -0.426741975090E-15
  0.182926590542E-14
  0.127762384006E-14
  0.145283091113E-14
  0.125854188182E-14
 -0.826595736303E-15
 -0.679065308804E+00
 -0.283280343627E-14
  0.124206200880E-14
 -0.612357387020E-15
  0.181972492630E-14
  0.511743425413E-16
 -0.531692745387E-15
  0.148665801891E-14
 -0.387710696881E-15
 -0.185615411930E-15
 -0.363424568217E-15
  0.433680868994E-16
  0.112149872722E-14
 -0.114491749414E-15
 -0.308780778724E-15
  0.369496100383E-15
 -0.314852310890E-15
  0.137043154602E-15
  0.268882138776E-16
  0.130104260698E-15
 -0.110154940725E-15
 -0.678276879107E-15
 -0.289698820488E-15
  0.818789480661E-15
 -0.148318857196E-15
 -0.309648140462E-15
  0.364291929955E-15
 -0.135134958779E-14
 -0.169135538908E-14
 -0.360822483003E-15
  0.102695629778E-14
  0.716440795578E-15
  0.151788304148E-14
  0.148752538065E-14
 -0.136782946081E-14
  0.117787724019E-14
  0.256392129749E-14
 -0.153869972319E-14
  0.112323345069E-14
 -0.805779054591E-15
  0.240519409944E-14
 -0.148145384848E-14
  0.125680715835E-14
  0.130104260698E-15
  0.196023752785E-14
 -0.177115266897E-14
  0.114144804719E-14
 -0.988792381307E-16
 -0.116053000543E-14
 -0.342607886505E-14
 -0.117093834628E-14
  0.206085148946E-14
 -0.168962066560E-14
 -0.239391839685E-15
  0.206432093641E-15
 -0.626235174828E-15
  0.278423117894E-14
 -0.468375338514E-16
  0.182839854368E-14
  0.161329283266E-15
 -0.291433543964E-15
 -0.227248775353E-15
  0.647051856539E-15
  0.191513471748E-14
 -0.103042574473E-14
  0.829197821517E-15
  0.830932544993E-15
 -0.955832635263E-15
  0.102001740387E-14
 -0.111022302463E-15
 -0.572458747072E-15
 -0.398986399475E-16
  0.451028103754E-15
  0.190819582357E-16
  0.275821032680E-15
 -0.270616862252E-15
 -0.211462791722E-14
  0.832667268469E-15
 -0.155257751100E-14
  0.843075609325E-15
  0.830932544993E-15
  0.204870842513E-14
 -0.929811783124E-15
  0.818789480661E-15
  0.351108031538E-14
 -0.641847686111E-16
  0.686950496487E-15
 -0.919403442268E-15
  0.100613961607E-15
 -0.608887940068E-15
 -0.108420217249E-14
 -0.243555176027E-14
  0.143635103811E-14
  0.238524477947E-14
  0.245463371851E-14
  0.326648430526E-14
 -0.223432383706E-14
  0.112757025938E-14
 -0.162023172656E-14
 -0.416333634234E-15
 -0.150053580672E-14
 -0.136869682255E-14
 -0.638378239159E-15
 -0.758074159002E-15
 -0.681746326059E-15
  0.114838694110E-14
 -0.704297731247E-15
  0.919403442268E-15
  0.907260377936E-15
  0.166533453694E-14
  0.164625257870E-14
 -0.895117313604E-15
 -0.102175212735E-14
  0.238177533252E-14
  0.612357387020E-15
  0.104950770297E-14
  0.204003480775E-14
 -0.815320033709E-15
 -0.451028103754E-16
 -0.390312782095E-15
  0.459701721134E-15
  0.352148865623E-15
 -0.227248775353E-15
 -0.615826833972E-15
  0.685215773011E-15
 -0.374700270811E-15
  0.438885039422E-15
  0.110328413072E-14
 -0.627969898304E-15
 -0.780625564190E-16
 -0.765013052906E-15
  0.144502465549E-14
 -0.785829734617E-15
  0.391180143833E-14
 -0.336015937297E-14
 -0.374179853768E-14
 -0.288831458750E-14
 -0.125420507313E-14
  0.207819872422E-14
  0.392567922614E-14
 -0.213370987545E-15
 -0.109634523682E-14
 -0.444089209850E-14
 -0.174166236988E-14
 -0.150383178132E-13
  0.670644095813E-14
 -0.777676534280E-14
 -0.491273688397E-14
 -0.653643805748E-14
 -0.983588210879E-15
  0.241126563161E-15
 -0.143635103811E-14
 -0.390486254442E-14
 -0.312076753328E-14
 -0.246157261241E-14
 -0.177809156288E-14
  0.511743425413E-15
 -0.101307850997E-14
 -0.160982338571E-14
  0.207646400074E-14
 -0.280157841370E-14
  0.360995955351E-14
 -0.195329863395E-14
 -0.547478729018E-14
  0.370536934469E-14
  0.366200125779E-14
 -0.678276879107E-15
  0.269402555819E-14
  0.396731258956E-14
 -0.189431803577E-14
  0.234187669257E-15
  0.346771222848E-14
  0.140512601554E-15
  0.981853487403E-15
  0.431946145518E-15
  0.180411241502E-15
  0.135308431126E-15
  0.171737624122E-14
  0.112757025938E-15
 -0.308780778724E-15
 -0.275127143290E-14
  0.121430643318E-16
 -0.954097911787E-16
 -0.236269337428E-14
  0.604030714335E-14
 -0.588071258356E-15
  0.305311331772E-15
 -0.153176082929E-14
 -0.109998815612E-13
 -0.547825673713E-14
 -0.162196645004E-14
  0.366720542821E-14
 -0.541233724505E-15
 -0.541754141548E-14
  0.103840547272E-13
 -0.244596010113E-15
 -0.407486544507E-14
 -0.459354776439E-14
  0.500814667515E-14
  0.848626724448E-14
 -0.653470333400E-14
 -0.311556336285E-14
 -0.294902990916E-15
  0.303576608296E-15
  0.176941794550E-14
  0.526141630264E-14
 -0.145022882592E-14
 -0.685215773011E-15
  0.111195774810E-14
 -0.426048085700E-14
  0.236616282123E-14
 -0.815320033709E-16
  0.143808576158E-14
 -0.152655665886E-14
 -0.503069808033E-16
  0.129236898960E-14
  0.209381123550E-14
  0.108246744901E-14
  0.125420507313E-14
 -0.560315682741E-15
  0.131665511827E-14
 -0.320923843056E-15
  0.121083698623E-14
 -0.102348685083E-14
 -0.562050406216E-15
  0.673072708679E-15
  0.936750677027E-16
 -0.383373888191E-15
  0.957567358739E-15
 -0.530825383649E-15
 -0.140512601554E-14
  0.652256026967E-15
  0.159074142747E-14
 -0.340005801291E-15
 -0.688685219963E-15
  0.553376788837E-15
  0.235575448038E-14
 -0.219269047363E-14
 -0.993996551735E-15
  0.711236625150E-16
  0.385975973405E-14
 -0.101481323345E-14
  0.176768322202E-14
  0.489192020225E-15
 -0.770217223334E-15
 -0.213544459893E-14
 -0.524927323831E-14
  0.126877675033E-13
  0.448946435583E-14
 -0.112583553591E-13
  0.896331620037E-14
 -0.826595736303E-14
 -0.171911096469E-14
 -0.453803661316E-14
 -0.395516952523E-15
  0.219442519711E-14
 -0.299586744301E-14
 -0.641327269069E-14
 -0.943689570931E-15
 -0.458834359396E-14
 -0.343128303548E-14
  0.279810896675E-14
 -0.664052146604E-14
  0.134180860867E-13
 -0.275821032680E-15
  0.163757896132E-14
  0.501508556905E-14
 -0.423446000486E-14
  0.221350715535E-14
 -0.498559526996E-14
  0.114491749414E-14
  0.174686654031E-14
 -0.190819582357E-14
  0.465079363909E-14
 -0.271137279295E-14
  0.744196371194E-15
 -0.207299455379E-14
  0.327862736960E-14
  0.385108611667E-15
 -0.279290479632E-15
  0.116226472890E-14
 -0.158380253357E-14
  0.393955701394E-14
 -0.353016227361E-14
  0.383720832886E-14
  0.397251675999E-14
 -0.791033905045E-15
  0.426741975090E-14
 -0.106338549077E-14
  0.506539254985E-15
 -0.626582119523E-14
 -0.106737535477E-13
  0.133469624242E-13
 -0.630225038822E-14
  0.216840434497E-15
 -0.877770078844E-14
 -0.232452945781E-15
 -0.942301792151E-14
 -0.404884459293E-14
  0.429344060304E-14
  0.128144023170E-13
 -0.298892854911E-14
 -0.109131453874E-13
  0.106043646086E-13
 -0.316760506713E-14
 -0.483293960407E-14
 -0.885923279181E-14
  0.324740234703E-14
  0.100613961607E-14
  0.100613961607E-14
 -0.150920942410E-15
  0.468375338514E-15
 -0.563958602040E-14
 -0.355444840228E-14
  0.425007251614E-14
  0.692154666915E-15
  0.205217787208E-14
  0.160288449180E-14
  0.490926743701E-15
 -0.515733289408E-14
 -0.152655665886E-15
  0.165839564303E-14
 -0.415292800149E-14
  0.128543009570E-14
 -0.555978874051E-14
  0.123859256185E-14
  0.282933398932E-14
 -0.156125112838E-15
 -0.302188829515E-14
  0.392047505571E-15
 -0.147451495458E-15
  0.102869102125E-14
  0.693889390391E-15
 -0.102695629778E-14
 -0.542101086243E-14
  0.188911386534E-14
 -0.214585293978E-14
  0.123998034063E-13
 -0.807687250415E-14
  0.222565021968E-14
 -0.338444550163E-14
  0.643235464892E-14
  0.661276589042E-14
 -0.291780488659E-14
  0.132185928869E-13
  0.698052726733E-14
  0.746798456408E-14
  0.152378110130E-13
  0.481559236931E-14
  0.536029554077E-15
 -0.175519321299E-13
  0.517693526936E-13
 -0.694062862738E-14
 -0.507528047367E-13
  0.131283872662E-13
 -0.180966353014E-13
 -0.415709133783E-13
  0.284147705365E-14
  0.280331313718E-13
 -0.389323989713E-13
  0.124344978758E-13
 -0.148821927004E-13
 -0.478263262327E-14
  0.611316552934E-14
  0.168424302283E-13
 -0.153817930615E-13
  0.306768499492E-13
 -0.904484820374E-14
 -0.160982338571E-14
  0.180411241502E-15
 -0.750163819951E-13
  0.265412691824E-14
 -0.269784194984E-13
  0.474446870680E-14
  0.135967626047E-13
  0.716267323231E-14
 -0.326821902874E-14
 -0.256478865923E-13
  0.493702301263E-14
  0.667868538251E-14
  0.121777588014E-14
  0.528049826087E-14
 -0.909515518455E-14
  0.624673923699E-14
 -0.752869988574E-15
 -0.532039690082E-14
 -0.152221985017E-13
  0.310342029852E-14
  0.150573997715E-14
 -0.603336824945E-14
  0.112861109347E-13
  0.603336824945E-14
  0.172951930555E-14
 -0.890086615524E-14
 -0.520417042793E-16
  0.127831772945E-13
  0.471150896075E-14
 -0.804738220506E-14
  0.203136119037E-13
  0.641674213764E-14
  0.520763987488E-14
  0.240363284831E-13
 -0.110328413072E-13
  0.140339129207E-14
 -0.132116539930E-13
 -0.420843915272E-14
  0.264163690922E-13
  0.910903297235E-14
  0.186101134503E-13
 -0.275838379915E-13
 -0.318824827650E-13
  0.840959246684E-13
 -0.352651935431E-13
 -0.381639164715E-16
  0.308780778724E-15
  0.276514922071E-14
  0.918709552877E-14
  0.220570089970E-13
 -0.228601859664E-13
 -0.229156971177E-14
 -0.298025493173E-14
 -0.527529409045E-14
  0.571764857682E-14
 -0.114422360475E-13
  0.126808286094E-14
  0.138934003191E-13
  0.453803661316E-14
 -0.170558012158E-13
  0.784615428184E-14
  0.588418203051E-14
  0.478089789979E-14
  0.881239525796E-15
  0.511569953066E-14
 -0.398986399475E-16
  0.117267306976E-14
  0.486069517969E-14
  0.371352254502E-13
 -0.273739364509E-14
  0.850881864967E-14
 -0.174530528918E-13
 -0.314678838542E-14
 -0.357699980746E-14
 -0.313811476804E-14
 -0.113156012338E-13
 -0.116399945238E-13
  0.344082401460E-13
 -0.120441850937E-13
  0.182754852918E-12
  0.115428500091E-13
  0.157842489079E-13
  0.204575939522E-13
 -0.339277217432E-13
 -0.186135828972E-14
  0.626582119523E-14
 -0.872392436069E-14
  0.834748936640E-14
  0.120828694272E-12
 -0.153748541676E-13
 -0.194011473553E-13
 -0.137650307819E-13
 -0.453127119160E-13
 -0.510650549623E-13
  0.300263286457E-13
 -0.193595139919E-14
 -0.984091280687E-13
  0.398119037737E-13
 -0.742461647718E-15
  0.312701253780E-13
 -0.590326398875E-14
  0.434895175427E-14
 -0.117683640610E-13
  0.143773881689E-13
  0.577662917500E-14
 -0.106546715894E-13
 -0.159646601494E-13
  0.246747067223E-13
 -0.306872582900E-13
 -0.516878206902E-13
 -0.672725763984E-14
  0.372878811161E-13
 -0.589875370771E-13
 -0.199458505268E-13
  0.372098185597E-14
 -0.874300631892E-14
 -0.733926808216E-13
  0.231585584043E-14
  0.124362325993E-13
 -0.983414738531E-14
 -0.515386344713E-14
  0.362210261784E-14
 -0.206935163449E-13
 -0.329770932783E-14
 -0.163619118254E-13
  0.216267975750E-13
  0.362904151174E-13
 -0.204055522479E-13
  0.271224015469E-13
 -0.315563547515E-13
 -0.194341071014E-13
  0.404207917137E-13
 -0.867361737988E-17
 -0.344689554677E-13
  0.814452671971E-14
  0.256461518688E-13
 -0.561824892165E-13
  0.264736149669E-13
 -0.296464242044E-13
 -0.113815207259E-13
  0.982287168272E-13
 -0.153023427263E-12
  0.553394136071E-13
 -0.428945073905E-13
 -0.108931960674E-12
 -0.218176171574E-13
 -0.644623243673E-14
 -0.385594334240E-13
  0.273739364509E-14
  0.162994617803E-13
  0.184973564243E-13
 -0.489799173442E-13
  0.756859852569E-14
  0.535682609382E-14
 -0.343267081426E-13
 -0.129930788351E-13
 -0.332997518449E-13
 -0.262116717220E-13
 -0.281025203108E-15
  0.814452671971E-14
 -0.264789926097E-12
  0.240779618466E-13
  0.871178129636E-14
 -0.265308608416E-13
  0.505775976656E-13
  0.318425841250E-13
 -0.109079412169E-13
 -0.152655665886E-13
  0.457082288685E-13
 -0.150070927907E-13
  0.330221960887E-13
 -0.501383656815E-12
 -0.618706474942E-13
  0.169447789133E-13
 -0.956873469349E-14
 -0.525517129812E-13
  0.323959609139E-13
  0.255073739908E-13
  0.461818083775E-13
  0.810219946690E-13
  0.684521883620E-14
  0.838044911244E-14
 -0.178468351208E-13
  0.464055877059E-13
  0.339294564666E-13
  0.693958779330E-13
  0.288814111515E-13
  0.263018773428E-13
  0.485011336648E-13
  0.159563334767E-12
  0.703066077579E-13
  0.143846740075E-12
 -0.465062016675E-13
 -0.234170322022E-13
 -0.181157172596E-13
  0.125429180931E-12
 -0.233875419031E-13
 -0.850014503229E-15
  0.546247075350E-13
 -0.503971864241E-13
  0.309526709819E-13
  0.448217851723E-13
 -0.473284605951E-13
  0.426308294221E-13
  0.170818220679E-13
 -0.713196862678E-13
 -0.520174181506E-13
 -0.302882718906E-13
  0.357422424990E-13
 -0.784971046497E-12
  0.267650485108E-13
  0.270998501417E-13
  0.138639100200E-13
  0.203930622389E-12
 -0.114000822671E-12
 -0.940063998867E-13
 -0.803523914072E-14
  0.751759765549E-13
  0.554785384299E-12
 -0.252211446172E-13
  0.872444477773E-13
  0.177344250396E-12
  0.471064159902E-13
  0.115905549047E-12
  0.100058850094E-13
 -0.578686404351E-13
  0.337004729678E-13
 -0.211566875130E-13
 -0.706257968774E-13
  0.645976327984E-13
  0.754465934172E-13
 -0.292389376599E-12
  0.400374178255E-14
  0.207842423827E-12
  0.180270728900E-12
 -0.122868729080E-12
  0.213435172314E-12
  0.698260893550E-13
 -0.137712757864E-12
 -0.120872062359E-12
 -0.117164958291E-12
  0.647025835687E-12
 -0.281863074547E-12
 -0.290658122570E-12
 -0.247064521619E-12
  0.703060873408E-12
 -0.220136409101E-13
 -0.152086676586E-12
 -0.766123275930E-13
 -0.276990236303E-12
 -0.105901398761E-12
  0.669641425644E-12
 -0.205901268258E-12
 -0.115038187309E-12
  0.126770122177E-12
  0.107417547079E-12
 -0.383738180121E-13
 -0.133660443824E-12
  0.248724651986E-13
  0.212850570502E-13
 -0.113983475436E-12
 -0.467959004880E-13
 -0.891578477713E-13
  0.229103194749E-12
 -0.252312060134E-12
  0.120863388742E-12
  0.480934736480E-12
  0.112358039539E-13
  0.157634322262E-13
 -0.889757018063E-13
 -0.338765474006E-12
 -0.156123378114E-12
 -0.136095995584E-12
  0.193040028407E-13
 -0.234100933083E-13
 -0.472764188908E-13
  0.956214274428E-13
 -0.547218520497E-13
 -0.190146509649E-12
 -0.488583132285E-12
 -0.291849877598E-13
 -0.836240798829E-13
  0.600526572914E-13
 -0.700845631529E-13
  0.606181771445E-13
 -0.290548834991E-13
 -0.691946500098E-13
  0.634214902817E-14
  0.242039027709E-12
 -0.140632297474E-12
  0.254124846166E-12
  0.209741946033E-12
 -0.382679998800E-13
 -0.271484223990E-13
  0.380164649760E-13
 -0.264142874240E-12
 -0.534398914009E-13
  0.164156882532E-12
  0.443534098338E-13
  0.719216353140E-14
  0.300974523082E-13
  0.161384794417E-12
  0.571816899386E-13
  0.922976972628E-13
  0.336588396044E-13
 -0.609755301806E-14
  0.200594749145E-12
 -0.975568584249E-12
 -0.134035144095E-12
 -0.894857105083E-13
 -0.441521819106E-13
  0.123543536512E-12
  0.436369690382E-13
 -0.653053999766E-13
  0.338996192228E-12
  0.149135565009E-11
  0.255035575991E-12
 -0.159065469130E-12
 -0.893209117780E-13
  0.306260225513E-12
  0.786939957642E-13
 -0.329673788269E-12
  0.102882979913E-12
 -0.210557266067E-12
  0.240744923996E-13
  0.301009217551E-13
 -0.150453607906E-11
 -0.591714177656E-14
  0.201597419314E-12
  0.129670579829E-12
 -0.575322775531E-12
  0.472261119100E-12
 -0.671584315937E-12
 -0.315874583434E-11
  0.178544679041E-12
 -0.771821842549E-12
 -0.845557998619E-12
 -0.160349684919E-11
 -0.107761022328E-13
 -0.748465525668E-12
  0.249114964768E-12
 -0.877053638049E-12
  0.898510432723E-12
 -0.318930645782E-12
  0.426162577449E-12
 -0.301656269408E-12
 -0.245841541568E-12
  0.760076550310E-11
  0.392319857156E-12
 -0.554022105970E-12
 -0.317884607526E-12
  0.143921333184E-12
  0.420406764956E-12
 -0.253148196849E-12
  0.328619076395E-12
 -0.291103946504E-12
 -0.579338660378E-12
  0.958053081312E-13
 -0.393261812004E-14
  0.455656345988E-12
  0.269563538158E-11
 -0.474292480290E-12
  0.442867964523E-12
 -0.249834875010E-13
 -0.279502115896E-12
  0.220696724784E-12
 -0.308619449441E-12
  0.472186525990E-12
  0.789514287280E-12
 -0.285830387137E-13
  0.579420192381E-12
  0.137851535742E-12
 -0.119575183088E-11
  0.207577011135E-12
  0.156518895067E-12
  0.477923256526E-12
 -0.583583528724E-12
  0.243082463880E-11
 -0.324200735702E-12
 -0.678953421263E-13
 -0.214336014215E-11
  0.851653469969E-11
  0.947627393222E-13
 -0.361226673573E-12
  0.253288882923E-11
  0.674686001512E-12
  0.178321593602E-11
 -0.379210551849E-12
 -0.239600006502E-13
  0.857100848628E-12
  0.486799836552E-12
 -0.391246236797E-11
 -0.218666404428E-11
 -0.200756251900E-11
  0.451378344424E-11
 -0.191884702572E-12
 -0.400255870114E-11
  0.273934694373E-11
 -0.195092206279E-12
 -0.278542813814E-12
 -0.128633909080E-11
  0.922763601641E-12
 -0.117873766303E-11
  0.248954849791E-11
 -0.200057852229E-11
 -0.401536442984E-13
  0.203186426018E-12
 -0.331568106304E-12
  0.150362361451E-12
 -0.266828226181E-11
 -0.860088042454E-12
  0.269271063780E-11
 -0.265521979403E-12
  0.317105716685E-12
 -0.808155625753E-13
 -0.153113632884E-11
  0.189978067999E-11
 -0.434671049154E-11
  0.204253454428E-11
 -0.478974498952E-13
  0.343188845398E-11
  0.355761253790E-11
 -0.145285693198E-11
  0.249076627379E-11
  0.483103140825E-13
  0.257901339173E-11
  0.603780914155E-12
 -0.219960855086E-11
 -0.682932876916E-12
 -0.617592782470E-12
 -0.202402504479E-11
  0.111773784672E-11
 -0.933888383292E-12
  0.990083015573E-12
  0.117510168263E-13
 -0.281244645628E-11
 -0.396574786898E-11
 -0.423619472834E-12
  0.717124276628E-12
 -0.538361022429E-12
  0.841049452305E-12
 -0.417291201593E-12
  0.237238700906E-11
 -0.148853325499E-11
  0.308630898616E-11
  0.654424431312E-13
  0.125474283741E-11
  0.434544761285E-12
  0.814164707874E-12
 -0.911461878195E-12
 -0.134516876804E-11
 -0.589922208305E-12
  0.883425277376E-13
  0.681307441019E-12
 -0.177049347405E-12
  0.294977063608E-11
 -0.199443586646E-11
 -0.145180742428E-12
 -0.121259252639E-11
  0.149189393478E-10
 -0.751869053128E-12
  0.160490717938E-11
 -0.764678251275E-12
 -0.786801179764E-13
 -0.107837003216E-11
 -0.193007068661E-11
 -0.275184389165E-12
  0.560246293801E-13
 -0.191485369228E-11
  0.167817149066E-13
  0.118810170036E-11
  0.278952555499E-11
 -0.136312315602E-11