# vtk DataFile Version 3.0
MachLine results file. Generated by MachLine, USU AeroLab (c) 2022.
ASCII
DATASET POLYDATA
POINTS                4802 float
 -0.605345624325E+02 -0.127989667074E+02 -0.247207646547E+01
 -0.605345624330E+02 -0.127989666981E+02  0.247205453104E+01
 -0.605345624330E+02 -0.786459130815E+01 -0.247207646551E+01
 -0.605345624324E+02 -0.786459129891E+01  0.247205453105E+01
 -0.599161245935E+02 -0.176944303425E+02 -0.247207646547E+01
 -0.599161245952E+02 -0.176944303334E+02  0.247205453103E+01
 -0.599161250277E+02 -0.127600568597E+02  0.737719969822E+01
 -0.599161250277E+02 -0.790350066977E+01 -0.737722067903E+01
 -0.599161250260E+02 -0.790350064238E+01  0.737719969823E+01
 -0.599161245952E+02 -0.296912552708E+01 -0.247207646552E+01
 -0.599161245935E+02 -0.296912551799E+01  0.247205453104E+01
 -0.599161135819E+02 -0.127600568870E+02 -0.737722067902E+01
 -0.593074451607E+02 -0.308523820971E+01  0.737719969824E+01
 -0.593074375365E+02 -0.175783188158E+02  0.737719969818E+01
 -0.593074375365E+02 -0.308524038245E+01 -0.737722067898E+01
 -0.593074260872E+02 -0.175783188429E+02 -0.737722067898E+01
 -0.586890069006E+02  0.181022771056E+01 -0.247207646546E+01
 -0.586890068977E+02  0.181022771941E+01  0.247205453101E+01
 -0.586889967020E+02 -0.126828465860E+02  0.121660034423E+02
 -0.586889966992E+02 -0.798070326949E+01  0.121660034423E+02
 -0.586889878243E+02 -0.224737833414E+02 -0.247207646550E+01
 -0.586889878271E+02 -0.224737833326E+02  0.247205453100E+01
 -0.586889890698E+02 -0.126828466305E+02 -0.121660234693E+02
 -0.586889890726E+02 -0.798070426767E+01 -0.121660234693E+02
 -0.580996687516E+02 -0.331563375230E+01  0.121660034423E+02
 -0.580996679379E+02  0.161874106123E+01  0.737719969820E+01
 -0.580996573159E+02 -0.173479211107E+02  0.121660034422E+02
 -0.580996573159E+02 -0.331563474973E+01 -0.121660234694E+02
 -0.580996565023E+02  0.161873912776E+01 -0.737722067899E+01
 -0.580996488644E+02 -0.222822935838E+02 -0.737722067900E+01
 -0.580996488729E+02 -0.222822935577E+02  0.737719969820E+01
 -0.580996496782E+02 -0.173479211545E+02 -0.121660234693E+02
 -0.569302902040E+02  0.123878581376E+01 -0.121660234694E+02
 -0.569302901902E+02  0.123878895557E+01  0.121660034423E+02
 -0.569302787599E+02 -0.219023447736E+02  0.121660034423E+02
 -0.569302711167E+02 -0.219023448160E+02 -0.121660234693E+02
 -0.568725407278E+02 -0.809498516116E+01  0.167629376220E+02
 -0.568725383927E+02  0.639809319391E+01 -0.247207646545E+01
 -0.568725383887E+02  0.639809320231E+01  0.247205453104E+01
 -0.568725331022E+02 -0.125685670631E+02  0.167629376219E+02
 -0.568725193153E+02 -0.270616464402E+02 -0.247207646550E+01
 -0.568725193192E+02 -0.270616464318E+02  0.247205453100E+01
 -0.568725216544E+02 -0.125685671230E+02 -0.167629566953E+02
 -0.568725216581E+02 -0.809498522102E+01 -0.167629566954E+02
 -0.563118534683E+02 -0.365667604836E+01  0.167629376220E+02
 -0.563118515581E+02  0.613425357300E+01  0.737719969819E+01
 -0.563118420354E+02 -0.170068802301E+02  0.167629376219E+02
 -0.563118420354E+02 -0.365667920670E+01 -0.167629566953E+02
 -0.563118401257E+02  0.613425164079E+01 -0.737722067903E+01
 -0.563118286699E+02 -0.267978072877E+02 -0.737722067902E+01
 -0.563118286816E+02 -0.267978072629E+02  0.737719969824E+01
 -0.563118305801E+02 -0.170068707522E+02 -0.167629566953E+02
 -0.551993137799E+02  0.676362344702E+00  0.167629376220E+02
 -0.551993126990E+02  0.561073273392E+01 -0.121660234694E+02
 -0.551993126800E+02  0.561073563529E+01  0.121660034423E+02
 -0.551993012549E+02 -0.262742869254E+02  0.121660034423E+02
 -0.551993023544E+02 -0.213399145718E+02  0.167629376220E+02
 -0.551993023544E+02  0.676358472944E+00 -0.167629566953E+02
 -0.551992936065E+02 -0.262742869658E+02 -0.121660234693E+02
 -0.551992947065E+02 -0.213399050921E+02 -0.167629566953E+02
 -0.544953862344E+02 -0.824454102350E+01  0.210955112692E+02
 -0.544953826659E+02  0.107221198090E+02 -0.247207646548E+01
 -0.544953826609E+02  0.107221198167E+02  0.247205453105E+01
 -0.544953747949E+02 -0.124190073729E+02  0.210955112693E+02
 -0.544953747949E+02 -0.824454205022E+01 -0.210955227134E+02
 -0.544953635875E+02 -0.313856701936E+02 -0.247207646547E+01
 -0.544953635924E+02 -0.313856701858E+02  0.247205453102E+01
 -0.544953671609E+02 -0.124190074460E+02 -0.210955227134E+02
 -0.539721942237E+02  0.103900902340E+02  0.737719969824E+01
 -0.539721859311E+02 -0.410299022351E+01  0.210955112693E+02
 -0.539721827943E+02  0.103900806742E+02 -0.737722067901E+01
 -0.539721783154E+02 -0.165605615120E+02  0.210955112693E+02
 -0.539721783154E+02 -0.410299124912E+01 -0.210955227133E+02
 -0.539721637208E+02 -0.310536415414E+02  0.737719969822E+01
 -0.539721637061E+02 -0.310536301205E+02 -0.737722067903E+01
 -0.539721668576E+02 -0.165605615839E+02 -0.210955227134E+02
 -0.535524845050E+02  0.483579529307E+01  0.167629376220E+02
 -0.535524769013E+02  0.483579142411E+01 -0.167629566953E+02
 -0.535524654571E+02 -0.254993499072E+02  0.167629376220E+02
 -0.535524578022E+02 -0.254993385174E+02 -0.167629566953E+02
 -0.529340456005E+02  0.973125906762E+01  0.121660034422E+02
 -0.529340365086E+02 -0.596706138355E-01  0.210955112693E+02
 -0.529340341804E+02  0.973125521526E+01 -0.121660234694E+02
 -0.529340289018E+02 -0.206038758824E+02  0.210955112693E+02
 -0.529340289018E+02 -0.596725833359E-01 -0.210955227134E+02
 -0.529340151069E+02 -0.303948122678E+02  0.121660034423E+02
 -0.529340150831E+02 -0.303948027687E+02 -0.121660234693E+02
 -0.529340174351E+02 -0.206038759520E+02 -0.210955227134E+02
 -0.515950381407E+02  0.147141146941E+02 -0.247207646545E+01
 -0.515950381348E+02  0.147141147012E+02  0.247205453102E+01
 -0.515950314773E+02 -0.122365373823E+02  0.250953985348E+02
 -0.515950314721E+02 -0.842701291093E+01  0.250953985348E+02
 -0.515950200332E+02 -0.842701490191E+01 -0.250954176083E+02
 -0.515950076173E+02 -0.353776650781E+02 -0.247207646545E+01
 -0.515950076232E+02 -0.353776650709E+02  0.247205453102E+01
 -0.515950123986E+02 -0.122365279292E+02 -0.250954176083E+02
 -0.513973220699E+02  0.382165237499E+01  0.210955112693E+02
 -0.513973208086E+02  0.875602606713E+01  0.167629376220E+02
 -0.513973106570E+02  0.382164920927E+01 -0.210955227134E+02
 -0.513973093967E+02  0.875602029445E+01 -0.167629566954E+02
 -0.513972979526E+02 -0.294195735323E+02  0.167629376220E+02
 -0.513972992129E+02 -0.244852012550E+02  0.210955112692E+02
 -0.513972991817E+02 -0.244851917846E+02 -0.210955227134E+02
 -0.513972902911E+02 -0.294195640462E+02 -0.167629566953E+02
 -0.511175763756E+02  0.143191255806E+02  0.737719969822E+01
 -0.511175731344E+02 -0.160160125684E+02  0.250953985348E+02
 -0.511175731187E+02 -0.464753534199E+01  0.250953985348E+02
 -0.511175687637E+02  0.143191150690E+02 -0.737722067900E+01
 -0.511175616746E+02 -0.160160126507E+02 -0.250954176083E+02
 -0.511175616903E+02 -0.464753733169E+01 -0.250954176083E+02
 -0.511175496902E+02 -0.349826768900E+02  0.737719969822E+01
 -0.511175382286E+02 -0.349826654670E+02 -0.737722067900E+01
 -0.501701942497E+02 -0.957698277362E+00  0.250953985348E+02
 -0.501701906540E+02  0.135353766905E+02  0.121660034422E+02
 -0.501701828315E+02 -0.197058482050E+02  0.250953985348E+02
 -0.501701828314E+02 -0.957702112172E+00 -0.250954176083E+02
 -0.501701792383E+02  0.135353766562E+02 -0.121660234694E+02
 -0.501701601649E+02 -0.341989260794E+02  0.121660034423E+02
 -0.501701601365E+02 -0.341989184843E+02 -0.121660234693E+02
 -0.501701637321E+02 -0.197058482847E+02 -0.250954176083E+02
 -0.493862544668E+02  0.747976674964E+01  0.210955112693E+02
 -0.493862430619E+02  0.747976239632E+01 -0.210955227134E+02
 -0.493862316179E+02 -0.281433156342E+02  0.210955112692E+02
 -0.493862239492E+02 -0.281433061593E+02 -0.210955227134E+02
 -0.487678141270E+02  0.258430276584E+01  0.250953985348E+02
 -0.487678116353E+02  0.123752294294E+02 -0.167629566953E+02
 -0.487678115970E+02  0.123752294756E+02  0.167629376219E+02
 -0.487678065333E+02  0.258429768319E+01 -0.250954176083E+02
 -0.487677925618E+02 -0.330387798063E+02  0.167629376220E+02
 -0.487677950892E+02 -0.232478435301E+02  0.250953985348E+02
 -0.487677836094E+02 -0.232478436060E+02 -0.250954176083E+02
 -0.487677734501E+02 -0.330387684084E+02 -0.167629566954E+02
 -0.482172258593E+02 -0.863952646454E+01  0.286995158534E+02
 -0.482172200841E+02  0.183111182680E+02 -0.247207646549E+01
 -0.482172200774E+02  0.183111182743E+02  0.247205453105E+01
 -0.482172182357E+02 -0.120240180988E+02  0.286995158534E+02
 -0.482172182357E+02 -0.863952750963E+01 -0.286995349268E+02
 -0.482172067859E+02 -0.120240181902E+02 -0.286995349268E+02
 -0.482171933745E+02 -0.389746600681E+02 -0.247207646548E+01
 -0.482171933812E+02 -0.389746600618E+02  0.247205453106E+01
 -0.477930418953E+02  0.178593999569E+02  0.737719969822E+01
 -0.477930396610E+02 -0.528172289765E+01  0.286995158535E+02
 -0.477930342859E+02  0.178593999382E+02 -0.737722067904E+01
 -0.477930282341E+02 -0.153818240515E+02  0.286995158534E+02
 -0.477930282341E+02 -0.528172537179E+01 -0.286995349268E+02
 -0.477930113978E+02 -0.385229512686E+02  0.737719969821E+01
 -0.477930167728E+02 -0.153818136510E+02 -0.286995349268E+02
 -0.477930037484E+02 -0.385229398433E+02 -0.737722067902E+01
 -0.469513535840E+02  0.169630929363E+02  0.121660034423E+02
 -0.469513506118E+02 -0.200356105387E+01  0.286995158534E+02
 -0.469513459871E+02  0.169630929058E+02 -0.121660234693E+02
 -0.469513391961E+02 -0.186599801759E+02  0.286995158534E+02
 -0.469513391961E+02 -0.200356519411E+01 -0.286995349268E+02
 -0.469513277237E+02 -0.186599802631E+02 -0.286995349268E+02
 -0.469513154697E+02 -0.376266404216E+02  0.121660034423E+02
 -0.469513154371E+02 -0.376266328228E+02 -0.121660234693E+02
 -0.469325655963E+02  0.592260924651E+01  0.250953985348E+02
 -0.469325643094E+02  0.108569819696E+02  0.210955112693E+02
 -0.469325580118E+02  0.592260440733E+01 -0.250954176083E+02
 -0.469325567267E+02  0.108569819132E+02 -0.210955227134E+02
 -0.469325465677E+02 -0.265861495390E+02  0.250953985348E+02
[...]
POINT_DATA                4802
SCALARS phi float 1
LOOKUP_TABLE default
 -0.163202784620E-13
 -0.178745906965E-13
 -0.162092561595E-13
 -0.169864122768E-13
 -0.208721928630E-13
 -0.976996261670E-14
 -0.158761892521E-13
 -0.153210777398E-13
 -0.146549439251E-13
 -0.199840144433E-13
 -0.310862446895E-14
 -0.174305014866E-13
 -0.115463194561E-13
 -0.137667655054E-13
 -0.182076576039E-13
 -0.754951656745E-14
 -0.213162820728E-13
 -0.150990331349E-13
 -0.173194791842E-13
 -0.134336985980E-13
 -0.284217094304E-13
 -0.239808173319E-13
 -0.154321000423E-13
 -0.121014309684E-13
 -0.888178419700E-15
 -0.217603712827E-13
 -0.888178419700E-14
 -0.399680288865E-14
  0.444089209850E-14
  0.888178419700E-14
 -0.253130849615E-13
 -0.621724893790E-14
 -0.754951656745E-14
  0.266453525910E-14
 -0.235367281221E-13
 -0.213162820728E-13
 -0.164313007645E-13
 -0.222044604925E-13
 -0.266453525910E-13
 -0.174305014866E-13
 -0.159872115546E-13
 -0.621724893790E-14
 -0.128785870857E-13
 -0.140998324127E-13
 -0.279776202206E-13
 -0.204281036531E-13
 -0.284217094304E-13
 -0.177635683940E-13
 -0.142108547152E-13
 -0.257571741713E-13
 -0.381916720471E-13
 -0.213162820728E-13
 -0.164313007645E-13
 -0.150990331349E-13
  0.621724893790E-14
  0.159872115546E-13
 -0.275335310107E-13
 -0.177635683940E-14
 -0.186517468137E-13
 -0.217603712827E-13
 -0.143218770177E-13
 -0.124344978758E-13
 -0.550670620214E-13
 -0.154321000423E-13
 -0.121014309684E-13
 -0.115463194561E-13
 -0.328626015289E-13
 -0.132116539930E-13
 -0.364153152077E-13
 -0.208721928630E-13
  0.444089209850E-14
 -0.164313007645E-13
 -0.111022302463E-13
 -0.976996261670E-14
  0.000000000000E+00
 -0.182076576039E-13
  0.799360577730E-14
 -0.168753899743E-13
 -0.488498130835E-13
 -0.106581410364E-13
 -0.275335310107E-13
 -0.337507799486E-13
 -0.328626015289E-13
 -0.164313007645E-13
 -0.119904086660E-13
 -0.355271367880E-14
 -0.177635683940E-14
 -0.799360577730E-14
 -0.213162820728E-13
 -0.159872115546E-13
 -0.164313007645E-13
 -0.149880108324E-13
 -0.143218770177E-13
  0.213162820728E-13
  0.000000000000E+00
 -0.160982338571E-13
 -0.142108547152E-13
 -0.159872115546E-13
 -0.133226762955E-13
 -0.444089209850E-14
 -0.186517468137E-13
 -0.266453525910E-13
 -0.364153152077E-13
 -0.106581410364E-13
 -0.515143483426E-13
 -0.159872115546E-13
 -0.162092561595E-13
 -0.248689957516E-13
 -0.754951656745E-14
 -0.144328993201E-13
 -0.461852778244E-13
 -0.195399252334E-13
 -0.155431223448E-13
 -0.222044604925E-13
 -0.199840144433E-13
 -0.532907051820E-14
 -0.976996261670E-14
 -0.177635683940E-13
 -0.319744231092E-13
 -0.150990331349E-13
 -0.177635683940E-13
 -0.621724893790E-14
 -0.532907051820E-14
 -0.364153152077E-13
 -0.204281036531E-13
  0.177635683940E-14
 -0.621724893790E-14
 -0.204281036531E-13
 -0.319744231092E-13
  0.266453525910E-14
 -0.364153152077E-13
  0.159872115546E-13
 -0.148769885300E-13
 -0.479616346638E-13
  0.106581410364E-13
 -0.149880108324E-13
 -0.139888101103E-13
 -0.185407245112E-13
 -0.550670620214E-13
 -0.799360577730E-13
  0.532907051820E-14
 -0.133226762955E-13
  0.888178419700E-14
 -0.976996261670E-14
 -0.954791801178E-14
  0.888178419700E-14
 -0.137667655054E-13
 -0.781597009336E-13
 -0.692779167366E-13
 -0.208721928630E-13
  0.248689957516E-13
 -0.488498130835E-14
 -0.279776202206E-13
 -0.128785870857E-13
 -0.159872115546E-13
 -0.319744231092E-13
 -0.168753899743E-13
 -0.239808173319E-13
 -0.275335310107E-13
 -0.142108547152E-13
  0.319744231092E-13
  0.621724893790E-14
 -0.337507799486E-13
  0.106581410364E-13
 -0.204281036531E-13
 -0.195399252334E-13
 -0.190958360236E-13
  0.213162820728E-13
 -0.222044604925E-13
  0.355271367880E-14
  0.799360577730E-14
 -0.284217094304E-13
 -0.213162820728E-13
  0.124344978758E-13
 -0.373034936274E-13
 -0.213162820728E-13
  0.230926389122E-13
 -0.888178419700E-14
 -0.152655665886E-13
 -0.133781874467E-13
 -0.136002320517E-13
 -0.444089209850E-13
 -0.408562073062E-13
 -0.153210777398E-13
 -0.150990331349E-13
 -0.426325641456E-13
 -0.355271367880E-14
 -0.115463194561E-13
 -0.621724893790E-14
 -0.586197757002E-13
 -0.710542735760E-14
 -0.639488462184E-13
 -0.139888101103E-13
  0.124344978758E-13
 -0.337507799486E-13
 -0.162092561595E-13
 -0.250910403565E-13
  0.106581410364E-13
 -0.266453525910E-14
  0.266453525910E-13
 -0.639488462184E-13
 -0.150990331349E-13
  0.355271367880E-13
 -0.293098878501E-13
 -0.159872115546E-13
 -0.195399252334E-13
 -0.204281036531E-13
 -0.235367281221E-13
 -0.115463194561E-13
 -0.426325641456E-13
 -0.426325641456E-13
 -0.284217094304E-13
 -0.213162820728E-13
 -0.568434188608E-13
  0.355271367880E-14
 -0.932587340685E-14
 -0.284217094304E-13
 -0.976996261670E-14
  0.159872115546E-13
 -0.168753899743E-13
 -0.106581410364E-13
  0.266453525910E-14
  0.266453525910E-14
 -0.168753899743E-13
 -0.159872115546E-13
 -0.301980662698E-13
 -0.106581410364E-13
 -0.532907051820E-14
 -0.497379915032E-13
 -0.888178419700E-14
 -0.888178419700E-14
 -0.222044604925E-13
 -0.165978342181E-13
 -0.156541446472E-13
 -0.408562073062E-13
  0.195399252334E-13
 -0.131006316906E-13
  0.657252030578E-13
  0.710542735760E-14
 -0.143218770177E-13
 -0.479616346638E-13
 -0.182076576039E-13
 -0.122124532709E-13
 -0.177635683940E-13
  0.195399252334E-13
 -0.128785870857E-13
 -0.173194791842E-13
  0.532907051820E-14
 -0.888178419700E-15
 -0.532907051820E-13
 -0.266453525910E-14
 -0.621724893790E-14
 -0.710542735760E-14
 -0.150990331349E-13
  0.444089209850E-13
 -0.284217094304E-13
 -0.255351295664E-13
  0.000000000000E+00
 -0.479616346638E-13
 -0.155431223448E-13
 -0.168753899743E-13
 -0.213162820728E-13
 -0.248689957516E-13
 -0.888178419700E-15
  0.248689957516E-13
 -0.284217094304E-13
 -0.106581410364E-13
 -0.346389583683E-13
 -0.710542735760E-14
  0.142108547152E-13
  0.177635683940E-13
 -0.341948691585E-13
 -0.137667655054E-13
 -0.230926389122E-13
 -0.461852778244E-13
 -0.235367281221E-13
 -0.159872115546E-13
 -0.142108547152E-13
  0.284217094304E-13
 -0.226485497024E-13
 -0.310862446895E-14
 -0.159872115546E-13
 -0.426325641456E-13
 -0.217603712827E-13
  0.124344978758E-13
 -0.408562073062E-13
  0.195399252334E-13
 -0.373034936274E-13
 -0.426325641456E-13
 -0.301980662698E-13
 -0.133226762955E-13
 -0.266453525910E-14
 -0.177635683940E-13
 -0.355271367880E-13
  0.319744231092E-13
 -0.106581410364E-13
 -0.293098878501E-13
 -0.142108547152E-13
 -0.710542735760E-14
 -0.106581410364E-13
 -0.143773881689E-13
 -0.139888101103E-13
  0.532907051820E-14
  0.301980662698E-13
 -0.408562073062E-13
 -0.603961325396E-13
 -0.143773881689E-13
 -0.141553435640E-13
 -0.497379915032E-13
  0.888178419700E-14
 -0.172084568817E-13
 -0.155431223448E-13
 -0.116573417586E-13
 -0.111022302463E-13
 -0.888178419700E-13
 -0.728306304154E-13
 -0.754951656745E-14
  0.888178419700E-14
 -0.284217094304E-13
 -0.139888101103E-13
 -0.461852778244E-13
 -0.390798504668E-13
 -0.215383266777E-13
 -0.131006316906E-13
 -0.266453525910E-13
  0.888178419700E-15
 -0.266453525910E-13
  0.177635683940E-14
 -0.253130849615E-13
 -0.710542735760E-13
 -0.888178419700E-14
 -0.159872115546E-13
 -0.146549439251E-13
 -0.408562073062E-13
  0.515143483426E-13
 -0.124344978758E-13
 -0.355271367880E-14
  0.142108547152E-13
 -0.621724893790E-14
 -0.293098878501E-13
 -0.417443857259E-13
 -0.444089209850E-13
 -0.710542735760E-14
 -0.195399252334E-13
 -0.155431223448E-13
  0.639488462184E-13
 -0.603961325396E-13
 -0.124344978758E-13
  0.177635683940E-14
 -0.888178419700E-14
 -0.568434188608E-13
 -0.235367281221E-13
 -0.168753899743E-13
 -0.408562073062E-13
 -0.710542735760E-14
 -0.119904086660E-13
 -0.270894418009E-13
 -0.941469124882E-13
 -0.355271367880E-13
 -0.217603712827E-13
 -0.888178419700E-14
  0.888178419700E-14
 -0.257571741713E-13
  0.248689957516E-13
  0.532907051820E-14
  0.142108547152E-13
 -0.621724893790E-14
  0.168753899743E-13
 -0.217603712827E-13
  0.230926389122E-13
  0.390798504668E-13
 -0.190958360236E-13
 -0.301980662698E-13
  0.337507799486E-13
 -0.390798504668E-13
 -0.119904086660E-13
 -0.390798504668E-13
 -0.195399252334E-13
 -0.147937218031E-13
 -0.145161660470E-13
 -0.156263890716E-13
 -0.154876111935E-13
 -0.301980662698E-13
 -0.675015598972E-13
 -0.159872115546E-13
 -0.166533453694E-13
 -0.123234755733E-13
 -0.106581410364E-13
 -0.195399252334E-13
  0.142108547152E-13
 -0.145439216226E-13
 -0.142108547152E-13
 -0.568434188608E-13
 -0.182076576039E-13
 -0.126565424807E-13
  0.177635683940E-14
 -0.159872115546E-13
  0.000000000000E+00
  0.177635683940E-14
 -0.113242748512E-13
 -0.799360577730E-14
 -0.621724893790E-14
  0.177635683940E-14
  0.888178419700E-14
  0.177635683940E-14
 -0.168753899743E-13
 -0.153210777398E-13
 -0.301980662698E-13
 -0.150990331349E-13
 -0.870414851306E-13
 -0.515143483426E-13
 -0.128785870857E-13
 -0.262012633812E-13
 -0.222044604925E-13
  0.888178419700E-15
 -0.111022302463E-13
 -0.137667655054E-13
 -0.204281036531E-13
 -0.284217094304E-13
 -0.213162820728E-13
 -0.133226762955E-13
  0.124344978758E-13
 -0.532907051820E-14
 -0.910382880193E-14
 -0.177635683940E-13
 -0.426325641456E-13
  0.586197757002E-13
 -0.190958360236E-13
 -0.288657986403E-13
 -0.355271367880E-14
 -0.577315972805E-14
 -0.213162820728E-13
 -0.639488462184E-13
 -0.213162820728E-13
 -0.133226762955E-13
 -0.213162820728E-13
 -0.230926389122E-13
 -0.444089209850E-14
 -0.444089209850E-14
 -0.532907051820E-14
 -0.284217094304E-13
  0.000000000000E+00
  0.301980662698E-13
 -0.799360577730E-14
 -0.186517468137E-13
 -0.426325641456E-13
 -0.888178419700E-15
 -0.301980662698E-13
 -0.204281036531E-13
 -0.426325641456E-13
  0.532907051820E-14
 -0.199840144433E-13
 -0.142108547152E-13
 -0.444089209850E-14
  0.266453525910E-14
 -0.142108547152E-13
 -0.128785870857E-13
  0.266453525910E-14
 -0.275335310107E-13
 -0.128785870857E-13
 -0.888178419700E-15
  0.799360577730E-14
 -0.621724893790E-14
 -0.239808173319E-13
 -0.150712775593E-13
 -0.154598556179E-13
 -0.497379915032E-13
  0.461852778244E-13
 -0.156125112838E-13
 -0.154737334057E-13
  0.106581410364E-12
 -0.621724893790E-13
 -0.153210777398E-13
 -0.149880108324E-13
 -0.497379915032E-13
  0.355271367880E-14
 -0.106581410364E-13
 -0.710542735760E-14
 -0.156541446472E-13
 -0.150435219837E-13
 -0.355271367880E-14
 -0.390798504668E-13
  0.177635683940E-14
 -0.497379915032E-13
 -0.417443857259E-13
 -0.119904086660E-13
 -0.230926389122E-13
 -0.124344978758E-13
 -0.153210777398E-13
 -0.140998324127E-13
  0.532907051820E-14
  0.213162820728E-13
 -0.159872115546E-13
 -0.159872115546E-13
 -0.461852778244E-13
 -0.337507799486E-13
 -0.266453525910E-13
 -0.176525460915E-13
 -0.184297022088E-13
 -0.195399252334E-13
 -0.156541446472E-13
 -0.135447209004E-13
 -0.230926389122E-13
 -0.195399252334E-13
 -0.164313007645E-13
 -0.109912079438E-13
 -0.337507799486E-13
 -0.124344978758E-13
  0.230926389122E-13
 -0.461852778244E-13
 -0.119904086660E-13
 -0.164313007645E-13
 -0.153210777398E-13
 -0.146549439251E-13
  0.444089209850E-13
  0.301980662698E-13
 -0.195399252334E-13
  0.355271367880E-14
  0.106581410364E-13
 -0.108801856413E-13
 -0.532907051820E-14
 -0.177635683940E-14
 -0.150990331349E-13
 -0.364153152077E-13
 -0.932587340685E-14
 -0.137667655054E-13
  0.355271367880E-14
 -0.128785870857E-13
 -0.164313007645E-13
 -0.479616346638E-13
  0.159872115546E-13
 -0.162092561595E-13
 -0.166533453694E-13
 -0.119904086660E-13
 -0.941469124882E-13
 -0.461852778244E-13
 -0.157651669497E-13
 -0.182076576039E-13
  0.266453525910E-14
 -0.115463194561E-13
 -0.248689957516E-13
 -0.170974345792E-13
 -0.173194791842E-13
 -0.142108547152E-13
 -0.235367281221E-13
 -0.355271367880E-14
 -0.195399252334E-13
 -0.168753899743E-13
 -0.159872115546E-13
 -0.142108547152E-13
  0.470734562441E-13
 -0.162092561595E-13
 -0.732747196253E-14
 -0.142108547152E-13
  0.621724893790E-14
 -0.170974345792E-13
 -0.190958360236E-13
 -0.126565424807E-13
 -0.710542735760E-14
 -0.532907051820E-14
 -0.106581410364E-13
 -0.144328993201E-13
 -0.150990331349E-13
 -0.150990331349E-13
 -0.257571741713E-13
 -0.177635683940E-13
 -0.144328993201E-13
 -0.111022302463E-13
 -0.666133814775E-14
 -0.222044604925E-14
 -0.239808173319E-13
 -0.976996261670E-14
 -0.219824158876E-13
 -0.166533453694E-13
 -0.177635683940E-13
 -0.843769498715E-14
 -0.621724893790E-14
 -0.133226762955E-13
 -0.337507799486E-13
 -0.159872115546E-13
 -0.142108547152E-13
 -0.675015598972E-13
 -0.817124146124E-13
  0.195399252334E-13
 -0.266453525910E-13
 -0.106581410364E-13
  0.426325641456E-13
 -0.905941988094E-13
 -0.408562073062E-13
 -0.444089209850E-13
 -0.195399252334E-13
  0.142108547152E-13
 -0.206501482580E-13
 -0.157651669497E-13
 -0.146002442314E-13
 -0.149790136485E-13
 -0.150990331349E-13
 -0.175415237891E-13
 -0.373034936274E-13
  0.488498130835E-14
 -0.222044604925E-13
 -0.888178419700E-15
 -0.293098878501E-13
 -0.337507799486E-13
 -0.355271367880E-13
 -0.710542735760E-14
 -0.843769498715E-14
 -0.230926389122E-13
  0.159872115546E-13
 -0.408562073062E-13
 -0.444089209850E-14
 -0.266453525910E-14
 -0.177635683940E-13
 -0.239808173319E-13
 -0.355271367880E-13
 -0.408562073062E-13
 -0.373034936274E-13
 -0.124344978758E-13
 -0.230926389122E-13
 -0.710542735760E-13
 -0.532907051820E-14
  0.444089209850E-13
 -0.337507799486E-13
 -0.603961325396E-13
  0.461852778244E-13
 -0.213162820728E-13
 -0.197619698383E-13
 -0.131006316906E-13
 -0.910382880193E-14
 -0.888178419700E-14
 -0.142108547152E-13
 -0.139888101103E-13
  0.133226762955E-14
 -0.173194791842E-13
 -0.888178419700E-14
 -0.310862446895E-14
 -0.197619698383E-13
 -0.208721928630E-13
 -0.310862446895E-13
 -0.124344978758E-13
 -0.219824158876E-13
 -0.142108547152E-13
 -0.133226762955E-13
 -0.159872115546E-13
 -0.444089209850E-13
 -0.319744231092E-13
 -0.159872115546E-13
  0.888178419700E-15
 -0.206501482580E-13
 -0.124344978758E-13
 -0.111022302463E-13
 -0.170974345792E-13
 -0.142108547152E-13
 -0.204281036531E-13
 -0.155431223448E-13
 -0.444089209850E-14
 -0.710542735760E-14
 -0.115463194561E-13
  0.000000000000E+00
  0.888178419700E-15
 -0.124344978758E-13
 -0.137667655054E-13
 -0.119904086660E-13
 -0.208721928630E-13
 -0.301980662698E-13
 -0.124344978758E-13
 -0.142108547152E-13
 -0.177635683940E-14
 -0.777156117238E-14
 -0.159872115546E-13
 -0.233146835171E-13
 -0.754951656745E-14
  0.710542735760E-14
 -0.142108547152E-13
 -0.266453525910E-13
 -0.195399252334E-13
 -0.230926389122E-13
 -0.666133814775E-14
 -0.195399252334E-13
 -0.799360577730E-14
 -0.146549439251E-13
  0.186517468137E-13
  0.461852778244E-13
  0.195399252334E-13
 -0.133226762955E-13
 -0.142108547152E-13
 -0.157651669497E-13
 -0.164313007645E-13
 -0.817124146124E-13
  0.230926389122E-13
 -0.390798504668E-13
  0.319744231092E-13
 -0.162092561595E-13
 -0.167643676718E-13
 -0.142108547152E-13
 -0.167643676718E-13
 -0.301980662698E-13
  0.124344978758E-13
  0.177635683940E-14
 -0.408562073062E-13
 -0.116573417586E-13
 -0.158761892521E-13
 -0.185407245112E-13
 -0.988098491916E-14
  0.142108547152E-13
  0.337507799486E-13
 -0.142108547152E-13
 -0.355271367880E-13
 -0.154321000423E-13
 -0.153210777398E-13
 -0.140998324127E-13
 -0.139888101103E-13
  0.142108547152E-13
 -0.177635683940E-13
 -0.621724893790E-14
 -0.275335310107E-13
 -0.124344978758E-13
 -0.177635683940E-14
 -0.208721928630E-13
 -0.177635683940E-14
 -0.150990331349E-13
 -0.133226762955E-13
 -0.888178419700E-14
  0.195399252334E-13
 -0.151545442861E-13
 -0.156541446472E-13
 -0.145439216226E-13
 -0.155431223448E-13
  0.124344978758E-13
 -0.390798504668E-13
  0.248689957516E-13
  0.248689957516E-13
 -0.154182222545E-13
 -0.147798440153E-13
 -0.152516888008E-13
 -0.156263890716E-13
 -0.657252030578E-13
 -0.959232693276E-13
  0.621724893790E-14
  0.204281036531E-13
 -0.444089209850E-14
 -0.186517468137E-13
 -0.568434188608E-13
 -0.799360577730E-14
 -0.253130849615E-13
 -0.111022302463E-13
 -0.137667655054E-13
 -0.843769498715E-14
  0.710542735760E-14
 -0.710542735760E-14
 -0.248689957516E-13
 -0.532907051820E-14
 -0.142108547152E-13
 -0.213162820728E-13
 -0.119904086660E-13
 -0.488498130835E-14
 -0.124344978758E-13
 -0.355271367880E-13
 -0.532907051820E-14
 -0.337507799486E-13
  0.115463194561E-13
 -0.373034936274E-13
  0.621724893790E-14
 -0.133226762955E-13
 -0.222044604925E-13
  0.621724893790E-14
 -0.444089209850E-13
 -0.266453525910E-13
 -0.146549439251E-13
 -0.239808173319E-13
 -0.128785870857E-13
 -0.235367281221E-13
 -0.319744231092E-13
  0.355271367880E-14
 -0.195399252334E-13
 -0.319744231092E-13
 -0.128785870857E-13
 -0.888178419700E-14
 -0.159872115546E-13
 -0.144328993201E-13
 -0.142108547152E-13
 -0.568434188608E-13
 -0.488498130835E-13
 -0.195399252334E-13
 -0.199840144433E-13
 -0.173194791842E-13
 -0.297539770600E-13
  0.444089209850E-14
 -0.932587340685E-14
  0.355271367880E-14
 -0.710542735760E-14
 -0.284217094304E-13
 -0.999200722163E-14
 -0.999200722163E-14
 -0.139888101103E-13
 -0.210942374679E-13
  0.675015598972E-13
 -0.355271367880E-13
 -0.319744231092E-13
 -0.257571741713E-13
 -0.976996261670E-14
  0.230926389122E-13
 -0.550670620214E-13
 -0.550670620214E-13
 -0.182076576039E-13
 -0.122124532709E-13
 -0.170974345792E-13
 -0.111022302463E-13
 -0.408562073062E-13
 -0.319744231092E-13
 -0.195399252334E-13
  0.532907051820E-14
 -0.158761892521E-13
 -0.143218770177E-13
 -0.154321000423E-13
 -0.137667655054E-13
  0.355271367880E-14
 -0.515143483426E-13
  0.479616346638E-13
 -0.195399252334E-13
 -0.147104550763E-13
 -0.159317004034E-13
 -0.151267887105E-13
 -0.149880108324E-13
 -0.337507799486E-13
  0.106581410364E-13
  0.177635683940E-14
 -0.710542735760E-14
 -0.177635683940E-13
  0.888178419700E-15
 -0.119904086660E-13
 -0.479616346638E-13
 -0.168753899743E-13
 -0.142108547152E-13
  0.124344978758E-13
  0.266453525910E-14
 -0.373034936274E-13
 -0.248689957516E-13
 -0.186517468137E-13
 -0.266453525910E-13
 -0.239808173319E-13
 -0.150990331349E-13
  0.177635683940E-14
  0.568434188608E-13
 -0.119904086660E-13
 -0.288657986403E-13
 -0.182076576039E-13
 -0.843769498715E-14
  0.159872115546E-13
 -0.621724893790E-13
  0.124344978758E-13
 -0.568434188608E-13
 -0.976996261670E-14
 -0.106581410364E-13
  0.399680288865E-14
 -0.239808173319E-13
 -0.266453525910E-13
 -0.124344978758E-13
 -0.177635683940E-13
 -0.159872115546E-13
 -0.799360577730E-14
 -0.355271367880E-13
  0.888178419700E-15
 -0.142108547152E-13
 -0.168753899743E-13
 -0.257571741713E-13
  0.355271367880E-14
  0.355271367880E-14
 -0.754951656745E-14
 -0.119904086660E-13
 -0.124344978758E-13
 -0.666133814775E-14
 -0.108357767203E-12
  0.710542735760E-14
 -0.355271367880E-13
 -0.621724893790E-14
  0.888178419700E-14
 -0.559552404411E-13
  0.195399252334E-13
  0.142108547152E-13
 -0.137667655054E-13
 -0.119904086660E-13
 -0.119904086660E-13
 -0.173194791842E-13
 -0.301980662698E-13
  0.426325641456E-13
  0.888178419700E-14
 -0.355271367880E-14
 -0.121014309684E-13
 -0.147659662275E-13
 -0.155431223448E-13
 -0.154321000423E-13
  0.230926389122E-13
 -0.195399252334E-13
 -0.888178419700E-14
  0.710542735760E-14
 -0.143218770177E-13
 -0.140998324127E-13
 -0.137112543541E-13
 -0.151545442861E-13
 -0.923705556488E-13
 -0.710542735760E-14
 -0.532907051820E-14
  0.444089209850E-13
 -0.106581410364E-13
 -0.266453525910E-14
 -0.177635683940E-13
 -0.115463194561E-13
  0.124344978758E-13
 -0.248689957516E-13
 -0.355271367880E-14
 -0.106581410364E-13
  0.204281036531E-13
 -0.150990331349E-13
  0.346389583683E-13
 -0.133226762955E-13
 -0.150990331349E-13
 -0.337507799486E-13
  0.888178419700E-14
  0.000000000000E+00
 -0.102140518266E-13
  0.222044604925E-14
 -0.444089209850E-14
 -0.199840144433E-13
 -0.621724893790E-13
 -0.177635683940E-14
 -0.888178419700E-14
 -0.301980662698E-13
 -0.111022302463E-13
 -0.173194791842E-13
 -0.133226762955E-13
 -0.124344978758E-13
 -0.763833440942E-13
 -0.710542735760E-14
  0.532907051820E-14
 -0.142108547152E-13
  0.266453525910E-14
 -0.328626015289E-13
 -0.133226762955E-13
  0.106581410364E-13
 -0.408562073062E-13
  0.888178419700E-14
  0.142108547152E-13
 -0.266453525910E-13
 -0.215383266777E-13
 -0.228705943073E-13
 -0.177635683940E-13
 -0.244249065418E-13