# vtk DataFile Version 3.0
MachLine results file. Generated by MachLine, USU AeroLab (c) 2022.
ASCII
DATASET POLYDATA
POINTS                4802 float
 -0.605345845762E+02 -0.127989680987E+02 -0.247207786142E+01
 -0.605346060417E+02 -0.127989694464E+02 -0.109672499999E-04
 -0.602253594468E+02 -0.152467005332E+02 -0.247207748780E+01
 -0.599209978215E+02 -0.151886431742E+02 -0.492464903770E+01
 -0.605345774302E+02 -0.127989676429E+02  0.247205547646E+01
 -0.602253573654E+02 -0.127795126459E+02  0.492462882677E+01
 -0.602253645032E+02 -0.152467011720E+02  0.247205587338E+01
 -0.602253694534E+02 -0.152467017973E+02 -0.109672499999E-04
 -0.605345704149E+02 -0.786459080532E+01 -0.247207696869E+01
 -0.605345353507E+02 -0.786459300740E+01 -0.109672499999E-04
 -0.605345814912E+02 -0.103317790032E+02 -0.247207767610E+01
 -0.602253659603E+02 -0.103123240471E+02 -0.492465211026E+01
 -0.605345654801E+02 -0.786459110743E+01  0.247205472316E+01
 -0.602253016386E+02 -0.788404862792E+01  0.492462177296E+01
 -0.605345566862E+02 -0.103317790032E+02  0.247205418411E+01
 -0.605345661953E+02 -0.103317790032E+02 -0.109672499999E-04
 -0.599161127932E+02 -0.176944280925E+02 -0.247207570966E+01
 -0.599161183452E+02 -0.176944291458E+02 -0.109672499999E-04
 -0.593025407204E+02 -0.200841028603E+02 -0.247207547522E+01
 -0.590078421199E+02 -0.199883504573E+02 -0.492464277745E+01
 -0.599161379770E+02 -0.176944328872E+02  0.247205538815E+01
 -0.596117640113E+02 -0.176363713306E+02  0.492462490765E+01
 -0.593025560737E+02 -0.200841068024E+02  0.247205453609E+01
 -0.593025505854E+02 -0.200841053933E+02 -0.109672499999E-04
 -0.599160931511E+02 -0.127600548461E+02  0.737719360523E+01
 -0.593025075597E+02 -0.127214483872E+02  0.977158782899E+01
 -0.596117738097E+02 -0.151691869076E+02  0.737719830576E+01
 -0.599161553479E+02 -0.152272475051E+02  0.492463100977E+01
 -0.599160819763E+02 -0.790350338914E+01 -0.737721245003E+01
 -0.599161182257E+02 -0.103317787646E+02 -0.737722051479E+01
 -0.602253167441E+02 -0.788404767752E+01 -0.492464514265E+01
 -0.593024812146E+02 -0.102931735514E+02 -0.977160266769E+01
 -0.599160831270E+02 -0.790350326786E+01  0.737719168978E+01
 -0.593024628771E+02 -0.794210813862E+01  0.977157633380E+01
 -0.599160955520E+02 -0.103317787647E+02  0.737719412778E+01
 -0.602253329517E+02 -0.103512337208E+02  0.492462576949E+01
 -0.599160640678E+02 -0.296913707840E+01 -0.247207258868E+01
 -0.599161171562E+02 -0.296912694141E+01 -0.109672499999E-04
 -0.602253330603E+02 -0.541685973359E+01 -0.247207581785E+01
 -0.599160984163E+02 -0.543631638202E+01 -0.492464523246E+01
 -0.599160732793E+02 -0.296913530223E+01  0.247205124444E+01
 -0.596117616330E+02 -0.302718630728E+01  0.492462411130E+01
 -0.602253037751E+02 -0.541686343316E+01  0.247205202993E+01
 -0.602253214031E+02 -0.541686120623E+01 -0.109672499999E-04
 -0.599160998880E+02 -0.127600560289E+02 -0.737721806160E+01
 -0.602253688421E+02 -0.127795137280E+02 -0.492465246137E+01
 -0.596117541299E+02 -0.151691858672E+02 -0.737721770609E+01
 -0.590078785453E+02 -0.150539885317E+02 -0.977162130029E+01
 -0.593073934126E+02 -0.308524806771E+01  0.737718964911E+01
 -0.587035201128E+02 -0.320044302755E+01  0.977159191098E+01
 -0.596117627983E+02 -0.549437225628E+01  0.737719546066E+01
 -0.599209734504E+02 -0.547491863878E+01  0.492462327115E+01
 -0.593074242014E+02 -0.175783162686E+02  0.737719710833E+01
 -0.587035319935E+02 -0.174631170376E+02  0.977159750914E+01
 -0.587034549516E+02 -0.199302835410E+02  0.737718239268E+01
 -0.589981957275E+02 -0.200260467732E+02  0.492462492298E+01
 -0.593073638880E+02 -0.308525445078E+01 -0.737720637546E+01
 -0.596117506898E+02 -0.302718873990E+01 -0.492464465207E+01
 -0.596117221546E+02 -0.549437798188E+01 -0.737720937388E+01
 -0.589981183590E+02 -0.553298422003E+01 -0.977159758010E+01
 -0.593073915105E+02 -0.175783122560E+02 -0.737721396434E+01
 -0.596117432966E+02 -0.176363684707E+02 -0.492464443695E+01
 -0.587034861166E+02 -0.199302930124E+02 -0.737721062413E+01
 -0.581187532512E+02 -0.197403072457E+02 -0.977159686756E+01
 -0.586889542989E+02  0.181021061443E+01 -0.247207298552E+01
 -0.593024994994E+02 -0.579465912951E+00 -0.247207218473E+01
 -0.586888736033E+02  0.181018440465E+01 -0.109672499999E-04
 -0.589981337868E+02 -0.637528989110E+00 -0.492463707626E+01
 -0.586889255087E+02  0.181020128203E+01  0.247204914697E+01
 -0.583942233951E+02  0.171444733266E+01  0.492461195456E+01
 -0.593024831165E+02 -0.579470119336E+00  0.247204918810E+01
 -0.593025012119E+02 -0.579465473263E+00 -0.109672499999E-04
 -0.586889234087E+02 -0.126828419433E+02  0.121659795797E+02
 -0.577806325165E+02 -0.126256985216E+02  0.144644179711E+02
 -0.583942821136E+02 -0.150153781991E+02  0.121659888354E+02
 -0.589981642441E+02 -0.151305761206E+02  0.977158794247E+01
 -0.586889087223E+02 -0.798070876675E+01  0.121659748007E+02
 -0.586888716822E+02 -0.103317749500E+02  0.121659629678E+02
 -0.577806304904E+02 -0.803785293778E+01  0.144644156543E+02
 -0.593024863768E+02 -0.103703801632E+02  0.977158250908E+01
 -0.586889013795E+02 -0.224737552616E+02 -0.247207074700E+01
 -0.586889817752E+02 -0.224737813711E+02 -0.109672499999E-04
 -0.577806601585E+02 -0.247676779016E+02 -0.247207017084E+01
 -0.575002915746E+02 -0.246357490662E+02 -0.492463276223E+01
 -0.586889058505E+02 -0.224737566891E+02  0.247204910779E+01
 -0.583942648132E+02 -0.223780210595E+02  0.492461998969E+01
 -0.577806677161E+02 -0.247676808939E+02  0.247204874670E+01
 -0.577806619381E+02 -0.247676786062E+02 -0.109672499999E-04
 -0.586889256575E+02 -0.126828426680E+02 -0.121660028249E+02
 -0.593025090824E+02 -0.127214490829E+02 -0.977161117824E+01
 -0.583942724628E+02 -0.150153779438E+02 -0.121660082018E+02
 -0.575002774861E+02 -0.148448418298E+02 -0.144644374018E+02
 -0.586888920107E+02 -0.798071041589E+01 -0.121659918682E+02
 -0.593024759304E+02 -0.794210755433E+01 -0.977160117707E+01
 -0.586888832122E+02 -0.103317754268E+02 -0.121659892076E+02
 -0.577806412922E+02 -0.102746355534E+02 -0.144644450429E+02
 -0.580995757827E+02 -0.331565144586E+01  0.121659726921E+02
 -0.572056467641E+02 -0.348617673954E+01  0.144644243982E+02
 -0.583942379815E+02 -0.564818050206E+01  0.121659725401E+02
 -0.590078530591E+02 -0.560957283360E+01  0.977159027244E+01
 -0.580995675179E+02  0.161870846070E+01  0.737717955756E+01
 -0.575149202753E+02  0.142874588782E+01  0.977158566951E+01
 -0.587035091476E+02 -0.733260759113E+00  0.737719042140E+01
 -0.590078285177E+02 -0.675209675160E+00  0.492461830801E+01
 -0.580995590704E+02 -0.173479023258E+02  0.121659709416E+02
 -0.572056629528E+02 -0.171773841537E+02  0.144644355361E+02
 -0.575149374030E+02 -0.196251250994E+02  0.121659932544E+02
 -0.580995898534E+02 -0.198150911983E+02  0.977158487165E+01
 -0.580995703970E+02 -0.331565136879E+01 -0.121659947156E+02
 -0.587034414424E+02 -0.320045776531E+01 -0.977159434421E+01
 -0.583941929346E+02 -0.564818594180E+01 -0.121659809601E+02
 -0.574859710827E+02 -0.570532480000E+01 -0.144644429661E+02
 -0.580995549129E+02  0.161870609120E+01 -0.737720030040E+01
 -0.583942444352E+02  0.171445507415E+01 -0.492463696671E+01
 -0.587034993274E+02 -0.733262858535E+00 -0.737721134622E+01
 -0.580995757497E+02 -0.848468547310E+00 -0.977160063516E+01
 -0.580995468566E+02 -0.222822604677E+02 -0.737720021982E+01
 -0.583942706695E+02 -0.223780229624E+02 -0.492464222526E+01
 -0.572055982982E+02 -0.245399948054E+02 -0.737719195576E+01
 -0.566493691598E+02 -0.242782497541E+02 -0.977159395777E+01
 -0.580995827416E+02 -0.222822720519E+02  0.737718643249E+01
 -0.575148632985E+02 -0.220922865243E+02  0.977157440717E+01
 -0.572056063320E+02 -0.245399979862E+02  0.737717262022E+01
 -0.574859445093E+02 -0.246719147827E+02  0.492460820236E+01
 -0.580995591046E+02 -0.173479039167E+02 -0.121659935114E+02
 -0.587034979626E+02 -0.174631123652E+02 -0.977161161071E+01
 -0.575148752508E+02 -0.196251111003E+02 -0.121659950270E+02
 -0.566494068815E+02 -0.193438962077E+02 -0.144644634590E+02
 -0.569301753333E+02  0.123874843581E+01 -0.121659842188E+02
 -0.575148878506E+02  0.142873470839E+01 -0.977159896488E+01
 -0.575148251966E+02 -0.103846258925E+01 -0.121659737990E+02
 -0.566209440577E+02 -0.120897789000E+01 -0.144644403353E+02
 -0.569301981522E+02  0.123875909406E+01  0.121659720022E+02
 -0.560647142191E+02  0.957547105819E+00  0.144644339486E+02
 -0.575149358817E+02 -0.103843361320E+01  0.121659889134E+02
 -0.581188373836E+02 -0.923232506541E+00  0.977159357570E+01
 -0.569301713450E+02 -0.219023098216E+02  0.121659667394E+02
 -0.560646495973E+02 -0.216210838994E+02  0.144644118104E+02
 -0.560647328399E+02 -0.240882932392E+02  0.121659835733E+02
 -0.566209508965E+02 -0.243500354133E+02  0.977157326775E+01
 -0.569301684518E+02 -0.219023115066E+02 -0.121659883990E+02
 -0.575148669255E+02 -0.220922889423E+02 -0.977159691993E+01
 -0.560646457386E+02 -0.240882617740E+02 -0.121659758824E+02
 -0.552411863007E+02 -0.237007709759E+02 -0.144644143796E+02
 -0.568723844789E+02 -0.809499489433E+01  0.167628639531E+02
 -0.556837882863E+02 -0.816977414789E+01  0.189291278810E+02
 -0.568723895117E+02 -0.103317761418E+02  0.167628684849E+02
 -0.577806413605E+02 -0.103889160155E+02  0.144644202442E+02
 -0.568724129737E+02  0.639803416350E+01 -0.247206774415E+01
 -0.568724878743E+02  0.639806942686E+01 -0.109672499999E-04
 -0.577806868881E+02  0.410412650289E+01 -0.247207068769E+01
 -0.574860506758E+02  0.400839769695E+01 -0.492464224587E+01
 -0.568724186146E+02  0.639803685296E+01  0.247204620313E+01
 -0.565920833181E+02  0.626612083657E+01  0.492461151127E+01
 -0.577806713399E+02  0.410412034689E+01  0.247204770341E+01
 -0.577806750698E+02  0.410412182366E+01 -0.109672499999E-04
 -0.568723868155E+02 -0.125685577684E+02  0.167628686447E+02
 -0.556837597908E+02 -0.124937750357E+02  0.189291174374E+02
 -0.565920192260E+02 -0.147877024101E+02  0.167628580241E+02
 -0.574860105855E+02 -0.149582335396E+02  0.144644368703E+02
 -0.568723877667E+02 -0.270615845513E+02 -0.247206731881E+01
[...]
POINT_DATA                4802
SCALARS phi float 1
LOOKUP_TABLE default
  0.000000000000E+00
 -0.266453525910E-14
  0.133226762955E-14
  0.310862446895E-14
 -0.277555756156E-14
  0.777156117238E-15
  0.421884749358E-14
 -0.222044604925E-14
 -0.233146835171E-14
 -0.166533453694E-14
 -0.325602006023E-15
 -0.348679418671E-15
  0.777156117238E-15
  0.321964677141E-14
 -0.694749128832E-15
  0.336405911266E-15
 -0.976996261670E-14
  0.399680288865E-14
  0.204281036531E-13
  0.666133814775E-14
  0.532907051820E-14
 -0.488498130835E-14
 -0.128785870857E-13
 -0.164313007645E-13
  0.599520433298E-14
  0.666133814775E-14
  0.599520433298E-14
 -0.599520433298E-14
  0.122124532709E-14
 -0.317816926205E-15
 -0.133226762955E-14
 -0.659194920871E-16
  0.222044604925E-15
  0.444089209850E-15
 -0.689208686324E-15
 -0.850014503229E-16
 -0.577315972805E-14
 -0.128785870857E-13
 -0.555111512313E-14
  0.666133814775E-14
  0.128785870857E-13
 -0.128785870857E-13
  0.310862446895E-14
 -0.155431223448E-14
  0.333066907388E-15
 -0.366373598126E-14
 -0.444089209850E-15
 -0.133226762955E-14
  0.133226762955E-13
  0.204281036531E-13
  0.888178419700E-15
  0.399680288865E-14
  0.133226762955E-14
  0.000000000000E+00
  0.754951656745E-14
  0.355271367880E-14
 -0.355271367880E-14
 -0.532907051820E-14
  0.777156117238E-14
  0.126565424807E-13
  0.133226762955E-14
  0.843769498715E-14
 -0.284217094304E-13
  0.124344978758E-13
  0.799360577730E-14
 -0.133226762955E-14
 -0.301980662698E-13
  0.888178419700E-15
 -0.142108547152E-13
 -0.799360577730E-14
  0.106581410364E-13
  0.133226762955E-13
  0.255351295664E-14
 -0.111022302463E-15
  0.710542735760E-14
 -0.865973959208E-14
  0.499600361081E-14
  0.917218097264E-16
  0.510702591328E-14
  0.322658566532E-15
  0.621724893790E-14
  0.159872115546E-13
  0.488498130835E-13
 -0.976996261670E-14
 -0.150990331349E-13
 -0.266453525910E-14
  0.888178419700E-14
  0.364153152077E-13
 -0.255351295664E-14
 -0.233146835171E-14
  0.199840144433E-14
 -0.555111512313E-14
 -0.666133814775E-15
 -0.632827124036E-14
  0.444395835777E-15
 -0.249800180541E-15
 -0.532907051820E-14
 -0.888178419700E-15
 -0.488498130835E-14
  0.888178419700E-14
  0.128785870857E-13
 -0.444089209850E-15
  0.128785870857E-13
 -0.666133814775E-14
  0.186517468137E-13
  0.710542735760E-14
 -0.155431223448E-13
 -0.213162820728E-13
  0.186517468137E-13
  0.137667655054E-13
 -0.208721928630E-13
  0.000000000000E+00
  0.488498130835E-14
 -0.195399252334E-13
  0.444089209850E-14
 -0.666133814775E-14
  0.150990331349E-13
 -0.159872115546E-13
 -0.195399252334E-13
 -0.257571741713E-13
 -0.754951656745E-14
  0.444089209850E-14
  0.150990331349E-13
 -0.310862446895E-13
  0.444089209850E-15
 -0.177635683940E-14
 -0.115463194561E-13
  0.177635683940E-13
  0.666133814775E-14
  0.444089209850E-15
 -0.888178419700E-14
  0.208721928630E-13
 -0.888178419700E-15
  0.111022302463E-13
 -0.115463194561E-13
  0.133226762955E-14
  0.177635683940E-13
  0.177635683940E-14
  0.000000000000E+00
 -0.399680288865E-13
  0.124344978758E-13
 -0.444089209850E-14
 -0.381916720471E-13
 -0.115463194561E-13
 -0.643929354283E-14
 -0.133226762955E-14
  0.176741894774E-15
 -0.381639164715E-16
  0.204281036531E-13
 -0.595079541199E-13
  0.373034936274E-13
  0.177635683940E-14
  0.230926389122E-13
  0.106581410364E-13
 -0.710542735760E-14
 -0.115463194561E-13
  0.999200722163E-15
 -0.210942374679E-14
 -0.444089209850E-14
  0.222044604925E-15
 -0.310862446895E-13
 -0.124344978758E-13
 -0.222044604925E-13
 -0.444089209850E-14
  0.222044604925E-13
  0.248689957516E-13
 -0.177635683940E-14
  0.888178419700E-14
 -0.399680288865E-14
 -0.166533453694E-14
  0.888178419700E-15
  0.643929354283E-14
  0.355271367880E-14
  0.266453525910E-14
 -0.109615380737E-15
 -0.274086309204E-15
  0.488498130835E-14
 -0.888178419700E-15
  0.137667655054E-13
 -0.577315972805E-14
  0.799360577730E-14
  0.976996261670E-14
  0.621724893790E-14
 -0.168753899743E-13
  0.177635683940E-13
  0.213162820728E-13
 -0.444089209850E-15
 -0.976996261670E-14
  0.310862446895E-14
 -0.310862446895E-14
 -0.466293670343E-14
  0.732747196253E-14
  0.355271367880E-13
  0.444089209850E-14
 -0.266453525910E-14
  0.177635683940E-13
 -0.399680288865E-13
  0.408562073062E-13
  0.195399252334E-13
 -0.213162820728E-13
  0.444089209850E-14
 -0.106581410364E-13
 -0.159872115546E-13
 -0.222044604925E-13
 -0.106581410364E-13
 -0.142108547152E-13
 -0.666133814775E-14
  0.244249065418E-13
  0.355271367880E-14
 -0.799360577730E-14
 -0.488498130835E-14
 -0.364153152077E-13
  0.142108547152E-13
  0.417443857259E-13
  0.106581410364E-13
  0.355271367880E-14
 -0.284217094304E-13
 -0.186517468137E-13
 -0.115463194561E-13
 -0.186517468137E-13
 -0.186517468137E-13
 -0.532907051820E-14
  0.355271367880E-14
 -0.284217094304E-13
 -0.222044604925E-14
  0.444089209850E-14
  0.266453525910E-14
 -0.204281036531E-13
  0.186517468137E-13
  0.444089209850E-14
  0.444089209850E-15
  0.843769498715E-14
  0.168753899743E-13
 -0.888178419700E-14
 -0.355271367880E-13
 -0.239808173319E-13
  0.177635683940E-14
 -0.279776202206E-13
 -0.444089209850E-14
 -0.328626015289E-13
  0.177635683940E-14
 -0.432986979604E-14
 -0.418713796816E-16
  0.659194920871E-16
  0.106581410364E-13
  0.150990331349E-13
  0.133226762955E-13
 -0.364153152077E-13
  0.266453525910E-14
  0.000000000000E+00
  0.888178419700E-14
 -0.506261699229E-13
 -0.288657986403E-14
 -0.444089209850E-15
  0.233146835171E-14
  0.421884749358E-14
 -0.188737914186E-14
 -0.510702591328E-14
  0.791425234267E-16
 -0.589805981832E-16
 -0.177635683940E-13
 -0.364153152077E-13
 -0.177635683940E-14
 -0.426325641456E-13
 -0.328626015289E-13
  0.888178419700E-14
  0.177635683940E-14
 -0.230926389122E-13
  0.455191440096E-14
  0.122124532709E-14
  0.444089209850E-15
  0.666133814775E-14
  0.976996261670E-14
 -0.355271367880E-14
  0.710542735760E-14
  0.355271367880E-14
  0.754951656745E-14
  0.555111512313E-14
 -0.621724893790E-14
 -0.222044604925E-15
  0.266453525910E-14
 -0.115463194561E-13
  0.888178419700E-14
  0.124344978758E-13
  0.000000000000E+00
  0.754951656745E-14
  0.115463194561E-13
 -0.266453525910E-14
  0.222044604925E-14
 -0.488498130835E-14
 -0.643929354283E-14
 -0.621724893790E-14
  0.701660951563E-13
  0.799360577730E-14
  0.452970994047E-13
  0.355271367880E-13
  0.159872115546E-13
 -0.142108547152E-13
 -0.293098878501E-13
  0.621724893790E-14
  0.355271367880E-14
  0.119904086660E-13
 -0.310862446895E-14
 -0.106581410364E-13
 -0.888178419700E-14
 -0.444089209850E-13
 -0.266453525910E-13
  0.408562073062E-13
  0.115463194561E-13
  0.239808173319E-13
  0.479616346638E-13
  0.710542735760E-14
  0.266453525910E-13
  0.532907051820E-14
  0.195399252334E-13
 -0.106581410364E-13
 -0.239808173319E-13
  0.222044604925E-13
  0.568434188608E-13
  0.355271367880E-13
 -0.248689957516E-13
 -0.168753899743E-13
  0.346389583683E-13
 -0.621724893790E-14
 -0.444089209850E-15
 -0.710542735760E-14
  0.932587340685E-14
  0.226485497024E-13
  0.257571741713E-13
  0.888178419700E-14
 -0.390798504668E-13
 -0.293098878501E-13
  0.239808173319E-13
 -0.976996261670E-14
 -0.843769498715E-14
  0.222044604925E-13
  0.577315972805E-14
 -0.128785870857E-13
 -0.355271367880E-14
  0.186517468137E-13
  0.168753899743E-13
  0.239808173319E-13
 -0.186517468137E-13
  0.444089209850E-14
  0.150990331349E-13
 -0.115463194561E-13
  0.257571741713E-13
 -0.976996261670E-14
 -0.128785870857E-13
 -0.115463194561E-13
 -0.150990331349E-13
 -0.310862446895E-14
  0.106581410364E-13
  0.728306304154E-13
  0.204281036531E-13
 -0.106581410364E-13
  0.550670620214E-13
 -0.124344978758E-13
 -0.177635683940E-14
  0.381916720471E-13
  0.000000000000E+00
  0.233146835171E-14
 -0.555111512313E-14
  0.888178419700E-15
 -0.432986979604E-14
 -0.111022302463E-15
 -0.302672824141E-15
  0.346944695195E-15
 -0.477395900589E-14
  0.333066907388E-15
 -0.300212193429E-15
 -0.124900090270E-15
 -0.195399252334E-13
  0.213162820728E-13
  0.888178419700E-14
 -0.124344978758E-13
 -0.426325641456E-13
 -0.408562073062E-13
  0.195399252334E-13
 -0.373034936274E-13
  0.555111512313E-15
 -0.210942374679E-14
  0.888178419700E-15
 -0.106581410364E-13
  0.142108547152E-13
 -0.159872115546E-13
 -0.239808173319E-13
 -0.444089209850E-14
 -0.461852778244E-13
 -0.222044604925E-13
 -0.506261699229E-13
  0.355271367880E-14
  0.976996261670E-14
  0.532907051820E-14
  0.133226762955E-13
 -0.843769498715E-14
  0.532907051820E-14
  0.115463194561E-13
  0.888178419700E-14
 -0.195399252334E-13
  0.000000000000E+00
 -0.159872115546E-13
 -0.621724893790E-13
  0.888178419700E-15
 -0.976996261670E-14
  0.159872115546E-13
 -0.603961325396E-13
 -0.106581410364E-13
 -0.106581410364E-13
  0.142108547152E-13
  0.124344978758E-13
  0.213162820728E-13
  0.204281036531E-13
 -0.150990331349E-13
 -0.133226762955E-13
 -0.976996261670E-14
  0.444089209850E-13
 -0.550670620214E-13
 -0.222044604925E-13
 -0.346389583683E-13
 -0.111022302463E-14
 -0.510702591328E-14
 -0.106581410364E-13
 -0.195399252334E-13
  0.222044604925E-14
  0.888178419700E-14
  0.466293670343E-14
  0.999200722163E-14
 -0.355271367880E-13
  0.515143483426E-13
  0.150990331349E-13
  0.124344978758E-13
  0.124344978758E-13
  0.104360964315E-13
  0.888178419700E-15
  0.137667655054E-13
  0.355271367880E-14
 -0.133226762955E-13
 -0.244249065418E-14
  0.310862446895E-14
  0.905941988094E-13
  0.177635683940E-13
 -0.106581410364E-13
  0.834887714518E-13
  0.888178419700E-14
 -0.248689957516E-13
 -0.106581410364E-13
 -0.710542735760E-14
  0.150990331349E-13
  0.976996261670E-14
 -0.119904086660E-13
  0.115463194561E-13
 -0.888178419700E-15
 -0.976996261670E-14
  0.532907051820E-14
 -0.399680288865E-13
 -0.102140518266E-13
  0.355271367880E-14
 -0.799360577730E-14
  0.266453525910E-14
  0.355271367880E-14
  0.399680288865E-14
  0.199840144433E-13
 -0.799360577730E-14
 -0.621724893790E-14
  0.106581410364E-13
  0.177635683940E-13
 -0.444089209850E-13
  0.550670620214E-13
  0.275335310107E-13
 -0.888178419700E-14
 -0.284217094304E-13
 -0.621724893790E-14
 -0.621724893790E-13
  0.177635683940E-14
 -0.159872115546E-13
  0.159872115546E-13
 -0.159872115546E-13
 -0.621724893790E-14
 -0.204281036531E-13
  0.310862446895E-13
  0.346389583683E-13
  0.000000000000E+00
 -0.452970994047E-13
  0.799360577730E-14
 -0.150990331349E-13
  0.124344978758E-13
  0.115463194561E-13
 -0.621724893790E-14
 -0.310862446895E-13
 -0.239808173319E-13
 -0.293098878501E-13
 -0.159872115546E-13
 -0.275335310107E-13
  0.532907051820E-14
 -0.301980662698E-13
 -0.461852778244E-13
 -0.710542735760E-14
  0.248689957516E-13
  0.142108547152E-13
 -0.888178419700E-15
  0.248689957516E-13
 -0.355271367880E-14
  0.328626015289E-13
  0.150990331349E-13
  0.621724893790E-14
 -0.621724893790E-14
 -0.106581410364E-13
 -0.115463194561E-13
 -0.222044604925E-13
 -0.444089209850E-14
 -0.111022302463E-13
 -0.257571741713E-13
  0.177635683940E-13
 -0.106581410364E-13
 -0.106581410364E-13
 -0.399680288865E-13
  0.621724893790E-14
 -0.799360577730E-14
 -0.621724893790E-14
  0.275335310107E-13
  0.532907051820E-14
 -0.621724893790E-14
  0.150990331349E-13
 -0.213162820728E-13
 -0.248689957516E-13
 -0.639488462184E-13
 -0.799360577730E-14
 -0.532907051820E-14
  0.244249065418E-14
 -0.537575389206E-15
  0.902056207508E-16
  0.355271367880E-14
 -0.781597009336E-13
  0.888178419700E-14
  0.426325641456E-13
  0.213162820728E-13
  0.319744231092E-13
 -0.603961325396E-13
 -0.586197757002E-13
  0.333066907388E-15
 -0.233146835171E-14
  0.199840144433E-14
  0.999200722163E-14
 -0.455191440096E-14
  0.444089209850E-14
 -0.303972172682E-15
 -0.457966997658E-15
  0.266453525910E-14
  0.555111512313E-14
  0.244249065418E-14
  0.355271367880E-14
 -0.142108547152E-13
  0.248689957516E-13
  0.230926389122E-13
 -0.373034936274E-13
 -0.213162820728E-13
 -0.159872115546E-13
  0.390798504668E-13
  0.159872115546E-13
  0.106581410364E-13
 -0.177635683940E-13
 -0.390798504668E-13
  0.000000000000E+00
  0.555111512313E-14
 -0.177635683940E-14
  0.115463194561E-13
 -0.377475828373E-14
  0.301980662698E-13
  0.888178419700E-14
 -0.568434188608E-13
  0.390798504668E-13
  0.710542735760E-14
 -0.288657986403E-14
  0.275335310107E-13
  0.399680288865E-14
  0.133226762955E-14
  0.577315972805E-14
  0.532907051820E-14
 -0.377475828373E-14
 -0.195399252334E-13
  0.355271367880E-13
  0.230926389122E-13
 -0.532907051820E-13
  0.599520433298E-14
 -0.310862446895E-14
  0.106581410364E-13
  0.133226762955E-14
 -0.248689957516E-13
 -0.248689957516E-13
  0.124344978758E-13
 -0.692779167366E-13
  0.479616346638E-13
  0.142108547152E-13
  0.426325641456E-13
 -0.177635683940E-14
 -0.115463194561E-13
 -0.754951656745E-14
  0.888178419700E-15
  0.710542735760E-14
  0.888178419700E-14
 -0.408562073062E-13
 -0.124344978758E-13
  0.159872115546E-13
  0.177635683940E-14
 -0.270894418009E-13
 -0.222044604925E-14
  0.222044604925E-14
 -0.111022302463E-13
  0.168753899743E-13
  0.102140518266E-13
  0.177635683940E-14
  0.355271367880E-14
  0.799360577730E-14
  0.199840144433E-13
  0.444089209850E-14
 -0.355271367880E-14
  0.586197757002E-13
 -0.888178419700E-14
  0.266453525910E-13
  0.497379915032E-13
  0.976996261670E-13
 -0.213162820728E-13
 -0.603961325396E-13
  0.133226762955E-13
 -0.515143483426E-13
 -0.239808173319E-13
  0.248689957516E-13
  0.888178419700E-15
  0.266453525910E-13
 -0.239808173319E-13
 -0.976996261670E-14
  0.399680288865E-13
 -0.399680288865E-13
 -0.710542735760E-14
 -0.293098878501E-13
 -0.328626015289E-13
 -0.399680288865E-13
 -0.142108547152E-13
  0.444089209850E-14
  0.150990331349E-13
  0.799360577730E-14
 -0.106581410364E-13
  0.310862446895E-13
  0.159872115546E-13
  0.106581410364E-13
  0.888178419700E-14
  0.541788836017E-13
 -0.284217094304E-13
  0.275335310107E-13
  0.373034936274E-13
  0.168753899743E-13
  0.124344978758E-13
  0.310862446895E-13
 -0.248689957516E-13
 -0.710542735760E-14
  0.888178419700E-15
 -0.186517468137E-13
 -0.444089209850E-14
  0.222044604925E-13
 -0.888178419700E-14
  0.177635683940E-14
  0.461852778244E-13
  0.532907051820E-14
  0.754951656745E-14
  0.102140518266E-13
 -0.799360577730E-14
  0.279776202206E-13
 -0.710542735760E-14
  0.142108547152E-13
 -0.319744231092E-13
  0.444089209850E-14
 -0.710542735760E-14
  0.799360577730E-14
 -0.532907051820E-14
  0.444089209850E-14
  0.497379915032E-13
 -0.373034936274E-13
 -0.781597009336E-13
 -0.230926389122E-13
 -0.399680288865E-14
  0.222044604925E-13
 -0.532907051820E-14
 -0.119904086660E-13
 -0.177635683940E-13
  0.301980662698E-13
  0.337507799486E-13
  0.870414851306E-13
 -0.337507799486E-13
  0.248689957516E-13
 -0.257571741713E-13
  0.976996261670E-14
 -0.106581410364E-13
  0.621724893790E-14
 -0.532907051820E-14
  0.355271367880E-14
  0.230926389122E-13
  0.115463194561E-13
 -0.177635683940E-13
  0.301980662698E-13
 -0.541788836017E-13
  0.364153152077E-13
 -0.124344978758E-13
 -0.355271367880E-13
  0.103028696685E-12
  0.941469124882E-13
 -0.213162820728E-13
  0.532907051820E-14
 -0.763833440942E-13
 -0.586197757002E-13
 -0.852651282912E-13
 -0.301980662698E-13
  0.249800180541E-14
 -0.333066907388E-15
 -0.999200722163E-15
  0.128785870857E-13
 -0.160982338571E-14
 -0.832667268469E-15
  0.194064989095E-15
 -0.888178419700E-15
  0.832667268469E-15
 -0.122124532709E-14
 -0.224855060244E-15
  0.124900090270E-15
 -0.177635683940E-13
  0.550670620214E-13
  0.710542735760E-14
  0.319744231092E-13
  0.710542735760E-14
 -0.177635683940E-14
 -0.603961325396E-13
 -0.497379915032E-13
  0.233146835171E-14
 -0.299760216649E-14
  0.333066907388E-15
 -0.177635683940E-14
 -0.310862446895E-13
  0.266453525910E-13
 -0.213162820728E-13
  0.230926389122E-13
 -0.444089209850E-13
 -0.284217094304E-13
  0.106581410364E-13
 -0.177635683940E-14
 -0.532907051820E-13
  0.435207425653E-13
 -0.426325641456E-13
  0.976996261670E-14
 -0.710542735760E-14
 -0.319744231092E-13
 -0.799360577730E-14
  0.168753899743E-13
 -0.888178419700E-14
  0.710542735760E-14
 -0.124344978758E-13
 -0.266453525910E-14
  0.746069872548E-13
 -0.888178419700E-15
  0.532907051820E-14
  0.266453525910E-13
 -0.444089209850E-14
 -0.355271367880E-14
 -0.373034936274E-13
 -0.106581410364E-13
 -0.497379915032E-13
 -0.408562073062E-13
 -0.746069872548E-13
  0.195399252334E-13
  0.488498130835E-14
 -0.310862446895E-14
  0.210942374679E-14
  0.399680288865E-14
  0.373034936274E-13
 -0.461852778244E-13
  0.000000000000E+00
  0.550670620214E-13
  0.142108547152E-13
 -0.923705556488E-13
  0.603961325396E-13
  0.603961325396E-13
  0.222044604925E-15
  0.111022302463E-14
 -0.177635683940E-14
 -0.222044604925E-14
  0.444089209850E-14
  0.000000000000E+00
 -0.277555756156E-14
 -0.166533453694E-14
  0.461852778244E-13
 -0.497379915032E-13
 -0.426325641456E-13
  0.373034936274E-13
 -0.142108547152E-13
 -0.643929354283E-14
  0.111022302463E-14
 -0.377475828373E-14
 -0.230926389122E-13
  0.159872115546E-13
 -0.675015598972E-13
  0.000000000000E+00
 -0.888178419700E-14
 -0.515143483426E-13
 -0.781597009336E-13
  0.728306304154E-13
 -0.128785870857E-13
  0.310862446895E-14
  0.377475828373E-14
  0.102140518266E-13
 -0.177635683940E-13
 -0.373034936274E-13
 -0.195399252334E-13
 -0.888178419700E-14
 -0.159872115546E-13
  0.310862446895E-14
  0.888178419700E-14
 -0.266453525910E-13
 -0.124344978758E-13
 -0.532907051820E-14
  0.532907051820E-14
  0.284217094304E-13
  0.373034936274E-13
  0.177635683940E-14
  0.621724893790E-13
 -0.248689957516E-13
  0.666133814775E-14
 -0.577315972805E-14
 -0.128785870857E-13
  0.222044604925E-14
 -0.932587340685E-14
 -0.710542735760E-14
 -0.510702591328E-14
 -0.104360964315E-13
 -0.133226762955E-13
  0.115463194561E-13
  0.000000000000E+00
 -0.106581410364E-13
 -0.710542735760E-14
  0.817124146124E-13
  0.710542735760E-13
  0.248689957516E-13
  0.710542735760E-14
 -0.923705556488E-13
 -0.355271367880E-14
 -0.497379915032E-13
  0.301980662698E-13
 -0.128785870857E-13
  0.115463194561E-13
  0.186517468137E-13
 -0.932587340685E-14
  0.577315972805E-14
  0.115463194561E-13
  0.253130849615E-13
  0.355271367880E-14
  0.159872115546E-13
  0.444089209850E-13
  0.639488462184E-13
  0.532907051820E-14
 -0.266453525910E-13
  0.319744231092E-13
  0.355271367880E-14
  0.115463194561E-13
 -0.106581410364E-13
 -0.888178419700E-15
 -0.111022302463E-13
 -0.159872115546E-13
  0.799360577730E-14
  0.177635683940E-13
  0.710542735760E-14
 -0.373034936274E-13
 -0.524025267623E-13
  0.355271367880E-13
 -0.133226762955E-13
  0.213162820728E-13
 -0.195399252334E-13
  0.390798504668E-13
 -0.168753899743E-13
  0.532907051820E-14
  0.266453525910E-14
 -0.399680288865E-13
 -0.222044604925E-13
 -0.275335310107E-13
  0.799360577730E-14
 -0.106581410364E-13
  0.888178419700E-15
 -0.204281036531E-13
  0.337507799486E-13
  0.435207425653E-13
 -0.213162820728E-13
 -0.532907051820E-14
 -0.710542735760E-14
  0.976996261670E-14
 -0.284217094304E-13
  0.213162820728E-13
 -0.435207425653E-13
  0.248689957516E-13
 -0.213162820728E-13
  0.177635683940E-14
 -0.133226762955E-14
  0.799360577730E-14
  0.222044604925E-13
  0.461852778244E-13
 -0.106581410364E-13
  0.888178419700E-14
  0.888178419700E-14
 -0.319744231092E-13
  0.177635683940E-14
  0.000000000000E+00
 -0.266453525910E-13
  0.177635683940E-13
  0.177635683940E-14
  0.337507799486E-13
  0.373034936274E-13
  0.150990331349E-13
  0.133226762955E-13
 -0.355271367880E-14
 -0.177635683940E-14
 -0.799360577730E-14
 -0.293098878501E-13
  0.266453525910E-14
  0.213162820728E-13
  0.284217094304E-13
 -0.639488462184E-13
 -0.710542735760E-14
 -0.568434188608E-13
  0.142108547152E-13
 -0.710542735760E-14
 -0.213162820728E-13
 -0.976996261670E-14
 -0.122124532709E-14
  0.249800180541E-14
  0.532907051820E-14
 -0.333066907388E-15
  0.444089209850E-15
 -0.999200722163E-15
 -0.246973631596E-15
 -0.333066907388E-15
 -0.728306304154E-13
  0.639488462184E-13
 -0.532907051820E-14
 -0.373034936274E-13
 -0.142108547152E-13
  0.355271367880E-14
 -0.195399252334E-13
 -0.461852778244E-13
 -0.283106871279E-14
 -0.555111512313E-16
 -0.274888449405E-15
 -0.437150315946E-15