# vtk DataFile Version 3.0
MFTran results file. Generated by MFTran, USU AeroLab (c) 2021.
ASCII
DATASET POLYDATA
POINTS                1202 float
    -59.538555952918     -12.736386197606      -2.409287590162
    -59.538566233172     -12.736221554125       2.409266896001
    -59.538566231673      -7.927336036855      -2.409288439241
    -59.538555847638      -7.927171541359       2.409267059244
    -58.935815424693     -17.507510127629      -2.409287634878
    -58.935846338530     -17.507347727578       2.409266726018
    -58.935846699687     -12.698136342635       7.189826269468
    -58.935846727071      -7.965420415720      -7.189846852202
    -58.935815707796      -7.964928900911       7.189826374740
    -58.935845987680      -3.156206277952      -2.409288611030
    -58.935815099068      -3.156044456244       2.409266983726
    -58.935804478217     -12.698626984506      -7.189846772226
    -58.342564878137      -3.269047662714       7.189826600125
    -58.342650065142     -17.394023829668       7.189825618266
    -58.342649910267      -3.269533948066      -7.189845999250
    -58.342546220138     -17.394508863832      -7.189845957394
    -57.739905939901       1.501759595092      -2.409287466006
    -57.739854671772       1.501917214209       2.409266357991
    -57.739895981197     -12.622726705106      11.856999047255
    -57.739844747141      -8.040011244729      11.856999509572
    -57.739836239962     -22.165470898798      -2.409288106182
    -57.739887325490     -22.165313651938       2.409266281907
    -57.739837493559     -12.623537416849     -11.857018619991
    -57.739888649115      -8.040823411427     -11.857018017730
    -57.165434565173      -3.493434353910      11.856999032348
    -57.165433648274       1.315449309989       7.189825851572
    -57.165575622715     -17.169321100445      11.856999039007
    -57.165575313059      -3.494232978547     -11.857018972467
    -57.165574674610       1.314978578865      -7.189846132141
    -57.165414973538     -21.979000940836      -7.189846287658
    -57.165567258839     -21.978531843132       7.189825976120
    -57.165415778544     -17.170119728734     -11.857018666374
    -56.025958171174       0.944523801803     -11.857019040296
    -56.025707198743       0.945299288759      11.856999038668
    -56.025946853254     -21.608081809445      11.856999550767
    -56.025688409267     -21.608854856637     -11.857018512225
    -55.969515046086      -8.151237072255      16.337175727667
    -55.969582954294       5.973102991692      -2.409287337186
    -55.969512527890       5.973252416357       2.409267019690
    -55.969578087666     -12.511195748465      16.337175218731
    -55.969493765644     -26.636805100853      -2.409288221980
    -55.969563959212     -26.636655932680       2.409266284446
    -55.969496495926     -12.512314438949     -16.337193793215
    -55.969566499156      -8.152354425856     -16.337194314092
    -55.422998820253      -3.825664088062      16.337175590889
    -55.422996382459       5.716263122851       7.189825705859
    -55.423197415684     -16.836791750788      16.337175365530
    -55.423197364661      -3.826766574859     -16.337194101514
    -55.423194853284       5.715815021586      -7.189846912963
    -55.422974194001     -26.379815386091      -7.189846605389
    -55.423183556678     -26.379370051453       7.189826555266
    -55.422976350437     -16.837882257078     -16.337193971609
    -54.338647726236       0.397304177054      16.337175560338
    -54.338992491910       5.205448075370     -11.857018968861
    -54.338646337440       5.206186427526      11.856999106091
    -54.338981347338     -25.869001362381      11.856999294217
    -54.338982702784     -21.059790432714      16.337175465618
    -54.338982809438       0.396235217528     -16.337193742049
    -54.338628005800     -25.869736626016     -11.857018548980
    -54.338629099300     -21.060846548012     -16.337193977789
    -53.652728177965      -8.296849227889      20.559705892257
    -53.652812034285      10.187311435927      -2.409287889553
    -53.652723871616      10.187450213927       2.409267183877
    -53.652805073641     -12.365290426542      20.559706356228
    -53.652804893376      -8.298257124978     -20.559717896153
    -53.652705395278     -30.850999819834      -2.409287669421
    -53.652793553644     -30.850860802693       2.409266603325
    -53.652708850488     -12.366698011320     -20.559717855904
    -53.142736269810       9.863991958689       7.189826647652
    -53.142728354899      -4.260499791225      20.559706252755
    -53.142988839696       9.863566826816      -7.189846436254
    -53.142984689020     -16.401666594521      20.559706747543
    -53.142985037209      -4.261886022720     -20.559717610139
    -53.142970037520     -30.527126989119       7.189826235737
    -53.142706629930     -30.527530737537      -7.189846853041
    -53.142709228671     -16.403051117156     -20.559718042770
    -52.733580152642       4.451067434620      16.337175967222
    -52.734049667190       4.450050605706     -16.337194163414
    -52.734038620889     -25.113607802633      16.337175490678
    -52.733554355300     -25.114609812367     -16.337194064117
    -52.130869448370       9.222029882305      11.856998588127
    -52.130860394368      -0.319896793289      20.559706626279
    -52.131293764836       9.221339184018     -11.857019002245
    -52.131288675396     -20.342308019185      20.559706703975
    -52.131288241803      -0.321239108669     -20.559718144535
    -52.131275070776     -29.884895621182      11.856999005059
    -52.130839877208     -29.885572251187     -11.857018350990
    -52.130841720665     -20.343649386740     -20.559717658482
    -50.826141281021      14.077920688981      -2.409287314997
    -50.826035613631      14.078048301080       2.409266574915
    -50.826134573829     -12.187321670433      24.458001116466
    -50.826029232609      -8.474553220760      24.458001030837
    -50.826122999282      -8.476229406333     -24.458020254092
    -50.826005881874     -34.741597843910      -2.409287335411
    -50.826111285044     -34.741470307418       2.409266679014
    -50.826010294935     -12.188986899680     -24.458019994150
    -50.633094208277       3.462813961548      20.559706343099
    -50.633093184765       8.271695843546      16.337175689119
    -50.633683276883       3.461534472325     -20.559717943945
    -50.633681910178       8.270744797744     -16.337194315402
    -50.633670693663     -28.934297200637      16.337175785577
    -50.633672476948     -24.125085587781      20.559706207056
    -50.633071748370     -24.126352472693     -20.559717778057
    -50.633063481987     -28.935233011560     -16.337194222593
    -50.360596507522      13.693217255288       7.189826273333
    -50.360907842239     -15.870816602094      24.458000801508
    -50.360593236526      -4.791082124370      24.458000791892
    -50.360902886881      13.692827468915      -7.189846333144
    -50.360581778224     -15.872465212097     -24.458020030056
    -50.360895785557      -4.792732615241     -24.458020446687
    -50.360884264397     -34.356388501313       7.189826166856
    -50.360559110234     -34.356756506963      -7.189846345958
    -49.437174396419      -1.194988009189      24.458001028269
    -49.437171422298      12.929497764062      11.856998868176
    -49.437682347067     -19.466961036124      24.458000649426
    -49.437681247028      -1.196587629557     -24.458020368116
    -49.437677108156      12.928872309237     -11.857019584535
    -49.437659158219     -33.592420650645      11.856999017314
    -49.437141637975     -33.593038819047     -11.857018604428
    -49.437144220029     -19.468556826019     -24.458020352280
    -48.673027443800       7.027974091562      20.559706493172
    -48.673771192931       7.026779753055     -20.559717981094
    -48.673760661219     -27.690332169941      20.559706017885
    -48.672997211340     -27.691512858717     -20.559718099493
    -48.070314991782       2.257011819777      24.458000937989
    -48.071026772189      11.798072622497     -16.337194173728
    -48.070313015127      11.798935194727      16.337175387787
    -48.071021628944       2.255488509157     -24.458020222387
    -48.071008393827     -32.461621887617      16.337175469808
    -48.071011171749     -22.919033442285      24.458000541417
    -48.070284543159     -22.920552802304     -24.458019862880
    -48.070275576187     -32.462473274809     -16.337194455425
    -47.534007815758      -8.681547921677      27.970576970179
    -47.534122131915      17.583572762203      -2.409287970599
    -47.534002110377      17.583685377134       2.409267111494
    -47.534121034221     -11.980078840488      27.970576796742
    -47.534121102598      -8.683465103643     -27.970595705741
    -47.533989311173     -11.981994541946     -27.970595636670
    -47.533976174266     -38.247226565563      -2.409287715859
    -47.534095954043     -38.247113960221       2.409267227616
    -47.120477936736      17.143552586996       7.189826228320
    -47.120475507812      -5.409044043298      27.970577324376
    -47.120828950443      17.143215831518      -7.189847081617
    -47.120824296333     -15.252616917888      27.970576914864
    -47.120824766018      -5.410932215666     -27.970595503784
    -47.120807472885     -37.806765869452       7.189825980576
    -47.120453702136     -15.254493164628     -27.970595283807
    -47.120440703666     -37.807091781151      -7.189846573341
    -46.300050694497      16.270120208175      11.856999172601
    -46.300047559088      -2.214171955932      27.970576915716
    -46.300635878817      16.269563791458     -11.857018587467
    -46.300630123023     -18.447541352252      27.970576869829
    -46.300630597467      -2.216002579169     -27.970595100414
    -46.300025696545     -18.449368040715     -27.970595454281
    -46.300605956889     -36.933110566985      11.856998967886
    -46.300013077901     -36.933659895483     -11.857018528662
[...]
POINT_DATA                1202
SCALARS phi float 1
LOOKUP_TABLE default
      0.269805446064
     -0.270214803464
      0.270753606977
     -0.270300145011
      0.271720614896
     -0.271871494618
     -0.822655666104
      0.823291656159
     -0.824892615019
      0.271499084529
     -0.271401766836
      0.824053447366
     -0.824434038282
     -0.825566491477
      0.825399745974
      0.825151958397
      0.269165676829
     -0.270091344891
     -1.414702098224
     -1.414526036031
      0.270058026748
     -0.269190825732
      1.414740265442
      1.414460653761
     -1.413859732567
     -0.822760453960
     -1.413559542839
      1.413679788384
      0.822815570806
      0.822444113537
     -0.823154987780
      1.413757511124
      1.415541729849
     -1.414709097478
     -1.415374864339
      1.414717123092
     -2.065936193583
      0.272416640420
     -0.270755708471
     -2.069077229614
      0.270549028331
     -0.271859738237
      2.066746639886
      2.068756938736
     -2.067855836153
     -0.825828557070
     -2.065749026745
      2.065479651593
      0.824938145104
      0.825634072100
     -0.824229511011
      2.066928888502
     -2.067894474969
      1.412889762765
     -1.414543158619
     -1.413362319335
     -2.068207564560
      2.068980839554
      1.414572743098
      2.068582519661
     -2.810193933670
      0.269106742819
     -0.271173003504
     -2.810040491224
      2.810140356021
      0.271408153237
     -0.270088755226
      2.810026563191
     -0.822742485363
     -2.810691482389
      0.824091768706
     -2.811035319914
      2.811018255427
     -0.824910865743
      0.823431464852
      2.810773763449
     -2.065946532728
      2.066360780810
     -2.067506850388
      2.065723585454
     -1.413541583681
     -2.809868011833
      1.415714645509
     -2.809336609438
      2.809310794519
     -1.414988552188
      1.413593422577
      2.809959880282
      0.271658661998
     -0.269505796764
     -3.668965550393
     -3.672741742366
      3.668849215916
      0.269523345381
     -0.270459521338
      3.672338374893
     -2.810542069785
     -2.068722674780
      2.811388103280
      2.067485535285
     -2.066118086930
     -2.811152991028
      2.810391538904
      2.068489984062
     -0.824655401570
     -3.671836918901
     -3.669373064171
      0.823286758967
      3.670186280672
      3.672611730809
     -0.822583446389
      0.823688371202
     -3.671259373366
     -1.415583713561
     -3.670873199806
      3.669472069416
      1.413352043486
     -1.414330195186
      1.415304359371
      3.670280044123
     -2.810621020781
      2.809319122628
     -2.809942852288
      2.810675236769
     -3.671360780373
      2.067840739083
     -2.066727879965
      3.671330578272
     -2.069057168964
     -3.669673527312
      3.672112571241
      2.067278462811
     -4.672398626156
      0.270365393738
     -0.272349585227
     -4.674163223165
      4.674094449097
      4.672555119239
      0.271946717997
     -0.271604543594
     -0.824467013892
     -4.673388236181
      0.825454038186
     -4.672078771355
      4.671919416853
     -0.825787942734
      4.673147541608
      0.825404988323
     -1.412938761074
     -4.673312227063
      1.415017570571
     -4.673787948053
      4.674319205319
      4.673591626464
     -1.413774217215
      1.413571740958
     -3.669519255713
     -2.809403172584
      3.671072671142
      2.811107051754
     -3.672512342519
      2.809538052652
     -2.810122204011
      3.669286371233
     -4.672605195152
     -2.066773388014
      4.672253940256
      2.066431558095
     -4.673144433902
     -2.065781024199
      4.672447576646
      2.066193008642
     -3.672069288560
      3.670041578110
     -3.669181654952
      3.671824843552
      0.270536090059
     -0.268816655836
     -5.832868343867
     -5.830844901473
      5.834057348708
      0.269647873884
     -0.269343286388
      5.830447839668
     -4.673693508925
      2.809871657780
     -2.811539715242
     -4.672408193680
      4.673477128289
     -2.810940973770
      4.673650665765
      2.811175410832
     -5.834490464885
      0.822702549724
     -0.823020688859
     -5.833194575896
      5.831568541091
     -0.822930808226
      5.834165590458
      0.822413614507
     -1.415793561031
     -5.830615227580
      1.413880453451
     -5.830837815393
     -1.415226693284
      1.414799756522
      5.831398456026
      5.832428400069
     -5.833381015212
      2.068101821816
     -2.068851888368
     -5.834048378929
      5.832987338240
     -2.068074545078
      2.069150026487
      5.832461547022
     -4.672853470675
     -3.670343898067
      4.673217213927
      3.671364745536
     -4.674110578573
     -3.671619955627
      3.670794678682
      4.673036806546
     -5.832474117511
     -2.809151001654
      2.810477327029
     -2.809578127963
     -5.831345954337
      5.831822499224
      2.809831094668
      5.833336795519
     -7.134067061818
     -7.136300039766
      0.270763630822
     -0.272243036877
      7.132457531299
      0.270997364110
     -0.271761781328
      7.137045410947
     -0.825445460497
     -7.133578271056
     -7.132051637520
      0.825114665914
     -0.824315353472
      7.132184023654
      7.135640340110
      0.825643972203
     -4.672776327361
      4.672949364937
     -4.672368809278
      4.672683226605
     -7.136331438347
     -7.136761619595
      1.414778736365
     -1.413038472660
      7.134447704363
      1.414312236133
     -1.413637065512
      7.136090593918
     -5.831512167610
      3.671009285926
     -3.669926337422
      5.832519384325
     -3.671074422332
     -5.832658664419
      3.669588695181
      5.830980424282
     -7.133226130785
      2.067325173472
     -2.065278869654
     -7.132616320039
      7.133903211949
     -2.067678134692
      2.065533885992
      7.134114468036
     -7.134595179887
      2.810145870399
     -2.811239278797
     -7.135848789855
      7.135129808134
      2.810244972601
     -2.810823424728
      7.133710866629
     -5.833644291527
     -4.674162560905
      4.672975587229
     -4.673407466749
     -5.833059018247
      5.833173808100
      4.673989288868
      5.833717561289
     -7.135510037164
     -3.672792722734
      3.669510747542
     -7.134168240381
      7.134698241251
     -3.669556311260
      3.672799954416
      7.136182593426
     -8.402828041490
     -8.401153508984
      0.270962822433
     -0.269586369071
      0.271152909869
     -0.270310738804
      8.401543508389
      8.402738787332
      0.823892474035
     -0.823134029739
     -8.402046758387
     -8.403048994649
      8.402450302818
      8.401993199827
      0.823317221589
     -0.824928984156
     -8.401767988642
      1.413798712056
     -1.415382603205
     -8.401720138464
     -1.414574298894
      1.413963236701
      8.402317067906
      8.401729232870
     -5.831567140644
     -5.830979887517
      5.830775998292
      5.831909550179
     -8.401867855483
      2.066199651423
     -2.069330956227
     -8.402965577468
      8.403021706272
     -2.065968247326
      2.068561189815
      8.401699794673
     -7.133013533509
     -4.671651992706
     -7.133755497749
      7.133108296579
      4.673828868813
     -4.673287804633
      4.672194386999
      7.132816422862
     -8.402981514519
      2.810805381941
     -2.809621309990
     -8.401139749630
      8.401195663960
      2.810778691747
     -2.810241270840
      8.402763796381
     -8.401131620066
      3.672993200488
     -3.668322080393
     -8.403145028816
      8.402899871925
     -3.672605449053
      3.668837106507
      8.401475574126
     -7.135688601698
     -5.832254318832
     -7.136331554284
      7.137137594224
      5.834737621960
     -5.834424303063
      5.831846153664
      7.135442365724
     -8.403055402727
      4.671915602285
     -4.674561800097
     -8.401476915898
      8.401746843590
     -4.672590530547
      4.673638940318
      8.402765396826
      0.269787610052
     -0.271211430119
     -8.612589053762
     -8.617836225708
      8.614823850789
      8.615145181234
      0.269660526796
     -0.270096280767
     -0.824253167308
     -8.616809525029
     -8.613699887288
      0.823390043303
     -0.822588065704
      0.823786799221
      8.616831543542
      8.614947637157
     -1.413638463893
     -8.615235589441
     -8.614878307472
      1.415307280406
      8.616505163716
     -1.414730548436
      1.415046329225
      8.612116988814
     -7.134501328617
     -7.132070432450
      7.131175035514
      7.134871973929
     -2.065912491553
     -8.613484939753
     -8.617491552606
      2.069369967580
      8.612529774843
     -2.069207016362
      2.067023978751
      8.619174682169
     -8.401564686182
      5.829865463558
     -5.833833734045
     -8.402300966860
      8.402308633976
     -5.830368359500
      5.834026354042
      8.401882305587
     -8.611677023760
      2.809458948190
     -2.810823572603
     -8.618427716519
      8.619329174970
     -2.810010418957
      2.809703346814
      8.611609608821
     -8.618805642156
     -3.673042338164
     -8.611220953705
      3.668139183467
     -3.668809600197
      8.617485431065
      8.610067443287
      3.671962055394
     -8.402313887012
     -7.132997592611
     -8.402553077799
      7.137911749891
     -7.136881985487
      8.402178274803
      7.132980944750
      8.401935723989
     -8.612811129909
     -4.672030239839
     -8.618884050533
      4.674616275463
      8.620682191351
     -4.673978829644
      4.673264948704
      8.614650343490
     -8.615847939883
     -5.830042345401
     -8.612948688092
      5.834699578368
      8.610353057558
     -5.833804428247
      5.830272745880
      8.614327367990
     -8.402444841379
     -8.401347388211
      8.401998753907
      8.402793330139
     -4.054059719445
     -4.050956598970
      0.272218827883
     -0.270540023327
      4.054319820814
      4.051691238448
      0.271677840991
     -0.271973803405
     -4.055816375703
     -4.057394454589
      0.825464313936
     -0.824839855419
     -0.825725128630
      0.825456218361
      4.052964990613
      4.057748224120
     -8.616096881185
     -7.137377443573
     -8.615566590029
      7.131784492719
     -7.132974541099
      8.617013125241
      8.618592582806
      7.136694516144
     -4.049238369883
     -4.050364294492
      1.412867544240
     -1.414927128037
      4.055577447964
      4.047129345955
      1.413734888644
     -1.413501655257
     -2.067798596444
     -4.059368402912
     -4.054871354283
      2.065000857432
      4.049585312281
      4.061966601890
     -2.065525274034
      2.066569024778
     -4.047734050315
     -4.055172288359
      2.811417305541
     -2.809945966820
     -2.810858842155
      2.810889026490
      4.059744573614
      4.044749716751
     -4.058176913710
     -4.049560109901
      3.673283069550
     -3.669219367834
      4.061510541900
     -3.672467028734
      3.670689280847
      4.046694957215
     -8.613728641891
      8.402410557542
     -8.401553141707
     -8.403029286416
     -8.616507205968
      8.613740089137
      8.401554167777
      8.613260424306
     -4.058917416921
      4.671632230389
     -4.673828627520
     -4.051549410995
      4.059671789516
      4.048099629393
     -4.672057994622
      4.672519645369
     -4.053257723323
     -4.048937469342
      5.830906241081
     -5.834985290789
     -5.832142314314
      4.049899168752
      4.056255021495
      5.834281863021
      8.615163248262
     -8.616143118799
     -8.613352024592
      8.616396125707
     -4.056194920180
      7.136153000367
     -7.131079597870
     -4.055328834948
      4.053433002800
     -7.134838890769
      7.132567478969
      4.054599370086
     -4.052304358592
     -4.053704633750
      8.401951099038
     -8.402718095745
     -8.401610474320
      4.055063107531
      4.052782930334
      8.402218602430
     -4.052988067403
      4.053812698637
     -4.051498186030
      8.615714044595
     -8.615819512185
     -8.616389568746
      8.615705886244
      4.050877216915
     -4.056241412563
     -4.056778884502
      4.056338069290
      4.055618137945
      5.832952596504
     -5.830472259175
      4.674448813424
     -4.672726898353
      3.669044710612
     -3.671514531307
      2.809100665438
     -2.810732545124
      2.069327197953
     -2.067757085212
      1.416218020305
     -1.413716679540
      0.822771634932
     -0.822736057908
      0.268527894188
     -0.270660481283
     -4.048412757839
      4.052529368198
     -8.318954513092
      8.318969792596
      4.049253944107
     -4.052308136922
      8.615669615139
     -8.612580932254
      8.402096817381
     -8.401955095410
      7.134158489950
     -7.137562808902
     -8.402150458574
      8.402786601050
     -8.615550060365
      8.612839875740
     -4.674146562182
      4.673829555089
     -5.831573868175
      5.831598120712
     -7.135299343649
      7.135506842574
      0.270095392363
     -0.269017652591
     -0.822951720498
      0.822276462757
     -1.415444928705
      1.414495339308
     -2.068576807158
      2.068890189890
      2.809991724966
     -2.809546917745
     -3.669946670048
      3.669943448168
      4.059503485770
     -4.052220779973
     -4.059755974945
      4.052256002874
      8.613089196609
      4.047850681346
     -8.619640099863
      4.057390974943
     -4.058261018685
      8.618797282176
     -4.048173951354
     -8.613194235188
      8.402811683154
     -8.401868974839
      4.057808274389
     -4.046567168619
      4.048755715830
     -4.057343968461
     -8.402609210515
      8.401085869410
      7.134016008767
     -7.132659039797
      4.051914098777
      4.057848052851
     -4.061504379839
     -4.052090742337
     -7.133241387315
      7.134846252932
      8.618892106192
     -8.610004633393
     -8.618484602957
      8.611739205782
      5.832906278345
     -5.833459629083
      4.053071064764
      4.051726131632
     -4.046579326013
     -4.053294544319
      5.831954633687
     -5.833893469810
      4.672176987733
     -4.673436379587
      4.055738473210
      4.052763085169
     -4.058708955975
     -4.054761301272
     -4.672406623811
      4.672603829713
      8.610851230619
      8.401076675852
     -8.402923660012
     -8.620058082894
      8.617250858114
      8.403243843604
     -8.611544371148
     -8.401552744797
      3.671614727934
     -3.670992191469
      4.051367900247
      4.056632243706
     -4.050620163284
     -4.053367154828
     -3.670541383664
      3.672288346730
      2.811664719906
     -2.809714953579
      4.054513813831
      4.050034244928
     -4.051525910247
     -4.055256902479
      2.810123840277
     -2.811326347594
      2.066105526206
     -2.066494392817
      4.056123090424
      4.055245537880
     -4.052237064447
     -4.058599191365
     -2.066870649276
      2.065645615384
      1.412510760047
     -1.415270502395
      4.049415080714
      4.053593002539
     -4.046099094200
     -4.056151644200
     -1.413234533643
      1.414855157827
      7.135343666479
     -7.135249393487
      8.619156573361
     -8.611728978438
      8.615332265879
      7.133149809305
     -8.618360762001
     -7.135423979234
      0.824846123313
     -0.825761941355
      4.059754925218
      4.050862592992
     -4.048975969019
     -4.062594301162
     -0.824457664396
      0.825731740709
      0.272990740490
     -0.270336262651
      4.058896650661
      4.047095053612
     -4.044930011830
     -4.060629613831
      0.270543073737
     -0.272166472081
      8.403291599889
     -8.401329283598
      8.401500182061
     -8.402636069759
      5.831563593892
     -5.832327388954
      8.612546219557
     -8.616998628956
      8.613264525228
     -8.613265832870
     -5.831116503067
      5.833853073511
      4.673773374905
     -4.672842318848
      8.616327760885
     -8.614706876411
      8.618020361297
     -8.615679471919
     -4.673353067431
      4.673311423157
      7.134242379732
      8.401363605580
     -7.134535109058
     -8.402665205863
      8.402189026951
      7.136253679934
     -8.401988792641
     -7.134681550966
      3.670908480929
     -3.670151034271
      8.615557077713
      8.612871759347
     -8.615360798178
     -8.616067450382
      3.669195862314
     -3.671926364007
      2.809066591003
     -2.811286945361
      8.613893021916
      8.616048275524
     -8.614487751603
     -8.613897903255
      2.811123665175
     -2.809251222805
      5.832930341131
     -5.831940944463
      8.402413026372
     -8.402098779655
      8.402658902412
      5.830716439037
     -8.401980592304
     -5.832791375126
      2.067690533530
     -2.068072637208
      8.616637551549
      8.616454540744
     -8.617264959744
     -8.615868466978
     -2.066903153052
      2.068382280406
      7.133657679960
     -7.134349119777
      7.133185195059
     -7.133128255372
      1.415995824485
     -1.413074671450
      8.614798635972
      8.612023286238
     -8.611606668113
     -8.616076335437
     -1.415381947984
      1.413329359169
      0.824248260861
     -0.822692460893
      8.613852873041
      8.619625216989
     -8.620020064223
     -8.612442217320
     -0.824594954046
      0.823219320024
      0.268727154337
     -0.271697134479
      8.610784542258
      8.618454632213
     -8.619616062328
     -8.610081507750
      0.271507454561
     -0.269662718086
      4.672867049270
     -4.673642723447
      8.402323995868
     -8.401816938014
      8.401326086772
      4.673420619412
     -8.402495253422
     -4.673339973940
      5.832902769154
      7.136567972024
     -5.832957862295
     -7.134253498295
      7.134874628652
      5.833754641280
     -7.136778197770
     -5.833211882483
      3.670142916906
     -3.671246482531
      8.401909718092
     -8.402708698514
      8.403099048226
     -8.401797577519
      3.671764884574
     -3.669420274041
      2.811299388376
     -2.809048015487
      8.402241816240
     -8.401569005112
      8.401391425111
     -8.402437404882
      2.809136739092
     -2.811058207893
      4.672997057719
     -4.672140575726
      7.131840787334
     -7.135654084124
      7.135503526916
     -7.132061645246
      4.672223096599
     -4.672727776132
      2.067790931622
     -2.067136676627
      8.402254025409
      8.402450691373
     -8.402583822042
     -8.402094710443
      2.067334475630
     -2.068488718936
      5.830802491666
     -5.832274731236
      5.832000279715
     -5.830746971395
      1.413005305979
     -1.416048423616
      8.401885155240
      8.402517476850
     -8.402044502698
     -8.401891875547
      1.415634396069
     -1.413515748270
      0.823213961491
     -0.824745691702
      8.402692076044
      8.401284413458
     -8.401881331293
     -8.402700804694
      0.824046280122
     -0.822908398324
      0.271895125513
     -0.268961605272
      8.401309027278
      8.403187272830
     -8.402721468787
     -8.401485617024
      0.269287709696
     -0.271057406699
      3.671459843636
     -3.671063513667
      7.136982548224
     -7.132343223831
      7.132300045656
     -7.136500761239
      3.671022862750
     -3.671654017306
      4.673381228761
      5.834750590530
     -4.674545601517
     -5.831756039177
      5.831632046919
      4.674442779544
     -5.834378190439
     -4.673288794409
      2.809681078287
     -2.811755454866
      7.133048596565
     -7.137545471277
      7.137403746951
     -7.133463662842
      2.811463134545
     -2.810130043175
      2.066432051247
     -2.066632536453
      7.134733060745
     -7.131212526052
      7.131856440474
     -7.134504221363
      2.066261989605
     -2.065883873109
      3.670694194107
     -3.669599371735
      5.830138325599
     -5.834006961944
      5.834323107987
     -5.830741786652
      3.669334742143
     -3.670926999329
      1.415347484248
     -1.412409431578
      7.135325266372
      7.136240640282
     -7.137358979747
     -7.135380116897