# vtk DataFile Version 3.0
MachLine results file. Generated by MachLine, USU AeroLab (c) 2022.
ASCII
DATASET POLYDATA
POINTS                4802 float
 -0.605346183777E+02 -0.127989702225E+02 -0.247207999229E+01
 -0.605346183777E+02 -0.127989702225E+02 -0.109672499999E-04
 -0.602253990174E+02 -0.152467055321E+02 -0.247207999229E+01
 -0.599210491181E+02 -0.151886496544E+02 -0.492465555667E+01
 -0.605346183777E+02 -0.127989702225E+02  0.247205805779E+01
 -0.602253990174E+02 -0.127795152664E+02  0.492463409901E+01
 -0.602253990174E+02 -0.152467055321E+02  0.247205805779E+01
 -0.602253990174E+02 -0.152467055321E+02 -0.109672499999E-04
 -0.605346183777E+02 -0.786458778381E+01 -0.247207999229E+01
 -0.605346183777E+02 -0.786458778381E+01 -0.109672499999E-04
 -0.605346183777E+02 -0.103317790032E+02 -0.247207999229E+01
 -0.602253932953E+02 -0.103123240471E+02 -0.492465555667E+01
 -0.605346183777E+02 -0.786458778381E+01  0.247205805779E+01
 -0.602253990174E+02 -0.788404250145E+01  0.492463409901E+01
 -0.605346183777E+02 -0.103317790032E+02  0.247205805779E+01
 -0.605346183777E+02 -0.103317790032E+02 -0.109672499999E-04
 -0.599161796570E+02 -0.176944408417E+02 -0.247207999229E+01
 -0.599161796570E+02 -0.176944408417E+02 -0.109672499999E-04
 -0.593026103974E+02 -0.200841207504E+02 -0.247207999229E+01
 -0.590079402923E+02 -0.199883756637E+02 -0.492465555667E+01
 -0.599161796570E+02 -0.176944408417E+02  0.247205805779E+01
 -0.596118354797E+02 -0.176363849640E+02  0.492463409901E+01
 -0.593026103974E+02 -0.200841207504E+02  0.247205805779E+01
 -0.593026103974E+02 -0.200841207504E+02 -0.109672499999E-04
 -0.599161796570E+02 -0.127600603104E+02  0.737721014023E+01
 -0.593026142121E+02 -0.127214550972E+02  0.977161526682E+01
 -0.596118354797E+02 -0.151691946983E+02  0.737721014023E+01
 -0.599161796570E+02 -0.152272505761E+02  0.492463409901E+01
 -0.599161796570E+02 -0.790349721909E+01 -0.737723112106E+01
 -0.599161739349E+02 -0.103317787647E+02 -0.737723112106E+01
 -0.602253990174E+02 -0.788404250145E+01 -0.492465555667E+01
 -0.593026103974E+02 -0.102931735515E+02 -0.977163577078E+01
 -0.599161796570E+02 -0.790349721909E+01  0.737721014023E+01
 -0.593026142121E+02 -0.794209861756E+01  0.977161526682E+01
 -0.599161796570E+02 -0.103317787647E+02  0.737721014023E+01
 -0.602253990174E+02 -0.103512337208E+02  0.492463409901E+01
 -0.599161796570E+02 -0.296911501884E+01 -0.247207999229E+01
 -0.599161796570E+02 -0.296911501884E+01 -0.109672499999E-04
 -0.602253990174E+02 -0.541685140133E+01 -0.247207999229E+01
 -0.599161796570E+02 -0.543630611896E+01 -0.492465555667E+01
 -0.599161796570E+02 -0.296911501884E+01  0.247205805779E+01
 -0.596118392945E+02 -0.302717149258E+01  0.492463409901E+01
 -0.602253990174E+02 -0.541685140133E+01  0.247205805779E+01
 -0.602253990174E+02 -0.541685140133E+01 -0.109672499999E-04
 -0.599161682129E+02 -0.127600603104E+02 -0.737723112106E+01
 -0.602253932953E+02 -0.127795152664E+02 -0.492465555667E+01
 -0.596118240357E+02 -0.151691946983E+02 -0.737723112106E+01
 -0.590079345703E+02 -0.150539956093E+02 -0.977163577078E+01
 -0.593074989319E+02 -0.308522796631E+01  0.737721014023E+01
 -0.587036094665E+02 -0.320042598248E+01  0.977161526682E+01
 -0.596118392945E+02 -0.549436259270E+01  0.737721014023E+01
 -0.599210586548E+02 -0.547490787506E+01  0.492463409901E+01
 -0.593074913025E+02 -0.175783290863E+02  0.737721014023E+01
 -0.587035999298E+02 -0.174631299973E+02  0.977161526682E+01
 -0.587035961151E+02 -0.199303197860E+02  0.737721014023E+01
 -0.589982662201E+02 -0.200260648727E+02  0.492463409901E+01
 -0.593074913025E+02 -0.308523011208E+01 -0.737723112106E+01
 -0.596118354797E+02 -0.302717256546E+01 -0.492465555667E+01
 -0.596118354797E+02 -0.549436366559E+01 -0.737723112106E+01
 -0.589982662201E+02 -0.553296554089E+01 -0.977163577078E+01
 -0.593074798584E+02 -0.175783290863E+02 -0.737723112106E+01
 -0.596118297577E+02 -0.176363849640E+02 -0.492465555667E+01
 -0.587035903930E+02 -0.199303197860E+02 -0.737723112106E+01
 -0.581189002990E+02 -0.197403450012E+02 -0.977163577078E+01
 -0.586890602112E+02  0.181024503708E+01 -0.247207999229E+01
 -0.593026199341E+02 -0.579434990880E+00 -0.247207999229E+01
 -0.586890602112E+02  0.181024503708E+01 -0.109672499999E-04
 -0.589982757568E+02 -0.637492537500E+00 -0.492465555667E+01
 -0.586890602112E+02  0.181024503708E+01  0.247205805779E+01
 -0.583943901062E+02  0.171450150013E+01  0.492463409901E+01
 -0.593026199341E+02 -0.579434990880E+00  0.247205805779E+01
 -0.593026199341E+02 -0.579434990880E+00 -0.109672499999E-04
 -0.586890487671E+02 -0.126828498840E+02  0.121660203934E+02
 -0.577808151245E+02 -0.126257100105E+02  0.144644904137E+02
 -0.583943786621E+02 -0.150153903961E+02  0.121660203934E+02
 -0.589982700348E+02 -0.151305894851E+02  0.977161526682E+01
 -0.586890487671E+02 -0.798070001602E+01  0.121660203934E+02
 -0.586890487671E+02 -0.103317749500E+02  0.121660203934E+02
 -0.577808189392E+02 -0.803784108162E+01  0.144644904137E+02
 -0.593026142121E+02 -0.103703801632E+02  0.977161526682E+01
 -0.586890411377E+02 -0.224738006592E+02 -0.247207999229E+01
 -0.586890411377E+02 -0.224738006592E+02 -0.109672499999E-04
 -0.577808055878E+02 -0.247677354812E+02 -0.247207999229E+01
 -0.575004596710E+02 -0.246358156204E+02 -0.492465555667E+01
 -0.586890411377E+02 -0.224738006592E+02  0.247205805779E+01
 -0.583943710327E+02 -0.223780555725E+02  0.492463409901E+01
 -0.577808055878E+02 -0.247677354812E+02  0.247205805779E+01
 -0.577808055878E+02 -0.247677354812E+02 -0.109672499999E-04
 -0.586890411377E+02 -0.126828498840E+02 -0.121660404205E+02
 -0.593026046753E+02 -0.127214550972E+02 -0.977163577078E+01
 -0.583943710327E+02 -0.150153903961E+02 -0.121660404205E+02
 -0.575004596710E+02 -0.148448648452E+02 -0.144645099640E+02
 -0.586890411377E+02 -0.798070096970E+01 -0.121660404205E+02
 -0.593026103974E+02 -0.794209909440E+01 -0.977163577078E+01
 -0.586890411377E+02 -0.103317754268E+02 -0.121660404205E+02
 -0.577808055878E+02 -0.102746355534E+02 -0.144645099640E+02
 -0.580997200012E+02 -0.331562399864E+01  0.121660203934E+02
 -0.572058105469E+02 -0.348614549637E+01  0.144644904137E+02
 -0.583943843842E+02 -0.564816200733E+01  0.121660203934E+02
 -0.590079498291E+02 -0.560956060887E+01  0.977161526682E+01
 -0.580997200012E+02  0.161875796318E+01  0.737721014023E+01
 -0.575150299072E+02  0.142878150940E+01  0.977161526682E+01
 -0.587036094665E+02 -0.733235001565E+00  0.737721014023E+01
 -0.590079498291E+02 -0.675178527830E+00  0.492463409901E+01
 -0.580997085571E+02 -0.173479309082E+02  0.121660203934E+02
 -0.572057991027E+02 -0.171774101258E+02  0.144644904137E+02
 -0.575150184631E+02 -0.196251459121E+02  0.121660203934E+02
 -0.580997047424E+02 -0.198151206970E+02  0.977161526682E+01
 -0.580997085571E+02 -0.331562495232E+01 -0.121660404205E+02
 -0.587035999298E+02 -0.320042753220E+01 -0.977163577078E+01
 -0.583943748474E+02 -0.564816296101E+01 -0.121660404205E+02
 -0.574861392975E+02 -0.570530354977E+01 -0.144645099640E+02
 -0.580997085571E+02  0.161875605583E+01 -0.737723112106E+01
 -0.583943843842E+02  0.171450054646E+01 -0.492465555667E+01
 -0.587035999298E+02 -0.733237028125E+00 -0.737723112106E+01
 -0.580997085571E+02 -0.848434448245E+00 -0.977163577078E+01
 -0.580997009277E+02 -0.222823104858E+02 -0.737723112106E+01
 -0.583943710327E+02 -0.223780555725E+02 -0.492465555667E+01
 -0.572057895660E+02 -0.245400705338E+02 -0.737723112106E+01
 -0.566495208740E+02 -0.242783098220E+02 -0.977163577078E+01
 -0.580997009277E+02 -0.222823104858E+02  0.737721014023E+01
 -0.575150146484E+02 -0.220923357010E+02  0.977161526682E+01
 -0.572057895660E+02 -0.245400705338E+02  0.737721014023E+01
 -0.574861354828E+02 -0.246719903946E+02  0.492463409901E+01
 -0.580997009277E+02 -0.173479309082E+02 -0.121660404205E+02
 -0.587035903930E+02 -0.174631299973E+02 -0.977163577078E+01
 -0.575150108337E+02 -0.196251459121E+02 -0.121660404205E+02
 -0.566495208740E+02 -0.193439254760E+02 -0.144645099640E+02
 -0.569303398132E+02  0.123880195618E+01 -0.121660404205E+02
 -0.575150241851E+02  0.142877900601E+01 -0.977163577078E+01
 -0.575150241851E+02 -0.103841149807E+01 -0.121660404205E+02
 -0.566211147308E+02 -0.120893406868E+01 -0.144645099640E+02
 -0.569303398132E+02  0.123880505562E+01  0.121660203934E+02
 -0.560648498535E+02  0.957591176034E+00  0.144644904137E+02
 -0.575150299072E+02 -0.103840947151E+01  0.121660203934E+02
 -0.581189193725E+02 -0.923211455345E+00  0.977161526682E+01
 -0.569303283691E+02 -0.219023609161E+02  0.121660203934E+02
 -0.560648384094E+02 -0.216211452484E+02  0.144644904137E+02
 -0.560648384094E+02 -0.240883350372E+02  0.121660203934E+02
 -0.566211032867E+02 -0.243500957489E+02  0.977161526682E+01
 -0.569303207397E+02 -0.219023609161E+02 -0.121660404205E+02
 -0.575150108337E+02 -0.220923357010E+02 -0.977163577078E+01
 -0.560648307800E+02 -0.240883350372E+02 -0.121660404205E+02
 -0.552414112091E+02 -0.237008600235E+02 -0.144645099640E+02
 -0.568725891113E+02 -0.809498214722E+01  0.167629604340E+02
 -0.556840095520E+02 -0.816976022720E+01  0.189292497635E+02
 -0.568725852966E+02 -0.103317761421E+02  0.167629604340E+02
 -0.577808189392E+02 -0.103889160156E+02  0.144644904137E+02
 -0.568725891113E+02  0.639811706543E+01 -0.247207999229E+01
 -0.568725891113E+02  0.639811706543E+01 -0.109672499999E-04
 -0.577808246613E+02  0.410418105125E+01 -0.247207999229E+01
 -0.574861488342E+02  0.400843656063E+01 -0.492465555667E+01
 -0.568725891113E+02  0.639811706543E+01  0.247205805779E+01
 -0.565922451019E+02  0.626619696617E+01  0.492463409901E+01
 -0.577808246613E+02  0.410418105125E+01  0.247205805779E+01
 -0.577808246613E+02  0.410418105125E+01 -0.109672499999E-04
 -0.568725814819E+02 -0.125685701370E+02  0.167629604340E+02
 -0.556840000152E+02 -0.124937901497E+02  0.189292497635E+02
 -0.565922355651E+02 -0.147877297401E+02  0.167629604340E+02
 -0.574861450195E+02 -0.149582505226E+02  0.144644904137E+02
 -0.568725700378E+02 -0.270616703033E+02 -0.247207999229E+01
[...]
CELL_DATA                9600
SCALARS C_p_inc float 1
LOOKUP_TABLE default
 -0.124277090199E+01
 -0.124277090199E+01
 -0.124277090199E+01
 -0.124277090199E+01
 -0.124277668010E+01
 -0.124277668010E+01
 -0.124277668010E+01
 -0.124277668010E+01
 -0.124279213250E+01
 -0.124279213250E+01
 -0.124279213250E+01
 -0.124279213250E+01
 -0.124281144652E+01
 -0.124281144652E+01
 -0.124281144652E+01
 -0.124281144652E+01
 -0.124282489416E+01
 -0.124282489416E+01
 -0.124282489416E+01
 -0.124282489416E+01
 -0.124284194125E+01
 -0.124284194125E+01
 -0.124284194125E+01
 -0.124284194125E+01
 -0.124286510538E+01
 -0.124286510538E+01
 -0.124286510538E+01
 -0.124286510538E+01
 -0.124288194741E+01
 -0.124288194741E+01
 -0.124288194741E+01
 -0.124288194741E+01
 -0.124289379272E+01
 -0.124289379272E+01
 -0.124289379272E+01
 -0.124289379272E+01
 -0.124291159012E+01
 -0.124291159012E+01
 -0.124291159012E+01
 -0.124291159012E+01
 -0.124292564660E+01
 -0.124292564660E+01
 -0.124292564660E+01
 -0.124292564660E+01
 -0.124293109440E+01
 -0.124293109440E+01
 -0.124293109440E+01
 -0.124293109440E+01
 -0.124293661963E+01
 -0.124293661963E+01
 -0.124293661963E+01
 -0.124293661963E+01
 -0.124293071591E+01
 -0.124293071591E+01
 -0.124293071591E+01
 -0.124293071591E+01
 -0.124292244165E+01
 -0.124292244165E+01
 -0.124292244165E+01
 -0.124292244165E+01
 -0.124290703388E+01
 -0.124290703388E+01
 -0.124290703388E+01
 -0.124290703388E+01
 -0.124289465260E+01
 -0.124289465260E+01
 -0.124289465260E+01
 -0.124289465260E+01
 -0.124287904206E+01
 -0.124287904206E+01
 -0.124287904206E+01
 -0.124287904206E+01
 -0.124285552802E+01
 -0.124285552802E+01
 -0.124285552802E+01
 -0.124285552802E+01
 -0.124283669422E+01
 -0.124283669422E+01
 -0.124283669422E+01
 -0.124283669422E+01
 -0.124282488680E+01
 -0.124282488680E+01
 -0.124282488680E+01
 -0.124282488680E+01
 -0.124280807923E+01
 -0.124280807923E+01
 -0.124280807923E+01
 -0.124280807923E+01
 -0.124278690266E+01
 -0.124278690266E+01
 -0.124278690266E+01
 -0.124278690266E+01
 -0.124277406551E+01
 -0.124277406551E+01
 -0.124277406551E+01
 -0.124277406551E+01
 -0.124277355716E+01
 -0.124277355716E+01
 -0.124277355716E+01
 -0.124277355716E+01
 -0.124277614827E+01
 -0.124277614827E+01
 -0.124277614827E+01
 -0.124277614827E+01
 -0.124278577603E+01
 -0.124278577603E+01
 -0.124278577603E+01
 -0.124278577603E+01
 -0.124279121524E+01
 -0.124279121524E+01
 -0.124279121524E+01
 -0.124279121524E+01
 -0.124280900538E+01
 -0.124280900538E+01
 -0.124280900538E+01
 -0.124280900538E+01
 -0.124282241431E+01
 -0.124282241431E+01
 -0.124282241431E+01
 -0.124282241431E+01
 -0.124284639365E+01
 -0.124284639365E+01
 -0.124284639365E+01
 -0.124284639365E+01
 -0.124286639185E+01
 -0.124286639185E+01
 -0.124286639185E+01
 -0.124286639185E+01
 -0.124288067595E+01
 -0.124288067595E+01
 -0.124288067595E+01
 -0.124288067595E+01
 -0.124290492538E+01
 -0.124290492538E+01
 -0.124290492538E+01
 -0.124290492538E+01
 -0.124291954285E+01
 -0.124291954285E+01
 -0.124291954285E+01
 -0.124291954285E+01
 -0.124292580990E+01
 -0.124292580990E+01
 -0.124292580990E+01
 -0.124292580990E+01
 -0.124293441147E+01
 -0.124293441147E+01
 -0.124293441147E+01
 -0.124293441147E+01
 -0.124293608867E+01
 -0.124293608867E+01
 -0.124293608867E+01
 -0.124293608867E+01
 -0.124293013316E+01
 -0.124293013316E+01
 -0.124293013316E+01
 -0.124293013316E+01
 -0.124292577559E+01
 -0.124292577559E+01
 -0.124292577559E+01
 -0.124292577559E+01
 -0.124291470939E+01
 -0.124291470939E+01
 -0.124291470939E+01
 -0.124291470939E+01
 -0.124289589853E+01
 -0.124289589853E+01
 -0.124289589853E+01
 -0.124289589853E+01
 -0.124288213801E+01
 -0.124288213801E+01
 -0.124288213801E+01
 -0.124288213801E+01
 -0.124285770850E+01
 -0.124285770850E+01
 -0.124285770850E+01
 -0.124285770850E+01
 -0.124283326200E+01
 -0.124283326200E+01
 -0.124283326200E+01
 -0.124283326200E+01
 -0.124281519096E+01
 -0.124281519096E+01
 -0.124281519096E+01
 -0.124281519096E+01
 -0.124280604351E+01
 -0.124280604351E+01
 -0.124280604351E+01
 -0.124280604351E+01
 -0.124279150169E+01
 -0.124279150169E+01
 -0.124279150169E+01
 -0.124279150169E+01
 -0.124278097100E+01
 -0.124278097100E+01
 -0.124278097100E+01
 -0.124278097100E+01
 -0.124277077304E+01
 -0.124277077304E+01
 -0.124277077304E+01
 -0.124277077304E+01
 -0.118016726256E+01
 -0.118016726256E+01
 -0.118016726256E+01
 -0.118016726256E+01
 -0.115254220945E+01
 -0.115254220945E+01
 -0.115254220945E+01
 -0.115254220945E+01
 -0.118383142586E+01
 -0.118383142586E+01
 -0.118383142586E+01
 -0.118383142586E+01
 -0.115487732858E+01
 -0.115487732858E+01
 -0.115487732858E+01
 -0.115487732858E+01
 -0.118968238331E+01
 -0.118968238331E+01
 -0.118968238331E+01
 -0.118968238331E+01
 -0.116002583681E+01
 -0.116002583681E+01
 -0.116002583681E+01
 -0.116002583681E+01
 -0.119734645196E+01
 -0.119734645196E+01
 -0.119734645196E+01
 -0.119734645196E+01
 -0.116766297913E+01
 -0.116766297913E+01
 -0.116766297913E+01
 -0.116766297913E+01
 -0.120635619984E+01
 -0.120635619984E+01
 -0.120635619984E+01
 -0.120635619984E+01
 -0.117730741356E+01
 -0.117730741356E+01
 -0.117730741356E+01
 -0.117730741356E+01
 -0.121613820113E+01
 -0.121613820113E+01
 -0.121613820113E+01
 -0.121613820113E+01
 -0.118836053096E+01
 -0.118836053096E+01
 -0.118836053096E+01
 -0.118836053096E+01
 -0.122607202072E+01
 -0.122607202072E+01
 -0.122607202072E+01
 -0.122607202072E+01
 -0.120012507168E+01
 -0.120012507168E+01
 -0.120012507168E+01
 -0.120012507168E+01
 -0.123552358930E+01
 -0.123552358930E+01
 -0.123552358930E+01
 -0.123552358930E+01
 -0.121185610299E+01
 -0.121185610299E+01
 -0.121185610299E+01
 -0.121185610299E+01
 -0.124392152069E+01
 -0.124392152069E+01
 -0.124392152069E+01
 -0.124392152069E+01
 -0.122282267336E+01
 -0.122282267336E+01
 -0.122282267336E+01
 -0.122282267336E+01
 -0.125075756172E+01
 -0.125075756172E+01
 -0.125075756172E+01
 -0.125075756172E+01
 -0.123232312026E+01
 -0.123232312026E+01
 -0.123232312026E+01
 -0.123232312026E+01
 -0.125554890577E+01
 -0.125554890577E+01
 -0.125554890577E+01
 -0.125554890577E+01
 -0.123978296285E+01
 -0.123978296285E+01
 -0.123978296285E+01
 -0.123978296285E+01
 -0.125803963960E+01
 -0.125803963960E+01
 -0.125803963960E+01
 -0.125803963960E+01
 -0.124470706421E+01
 -0.124470706421E+01
 -0.124470706421E+01
 -0.124470706421E+01
 -0.125804347568E+01
 -0.125804347568E+01
 -0.125804347568E+01
 -0.125804347568E+01
 -0.124680744299E+01
 -0.124680744299E+01
 -0.124680744299E+01
 -0.124680744299E+01
 -0.125556027438E+01
 -0.125556027438E+01
 -0.125556027438E+01
 -0.125556027438E+01
 -0.124594895526E+01
 -0.124594895526E+01
 -0.124594895526E+01
 -0.124594895526E+01
 -0.125076856703E+01
 -0.125076856703E+01
 -0.125076856703E+01
 -0.125076856703E+01
 -0.124217716025E+01
 -0.124217716025E+01
 -0.124217716025E+01
 -0.124217716025E+01
 -0.124393795168E+01
 -0.124393795168E+01
 -0.124393795168E+01
 -0.124393795168E+01
 -0.123573749642E+01
 -0.123573749642E+01
 -0.123573749642E+01
 -0.123573749642E+01
 -0.123554161625E+01
 -0.123554161625E+01
 -0.123554161625E+01
 -0.123554161625E+01
 -0.122702594585E+01
 -0.122702594585E+01
 -0.122702594585E+01
 -0.122702594585E+01
 -0.122608247192E+01
 -0.122608247192E+01
 -0.122608247192E+01
 -0.122608247192E+01
 -0.121659517320E+01
 -0.121659517320E+01
 -0.121659517320E+01
 -0.121659517320E+01
 -0.121614331395E+01
 -0.121614331395E+01
 -0.121614331395E+01
 -0.121614331395E+01
 -0.120509662490E+01
 -0.120509662490E+01
 -0.120509662490E+01
 -0.120509662490E+01
 -0.120636866385E+01
 -0.120636866385E+01
 -0.120636866385E+01
 -0.120636866385E+01
 -0.119325625108E+01
 -0.119325625108E+01
 -0.119325625108E+01
 -0.119325625108E+01
 -0.119735707988E+01
 -0.119735707988E+01
 -0.119735707988E+01
 -0.119735707988E+01
 -0.118182114352E+01
 -0.118182114352E+01
 -0.118182114352E+01
 -0.118182114352E+01
 -0.118968176898E+01
 -0.118968176898E+01
 -0.118968176898E+01
 -0.118968176898E+01
 -0.117150393283E+01
 -0.117150393283E+01
 -0.117150393283E+01
 -0.117150393283E+01
 -0.118383200089E+01
 -0.118383200089E+01
 -0.118383200089E+01
 -0.118383200089E+01
 -0.116295559760E+01
 -0.116295559760E+01
 -0.116295559760E+01
 -0.116295559760E+01
 -0.118017059885E+01
 -0.118017059885E+01
 -0.118017059885E+01
 -0.118017059885E+01
 -0.115671200667E+01
 -0.115671200667E+01
 -0.115671200667E+01
 -0.115671200667E+01
 -0.117891821269E+01
 -0.117891821269E+01
 -0.117891821269E+01
 -0.117891821269E+01
 -0.115316683946E+01
 -0.115316683946E+01
 -0.115316683946E+01
 -0.115316683946E+01
 -0.118016520747E+01
 -0.118016520747E+01
 -0.118016520747E+01
 -0.118016520747E+01
 -0.115254018316E+01
 -0.115254018316E+01
 -0.115254018316E+01
 -0.115254018316E+01
 -0.118382530219E+01
 -0.118382530219E+01
 -0.118382530219E+01
 -0.118382530219E+01
 -0.115487686868E+01
 -0.115487686868E+01
 -0.115487686868E+01
 -0.115487686868E+01
 -0.118968297792E+01
 -0.118968297792E+01
 -0.118968297792E+01
 -0.118968297792E+01
 -0.116002151037E+01
 -0.116002151037E+01
 -0.116002151037E+01
 -0.116002151037E+01
 -0.119735947595E+01
 -0.119735947595E+01
 -0.119735947595E+01
 -0.119735947595E+01
 -0.116766227941E+01
 -0.116766227941E+01
 -0.116766227941E+01
 -0.116766227941E+01
 -0.120635104917E+01
 -0.120635104917E+01
 -0.120635104917E+01
 -0.120635104917E+01
 -0.117731156517E+01
 -0.117731156517E+01
 -0.117731156517E+01
 -0.117731156517E+01
 -0.121615067955E+01
 -0.121615067955E+01
 -0.121615067955E+01
 -0.121615067955E+01
 -0.118835797574E+01
 -0.118835797574E+01
 -0.118835797574E+01
 -0.118835797574E+01
 -0.122606967600E+01
 -0.122606967600E+01
 -0.122606967600E+01
 -0.122606967600E+01
 -0.120011360622E+01
 -0.120011360622E+01
 -0.120011360622E+01
 -0.120011360622E+01
 -0.123555058338E+01
 -0.123555058338E+01
 -0.123555058338E+01
 -0.123555058338E+01
 -0.121184553228E+01
 -0.121184553228E+01
 -0.121184553228E+01
 -0.121184553228E+01
 -0.124397528367E+01
 -0.124397528367E+01
 -0.124397528367E+01
 -0.124397528367E+01
 -0.122279822247E+01
 -0.122279822247E+01
 -0.122279822247E+01
 -0.122279822247E+01
 -0.125076639208E+01
 -0.125076639208E+01
 -0.125076639208E+01
 -0.125076639208E+01
 -0.123231492171E+01
 -0.123231492171E+01
 -0.123231492171E+01
 -0.123231492171E+01
 -0.125555616186E+01
 -0.125555616186E+01
 -0.125555616186E+01
 -0.125555616186E+01
 -0.123977716107E+01
 -0.123977716107E+01
 -0.123977716107E+01
 -0.123977716107E+01
 -0.125805738903E+01
 -0.125805738903E+01
 -0.125805738903E+01
 -0.125805738903E+01
 -0.124471010059E+01
 -0.124471010059E+01
 -0.124471010059E+01
 -0.124471010059E+01
 -0.125806290257E+01
 -0.125806290257E+01
 -0.125806290257E+01
 -0.125806290257E+01
 -0.124679981498E+01
 -0.124679981498E+01
 -0.124679981498E+01
 -0.124679981498E+01
 -0.125555941535E+01
 -0.125555941535E+01
 -0.125555941535E+01
 -0.125555941535E+01
 -0.124594212877E+01
 -0.124594212877E+01
 -0.124594212877E+01
 -0.124594212877E+01
 -0.125076531762E+01
 -0.125076531762E+01
 -0.125076531762E+01
 -0.125076531762E+01
 -0.124217607241E+01
 -0.124217607241E+01
 -0.124217607241E+01
 -0.124217607241E+01
 -0.124397080396E+01
 -0.124397080396E+01
 -0.124397080396E+01
 -0.124397080396E+01
 -0.123573779333E+01
 -0.123573779333E+01
 -0.123573779333E+01
 -0.123573779333E+01
 -0.123554942733E+01
 -0.123554942733E+01
 -0.123554942733E+01
 -0.123554942733E+01
 -0.122701539238E+01
 -0.122701539238E+01
 -0.122701539238E+01
 -0.122701539238E+01
 -0.122608119631E+01
 -0.122608119631E+01
 -0.122608119631E+01
 -0.122608119631E+01
 -0.121659047036E+01
 -0.121659047036E+01
 -0.121659047036E+01
 -0.121659047036E+01
 -0.121614263732E+01
 -0.121614263732E+01
 -0.121614263732E+01
 -0.121614263732E+01
 -0.120509669645E+01
 -0.120509669645E+01
 -0.120509669645E+01
 -0.120509669645E+01
 -0.120635676399E+01
 -0.120635676399E+01
 -0.120635676399E+01
 -0.120635676399E+01
 -0.119325361495E+01
 -0.119325361495E+01
 -0.119325361495E+01
 -0.119325361495E+01
 -0.119735622380E+01
 -0.119735622380E+01
 -0.119735622380E+01
 -0.119735622380E+01
 -0.118181743518E+01
 -0.118181743518E+01
 -0.118181743518E+01
 -0.118181743518E+01
 -0.118968999261E+01
 -0.118968999261E+01
 -0.118968999261E+01
 -0.118968999261E+01
 -0.117150369567E+01
 -0.117150369567E+01
 -0.117150369567E+01
 -0.117150369567E+01
 -0.118383125193E+01
 -0.118383125193E+01
 -0.118383125193E+01
 -0.118383125193E+01
 -0.116295676154E+01
 -0.116295676154E+01
 -0.116295676154E+01
 -0.116295676154E+01
 -0.118016501239E+01
 -0.118016501239E+01
 -0.118016501239E+01
 -0.118016501239E+01
 -0.115671297362E+01
 -0.115671297362E+01
 -0.115671297362E+01
 -0.115671297362E+01
 -0.117892127928E+01
 -0.117892127928E+01
 -0.117892127928E+01
 -0.117892127928E+01
 -0.115316705778E+01
 -0.115316705778E+01
 -0.115316705778E+01
 -0.115316705778E+01
 -0.105795637392E+01
 -0.105795637392E+01
 -0.105795637392E+01
 -0.105795637392E+01
 -0.100543180003E+01
 -0.100543180003E+01
 -0.100543180003E+01
 -0.100543180003E+01
 -0.106619838574E+01
 -0.106619838574E+01
 -0.106619838574E+01
 -0.106619838574E+01
 -0.101160517296E+01
 -0.101160517296E+01
 -0.101160517296E+01
 -0.101160517296E+01
 -0.108010508056E+01
 -0.108010508056E+01
 -0.108010508056E+01
 -0.108010508056E+01
 -0.102495148575E+01
 -0.102495148575E+01
 -0.102495148575E+01
 -0.102495148575E+01
 -0.109879866786E+01
 -0.109879866786E+01
 -0.109879866786E+01
 -0.109879866786E+01
 -0.104463366464E+01
 -0.104463366464E+01
 -0.104463366464E+01
 -0.104463366464E+01
 -0.112110321754E+01
 -0.112110321754E+01
 -0.112110321754E+01
 -0.112110321754E+01
 -0.106941760656E+01
 -0.106941760656E+01
 -0.106941760656E+01
 -0.106941760656E+01
 -0.114562866299E+01
 -0.114562866299E+01
 -0.114562866299E+01
 -0.114562866299E+01
 -0.109773656650E+01
 -0.109773656650E+01
 -0.109773656650E+01
 -0.109773656650E+01
 -0.117082095577E+01
 -0.117082095577E+01
 -0.117082095577E+01
 -0.117082095577E+01
 -0.112781806615E+01
 -0.112781806615E+01
 -0.112781806615E+01
 -0.112781806615E+01
 -0.119510178762E+01
 -0.119510178762E+01
 -0.119510178762E+01
 -0.119510178762E+01
 -0.115777228828E+01
 -0.115777228828E+01
 -0.115777228828E+01
 -0.115777228828E+01
 -0.121694153773E+01
 -0.121694153773E+01
 -0.121694153773E+01
 -0.121694153773E+01
 -0.118571723301E+01
 -0.118571723301E+01
 -0.118571723301E+01
 -0.118571723301E+01
 -0.123498712814E+01
 -0.123498712814E+01
 -0.123498712814E+01
 -0.123498712814E+01
 -0.120988979486E+01
 -0.120988979486E+01
 -0.120988979486E+01
 -0.120988979486E+01
 -0.124807568671E+01
 -0.124807568671E+01
 -0.124807568671E+01
 -0.124807568671E+01
 -0.122877064208E+01
 -0.122877064208E+01
 -0.122877064208E+01
 -0.122877064208E+01
 -0.125540910821E+01
 -0.125540910821E+01
 -0.125540910821E+01
 -0.125540910821E+01
 -0.124119598272E+01
 -0.124119598272E+01
 -0.124119598272E+01
 -0.124119598272E+01
 -0.125651329863E+01
 -0.125651329863E+01
 -0.125651329863E+01
 -0.125651329863E+01
 -0.124635449182E+01
 -0.124635449182E+01
 -0.124635449182E+01
 -0.124635449182E+01
 -0.125131729379E+01
 -0.125131729379E+01
 -0.125131729379E+01
 -0.125131729379E+01
 -0.124393991068E+01
 -0.124393991068E+01
 -0.124393991068E+01
 -0.124393991068E+01
 -0.124016387866E+01
 -0.124016387866E+01
 -0.124016387866E+01
 -0.124016387866E+01
 -0.123410762068E+01
 -0.123410762068E+01
 -0.123410762068E+01
 -0.123410762068E+01
 -0.122372787330E+01
 -0.122372787330E+01
 -0.122372787330E+01
 -0.122372787330E+01
 -0.121745541617E+01
 -0.121745541617E+01
 -0.121745541617E+01
 -0.121745541617E+01
 -0.120306250680E+01
 -0.120306250680E+01
 -0.120306250680E+01
 -0.120306250680E+01
 -0.119504786610E+01
 -0.119504786610E+01
 -0.119504786610E+01
 -0.119504786610E+01
 -0.117946944102E+01
 -0.117946944102E+01
 -0.117946944102E+01
 -0.117946944102E+01
 -0.116828750798E+01
 -0.116828750798E+01
 -0.116828750798E+01
 -0.116828750798E+01
 -0.115441129899E+01
 -0.115441129899E+01
 -0.115441129899E+01
 -0.115441129899E+01
 -0.113885587913E+01
 -0.113885587913E+01
 -0.113885587913E+01
 -0.113885587913E+01
 -0.112947514883E+01
 -0.112947514883E+01
 -0.112947514883E+01
 -0.112947514883E+01
 -0.110859727971E+01
 -0.110859727971E+01
 -0.110859727971E+01
 -0.110859727971E+01
 -0.110622926358E+01
 -0.110622926358E+01
 -0.110622926358E+01
 -0.110622926358E+01
 -0.107942125598E+01
 -0.107942125598E+01
 -0.107942125598E+01
 -0.107942125598E+01
 -0.108612794231E+01
 -0.108612794231E+01
 -0.108612794231E+01
 -0.108612794231E+01
 -0.105315722295E+01
 -0.105315722295E+01
 -0.105315722295E+01
 -0.105315722295E+01
 -0.107043656233E+01
 -0.107043656233E+01
 -0.107043656233E+01
 -0.107043656233E+01
 -0.103145388406E+01
 -0.103145388406E+01
 -0.103145388406E+01
 -0.103145388406E+01
 -0.106014449158E+01
 -0.106014449158E+01
 -0.106014449158E+01
 -0.106014449158E+01
 -0.101567670561E+01
 -0.101567670561E+01
 -0.101567670561E+01
 -0.101567670561E+01
 -0.105589586931E+01
 -0.105589586931E+01
 -0.105589586931E+01
 -0.105589586931E+01
 -0.100681687360E+01
 -0.100681687360E+01
 -0.100681687360E+01
 -0.100681687360E+01
 -0.105795588123E+01
 -0.105795588123E+01
 -0.105795588123E+01
 -0.105795588123E+01
 -0.100543110172E+01
 -0.100543110172E+01
 -0.100543110172E+01
 -0.100543110172E+01
 -0.106619917054E+01
 -0.106619917054E+01
 -0.106619917054E+01
 -0.106619917054E+01
 -0.101160472473E+01
 -0.101160472473E+01
 -0.101160472473E+01
 -0.101160472473E+01
 -0.108010335122E+01
 -0.108010335122E+01
 -0.108010335122E+01
 -0.108010335122E+01
 -0.102495416994E+01
 -0.102495416994E+01
 -0.102495416994E+01
 -0.102495416994E+01
 -0.109880015697E+01
 -0.109880015697E+01
 -0.109880015697E+01
 -0.109880015697E+01
 -0.104463181770E+01
 -0.104463181770E+01
 -0.104463181770E+01
 -0.104463181770E+01
 -0.112110746979E+01
 -0.112110746979E+01
 -0.112110746979E+01
 -0.112110746979E+01
 -0.106941426646E+01
 -0.106941426646E+01
 -0.106941426646E+01
 -0.106941426646E+01
 -0.114562571405E+01
 -0.114562571405E+01
 -0.114562571405E+01
 -0.114562571405E+01
 -0.109774183990E+01
 -0.109774183990E+01
 -0.109774183990E+01
 -0.109774183990E+01
 -0.117081366732E+01
 -0.117081366732E+01
 -0.117081366732E+01
 -0.117081366732E+01
 -0.112781984878E+01
 -0.112781984878E+01
 -0.112781984878E+01
 -0.112781984878E+01
 -0.119509588852E+01
 -0.119509588852E+01
 -0.119509588852E+01
 -0.119509588852E+01
 -0.115777486455E+01
 -0.115777486455E+01
 -0.115777486455E+01
 -0.115777486455E+01
 -0.121695023196E+01
 -0.121695023196E+01
 -0.121695023196E+01
 -0.121695023196E+01
 -0.118571192716E+01
 -0.118571192716E+01
 -0.118571192716E+01
 -0.118571192716E+01
 -0.123498080196E+01
 -0.123498080196E+01
 -0.123498080196E+01
 -0.123498080196E+01
 -0.120988238573E+01
 -0.120988238573E+01
 -0.120988238573E+01
 -0.120988238573E+01
 -0.124808269318E+01
 -0.124808269318E+01
 -0.124808269318E+01
 -0.124808269318E+01
 -0.122877829690E+01
 -0.122877829690E+01
 -0.122877829690E+01
 -0.122877829690E+01
 -0.125540553822E+01
 -0.125540553822E+01
 -0.125540553822E+01
 -0.125540553822E+01
 -0.124119547763E+01
 -0.124119547763E+01
 -0.124119547763E+01
 -0.124119547763E+01
 -0.125651221552E+01
 -0.125651221552E+01
 -0.125651221552E+01
 -0.125651221552E+01
 -0.124635553612E+01
 -0.124635553612E+01
 -0.124635553612E+01
 -0.124635553612E+01
 -0.125132418612E+01
 -0.125132418612E+01
 -0.125132418612E+01
 -0.125132418612E+01
 -0.124394178856E+01
 -0.124394178856E+01
 -0.124394178856E+01
 -0.124394178856E+01
 -0.124015289916E+01
 -0.124015289916E+01
 -0.124015289916E+01
 -0.124015289916E+01
 -0.123410219847E+01
 -0.123410219847E+01
 -0.123410219847E+01
 -0.123410219847E+01
 -0.122373216588E+01
 -0.122373216588E+01
 -0.122373216588E+01
 -0.122373216588E+01
 -0.121745944346E+01
 -0.121745944346E+01
 -0.121745944346E+01
 -0.121745944346E+01
 -0.120306605644E+01
 -0.120306605644E+01
 -0.120306605644E+01
 -0.120306605644E+01
 -0.119504803476E+01
 -0.119504803476E+01
 -0.119504803476E+01
 -0.119504803476E+01
 -0.117946416854E+01
 -0.117946416854E+01
 -0.117946416854E+01
 -0.117946416854E+01
 -0.116828534814E+01
 -0.116828534814E+01
 -0.116828534814E+01
 -0.116828534814E+01
 -0.115441286058E+01
 -0.115441286058E+01
 -0.115441286058E+01
 -0.115441286058E+01