# vtk DataFile Version 3.0
MachLine results file. Generated by MachLine, USU AeroLab (c) 2022.
ASCII
DATASET POLYDATA
POINTS                4802 float
 -0.605346183777E+02 -0.127989702225E+02 -0.247207999229E+01
 -0.605346183777E+02 -0.127989702225E+02  0.247205805779E+01
 -0.605346183777E+02 -0.786458778381E+01 -0.247207999229E+01
 -0.605346183777E+02 -0.786458778381E+01  0.247205805779E+01
 -0.599161796570E+02 -0.176944408417E+02 -0.247207999229E+01
 -0.599161796570E+02 -0.176944408417E+02  0.247205805779E+01
 -0.599161796570E+02 -0.127600603104E+02  0.737721014023E+01
 -0.599161796570E+02 -0.790349721909E+01 -0.737723112106E+01
 -0.599161796570E+02 -0.790349721909E+01  0.737721014023E+01
 -0.599161796570E+02 -0.296911501884E+01 -0.247207999229E+01
 -0.599161796570E+02 -0.296911501884E+01  0.247205805779E+01
 -0.599161682129E+02 -0.127600603104E+02 -0.737723112106E+01
 -0.593074989319E+02 -0.308522796631E+01  0.737721014023E+01
 -0.593074913025E+02 -0.175783290863E+02  0.737721014023E+01
 -0.593074913025E+02 -0.308523011208E+01 -0.737723112106E+01
 -0.593074798584E+02 -0.175783290863E+02 -0.737723112106E+01
 -0.586890602112E+02  0.181024503708E+01 -0.247207999229E+01
 -0.586890602112E+02  0.181024503708E+01  0.247205805779E+01
 -0.586890487671E+02 -0.126828498840E+02  0.121660203934E+02
 -0.586890487671E+02 -0.798070001602E+01  0.121660203934E+02
 -0.586890411377E+02 -0.224738006592E+02 -0.247207999229E+01
 -0.586890411377E+02 -0.224738006592E+02  0.247205805779E+01
 -0.586890411377E+02 -0.126828498840E+02 -0.121660404205E+02
 -0.586890411377E+02 -0.798070096970E+01 -0.121660404205E+02
 -0.580997200012E+02 -0.331562399864E+01  0.121660203934E+02
 -0.580997200012E+02  0.161875796318E+01  0.737721014023E+01
 -0.580997085571E+02 -0.173479309082E+02  0.121660203934E+02
 -0.580997085571E+02 -0.331562495232E+01 -0.121660404205E+02
 -0.580997085571E+02  0.161875605583E+01 -0.737723112106E+01
 -0.580997009277E+02 -0.222823104858E+02 -0.737723112106E+01
 -0.580997009277E+02 -0.222823104858E+02  0.737721014023E+01
 -0.580997009277E+02 -0.173479309082E+02 -0.121660404205E+02
 -0.569303398132E+02  0.123880195618E+01 -0.121660404205E+02
 -0.569303398132E+02  0.123880505562E+01  0.121660203934E+02
 -0.569303283691E+02 -0.219023609161E+02  0.121660203934E+02
 -0.569303207397E+02 -0.219023609161E+02 -0.121660404205E+02
 -0.568725891113E+02 -0.809498214722E+01  0.167629604340E+02
 -0.568725891113E+02  0.639811706543E+01 -0.247207999229E+01
 -0.568725891113E+02  0.639811706543E+01  0.247205805779E+01
 -0.568725814819E+02 -0.125685701370E+02  0.167629604340E+02
 -0.568725700378E+02 -0.270616703033E+02 -0.247207999229E+01
 -0.568725700378E+02 -0.270616703033E+02  0.247205805779E+01
 -0.568725700378E+02 -0.125685701370E+02 -0.167629795074E+02
 -0.568725700378E+02 -0.809498214722E+01 -0.167629795074E+02
 -0.563119010925E+02 -0.365666699409E+01  0.167629604340E+02
 -0.563119010925E+02  0.613427686691E+01  0.737721014023E+01
 -0.563118896484E+02 -0.170068893433E+02  0.167629604340E+02
 -0.563118896484E+02 -0.365667009354E+01 -0.167629795074E+02
 -0.563118896484E+02  0.613427495956E+01 -0.737723112106E+01
 -0.563118782043E+02 -0.267978305817E+02 -0.737723112106E+01
 -0.563118782043E+02 -0.267978305817E+02  0.737721014023E+01
 -0.563118782043E+02 -0.170068798065E+02 -0.167629795074E+02
 -0.551993598938E+02  0.676377296448E+00  0.167629604340E+02
 -0.551993598938E+02  0.561075496674E+01 -0.121660404205E+02
 -0.551993598938E+02  0.561075782776E+01  0.121660203934E+02
 -0.551993484497E+02 -0.262743091583E+02  0.121660203934E+02
 -0.551993484497E+02 -0.213399295807E+02  0.167629604340E+02
 -0.551993484497E+02  0.676373481750E+00 -0.167629795074E+02
 -0.551993408203E+02 -0.262743091583E+02 -0.121660404205E+02
 -0.551993408203E+02 -0.213399200439E+02 -0.167629795074E+02
 -0.544954299927E+02 -0.824453830719E+01  0.210955390930E+02
 -0.544954299927E+02  0.107221498489E+02 -0.247207999229E+01
 -0.544954299927E+02  0.107221498489E+02  0.247205805779E+01
 -0.544954185486E+02 -0.124190101624E+02  0.210955390930E+02
 -0.544954185486E+02 -0.824453926086E+01 -0.210955505371E+02
 -0.544954109192E+02 -0.313857002258E+02 -0.247207999229E+01
 -0.544954109192E+02 -0.313857002258E+02  0.247205805779E+01
 -0.544954109192E+02 -0.124190101624E+02 -0.210955505371E+02
 -0.539722404480E+02  0.103901195526E+02  0.737721014023E+01
 -0.539722290039E+02 -0.410298204422E+01  0.210955390930E+02
 -0.539722290039E+02  0.103901100159E+02 -0.737723112106E+01
 -0.539722213745E+02 -0.165605697632E+02  0.210955390930E+02
 -0.539722213745E+02 -0.410298299789E+01 -0.210955505371E+02
 -0.539722099304E+02 -0.310536708832E+02  0.737721014023E+01
 -0.539722099304E+02 -0.310536594391E+02 -0.737723112106E+01
 -0.539722099304E+02 -0.165605697632E+02 -0.210955505371E+02
 -0.535525283813E+02  0.483581590652E+01  0.167629604340E+02
 -0.535525207520E+02  0.483581209183E+01 -0.167629795074E+02
 -0.535525093079E+02 -0.254993705750E+02  0.167629604340E+02
 -0.535525016785E+02 -0.254993591309E+02 -0.167629795074E+02
 -0.529340896606E+02  0.973128700256E+01  0.121660203934E+02
 -0.529340782166E+02 -0.596571005881E-01  0.210955390930E+02
 -0.529340782166E+02  0.973128318787E+01 -0.121660404205E+02
 -0.529340705872E+02 -0.206038894653E+02  0.210955390930E+02
 -0.529340705872E+02 -0.596590004861E-01 -0.210955505371E+02
 -0.529340591431E+02 -0.303948402405E+02  0.121660203934E+02
 -0.529340591431E+02 -0.303948307037E+02 -0.121660404205E+02
 -0.529340591431E+02 -0.206038894653E+02 -0.210955505371E+02
 -0.515950813293E+02  0.147141504288E+02 -0.247207999229E+01
 -0.515950813293E+02  0.147141504288E+02  0.247205805779E+01
 -0.515950698853E+02 -0.122365398407E+02  0.250954303741E+02
 -0.515950698853E+02 -0.842701053619E+01  0.250954303741E+02
 -0.515950584412E+02 -0.842701244354E+01 -0.250954494476E+02
 -0.515950508118E+02 -0.353777008057E+02 -0.247207999229E+01
 -0.515950508118E+02 -0.353777008057E+02  0.247205805779E+01
 -0.515950508118E+02 -0.122365303040E+02 -0.250954494476E+02
 -0.513973617554E+02  0.382167100906E+01  0.210955390930E+02
 -0.513973617554E+02  0.875605201721E+01  0.167629604340E+02
 -0.513973503113E+02  0.382166790962E+01 -0.210955505371E+02
 -0.513973503113E+02  0.875604629517E+01 -0.167629795074E+02
 -0.513973388672E+02 -0.294195995331E+02  0.167629604340E+02
 -0.513973388672E+02 -0.244852199554E+02  0.210955390930E+02
 -0.513973388672E+02 -0.244852104187E+02 -0.210955505371E+02
 -0.513973312378E+02 -0.294195899963E+02 -0.167629795074E+02
 -0.511176185608E+02  0.143191604614E+02  0.737721014023E+01
 -0.511176109314E+02 -0.160160198212E+02  0.250954303741E+02
 -0.511176109314E+02 -0.464752817154E+01  0.250954303741E+02
 -0.511176109314E+02  0.143191499710E+02 -0.737723112106E+01
 -0.511175994873E+02 -0.160160198212E+02 -0.250954494476E+02
 -0.511175994873E+02 -0.464753007889E+01 -0.250954494476E+02
 -0.511175918579E+02 -0.349827117920E+02  0.737721014023E+01
 -0.511175804138E+02 -0.349827003479E+02 -0.737723112106E+01
 -0.501702308655E+02 -0.957686424255E+00  0.250954303741E+02
 -0.501702308655E+02  0.135354099274E+02  0.121660203934E+02
 -0.501702194214E+02 -0.197058601379E+02  0.250954303741E+02
 -0.501702194214E+02 -0.957690179348E+00 -0.250954494476E+02
 -0.501702194214E+02  0.135354099274E+02 -0.121660404205E+02
 -0.501702003479E+02 -0.341989593506E+02  0.121660203934E+02
 -0.501702003479E+02 -0.341989517212E+02 -0.121660404205E+02
 -0.501702003479E+02 -0.197058601379E+02 -0.250954494476E+02
 -0.493862915039E+02  0.747979021072E+01  0.210955390930E+02
 -0.493862800598E+02  0.747978591919E+01 -0.210955505371E+02
 -0.493862686157E+02 -0.281433391571E+02  0.210955390930E+02
 -0.493862609863E+02 -0.281433296204E+02 -0.210955505371E+02
 -0.487678489685E+02  0.258431911469E+01  0.250954303741E+02
 -0.487678489685E+02  0.123752603531E+02 -0.167629795074E+02
 -0.487678489685E+02  0.123752603531E+02  0.167629604340E+02
 -0.487678413391E+02  0.258431410789E+01 -0.250954494476E+02
 -0.487678298950E+02 -0.330388107300E+02  0.167629604340E+02
 -0.487678298950E+02 -0.232478599548E+02  0.250954303741E+02
 -0.487678184509E+02 -0.232478599548E+02 -0.250954494476E+02
 -0.487678108215E+02 -0.330387992859E+02 -0.167629795074E+02
 -0.482172584534E+02 -0.863952445984E+01  0.286995506287E+02
 -0.482172584534E+02  0.183111591339E+02 -0.247207999229E+01
 -0.482172584534E+02  0.183111591339E+02  0.247205805779E+01
 -0.482172508240E+02 -0.120240201950E+02  0.286995506287E+02
 -0.482172508240E+02 -0.863952541351E+01 -0.286995697021E+02
 -0.482172393799E+02 -0.120240201950E+02 -0.286995697021E+02
 -0.482172317505E+02 -0.389747009277E+02 -0.247207999229E+01
 -0.482172317505E+02 -0.389747009277E+02  0.247205805779E+01
 -0.477930793762E+02  0.178594398499E+02  0.737721014023E+01
 -0.477930717468E+02 -0.528171682358E+01  0.286995506287E+02
 -0.477930717468E+02  0.178594398499E+02 -0.737723112106E+01
 -0.477930603027E+02 -0.153818302155E+02  0.286995506287E+02
 -0.477930603027E+02 -0.528171920776E+01 -0.286995697021E+02
 -0.477930488586E+02 -0.385229911804E+02  0.737721014023E+01
 -0.477930488586E+02 -0.153818197250E+02 -0.286995697021E+02
 -0.477930412292E+02 -0.385229797363E+02 -0.737723112106E+01
 -0.469513893127E+02  0.169631309509E+02  0.121660203934E+02
 -0.469513816833E+02 -0.200355100632E+01  0.286995506287E+02
 -0.469513816833E+02  0.169631309509E+02 -0.121660404205E+02
 -0.469513702393E+02 -0.186599903107E+02  0.286995506287E+02
 -0.469513702393E+02 -0.200355505943E+01 -0.286995697021E+02
 -0.469513587952E+02 -0.186599903107E+02 -0.286995697021E+02
 -0.469513511658E+02 -0.376266784668E+02  0.121660203934E+02
 -0.469513511658E+02 -0.376266708374E+02 -0.121660404205E+02
 -0.469325981140E+02  0.592262983322E+01  0.250954303741E+02
 -0.469325981140E+02  0.108570098877E+02  0.210955390930E+02
 -0.469325904846E+02  0.592262506485E+01 -0.250954494476E+02
 -0.469325904846E+02  0.108570098877E+02 -0.210955505371E+02
 -0.469325790405E+02 -0.265861701965E+02  0.250954303741E+02
[...]
CELL_DATA                2400
SCALARS C_p_ise float 1
LOOKUP_TABLE default
  0.915158693622E+00
  0.915158700883E+00
  0.915158699665E+00
  0.915158691357E+00
  0.915158695236E+00
  0.915158697537E+00
  0.915158691780E+00
  0.915158688184E+00
  0.915158734945E+00
  0.915158687566E+00
  0.915158701211E+00
  0.915158678383E+00
  0.915158661841E+00
  0.915158702581E+00
  0.915158663186E+00
  0.915158705218E+00
  0.915158677990E+00
  0.915158666134E+00
  0.915158716476E+00
  0.915158652797E+00
  0.915158700887E+00
  0.915158663826E+00
  0.915158726024E+00
  0.915158681399E+00
  0.915158650090E+00
  0.915158657332E+00
  0.915158713235E+00
  0.915158723500E+00
  0.915158699819E+00
  0.915158664465E+00
  0.915158662643E+00
  0.915158667992E+00
  0.915158713410E+00
  0.915158650442E+00
  0.915158669053E+00
  0.915158635366E+00
  0.915158664909E+00
  0.915158656456E+00
  0.915158687191E+00
  0.915158646948E+00
  0.915158676508E+00
  0.915158639659E+00
  0.915158707200E+00
  0.915158698614E+00
  0.915158691321E+00
  0.915158682693E+00
  0.915158687467E+00
  0.915158669164E+00
  0.915158688980E+00
  0.915158689046E+00
  0.850663872950E+00
  0.801137446203E+00
  0.850663880379E+00
  0.801137428955E+00
  0.850663895341E+00
  0.801137471839E+00
  0.850663893688E+00
  0.801137408115E+00
  0.850663889218E+00
  0.801137426018E+00
  0.850663891325E+00
  0.801137415851E+00
  0.850663886080E+00
  0.801137413207E+00
  0.850663864009E+00
  0.801137450046E+00
  0.850663870871E+00
  0.801137472367E+00
  0.850663911587E+00
  0.801137535045E+00
  0.850663856137E+00
  0.801137399775E+00
  0.850663852516E+00
  0.801137552297E+00
  0.850663814007E+00
  0.801137434230E+00
  0.850663844044E+00
  0.801137328731E+00
  0.850663871420E+00
  0.801137472837E+00
  0.850663821801E+00
  0.801137386410E+00
  0.850663882702E+00
  0.801137545215E+00
  0.850663870382E+00
  0.801137398848E+00
  0.850663864219E+00
  0.801137408595E+00
  0.850663921449E+00
  0.801137473904E+00
  0.850663876623E+00
  0.801137388890E+00
  0.850663956052E+00
  0.801137536665E+00
  0.850663932420E+00
  0.801137524254E+00
  0.850663976684E+00
  0.801137697113E+00
  0.850663916106E+00
  0.801137442905E+00
  0.850663888620E+00
  0.801137500406E+00
  0.850663897435E+00
  0.801137524512E+00
  0.850663982622E+00
  0.801137511087E+00
  0.850663990841E+00
  0.801137568948E+00
  0.850663965114E+00
  0.801137510587E+00
  0.850663913665E+00
  0.801137455612E+00
  0.850663873350E+00
  0.801137540456E+00
  0.850663908722E+00
  0.801137455340E+00
  0.850663957542E+00
  0.801137604374E+00
  0.850663887752E+00
  0.801137382443E+00
  0.850663902971E+00
  0.801137414212E+00
  0.850663843117E+00
  0.801137347377E+00
  0.850663898205E+00
  0.801137381468E+00
  0.850663876651E+00
  0.801137434408E+00
  0.850663893558E+00
  0.801137463178E+00
  0.850663849635E+00
  0.801137342623E+00
  0.850663867740E+00
  0.801137480100E+00
  0.850663849645E+00
  0.801137259009E+00
  0.850663918619E+00
  0.801137559761E+00
  0.850663906786E+00
  0.801137453835E+00
  0.850663903618E+00
  0.801137470726E+00
  0.850663893903E+00
  0.801137453006E+00
  0.850663901900E+00
  0.801137468373E+00
  0.850663884176E+00
  0.801137393479E+00
  0.850663896120E+00
  0.801137441160E+00
  0.689857435844E+00
  0.630376712018E+00
  0.689857430614E+00
  0.630376714364E+00
  0.689857453932E+00
  0.630376736131E+00
  0.689857389554E+00
  0.630376738652E+00
  0.689857252099E+00
  0.630376669227E+00
  0.689857217382E+00
  0.630376545940E+00
  0.689857273741E+00
  0.630376504983E+00
  0.689857353244E+00
  0.630376597339E+00
  0.689857531412E+00
  0.630376623990E+00
  0.689857633924E+00
  0.630376719590E+00
  0.689857348310E+00
  0.630376889336E+00
  0.689857632657E+00
  0.630376449490E+00
  0.689857757677E+00
  0.630376848075E+00
  0.689857474788E+00
  0.630377014250E+00
  0.689857469798E+00
  0.630376660246E+00
  0.689857358184E+00
  0.630376856597E+00
  0.689857509875E+00
  0.630376699252E+00
  0.689857647481E+00
  0.630376789549E+00
  0.689857397635E+00
  0.630376972888E+00
  0.689857270088E+00
  0.630376741889E+00
  0.689857456545E+00
  0.630376383649E+00
  0.689857427296E+00
  0.630376642640E+00
  0.689857582186E+00
  0.630376569193E+00
  0.689857672431E+00
  0.630376794376E+00
  0.689857517395E+00
  0.630376959889E+00
  0.689857640134E+00
  0.630376599261E+00
  0.689857773424E+00
  0.630376838154E+00
  0.689857685860E+00
  0.630376918744E+00
  0.689857311390E+00
  0.630376914866E+00
  0.689857385065E+00
  0.630376403411E+00
  0.689857437258E+00
  0.630376448924E+00
  0.689857511499E+00
  0.630376541286E+00
  0.689857492855E+00
  0.630376742474E+00
  0.689857518249E+00
  0.630376646013E+00
  0.689857415236E+00
  0.630376788144E+00
  0.689857252056E+00
  0.630376652845E+00
  0.689857221031E+00
  0.630376511669E+00
  0.689857186925E+00
  0.630376578114E+00
  0.689857296922E+00
  0.630376467396E+00
  0.689857362628E+00
  0.630376637052E+00
  0.689857294353E+00
  0.630376659239E+00
  0.689857361347E+00
  0.630376555241E+00
  0.689857229164E+00
  0.630376742549E+00
  0.689857321707E+00
  0.630376476983E+00
  0.689857398236E+00
  0.630376694961E+00
  0.689857380701E+00
  0.630376714243E+00
  0.689857403570E+00
  0.630376738099E+00
  0.689857427795E+00
  0.630376766117E+00
  0.689857411473E+00
  0.630376771873E+00
  0.689857438227E+00
  0.630376672697E+00
  0.481018301229E+00
  0.416960228777E+00
  0.481018327195E+00
  0.416960162132E+00
  0.481018467728E+00
  0.416960112541E+00
  0.481018357099E+00
  0.416960275281E+00
  0.481018314302E+00
  0.416960240535E+00
  0.481018076451E+00
  0.416960491727E+00
  0.481018261432E+00
  0.416959987536E+00
  0.481018493522E+00
  0.416960114456E+00
  0.481018126133E+00
  0.416960639611E+00
  0.481017882907E+00
  0.416960307307E+00
  0.481018124405E+00
  0.416960326117E+00
  0.481018177823E+00
  0.416960350275E+00
  0.481018128610E+00
  0.416960065102E+00
  0.481018234300E+00
  0.416960222334E+00
  0.481018691430E+00
  0.416960011052E+00
  0.481018589008E+00
  0.416960662608E+00
  0.481018748362E+00
  0.416960442929E+00
  0.481018343404E+00
  0.416960607126E+00
  0.481018635458E+00
  0.416960169486E+00
  0.481018721893E+00
  0.416960629008E+00
  0.481017885828E+00
  0.416960722430E+00
  0.481018042622E+00
  0.416959739515E+00
  0.481018022476E+00
  0.416960248989E+00
  0.481018018984E+00
  0.416960366736E+00
  0.481018456453E+00
  0.416960266880E+00
  0.481018255004E+00
  0.416960518837E+00
  0.481018157835E+00
  0.416960216314E+00
  0.481017865833E+00
  0.416960595228E+00
  0.481018570762E+00
  0.416960078474E+00
  0.481017951334E+00
  0.416961033556E+00
  0.481017770293E+00
  0.416959967497E+00
  0.481017736201E+00
  0.416960105173E+00
  0.481017951772E+00
  0.416960089781E+00
  0.481018063617E+00
  0.416960136900E+00
  0.481018236138E+00
  0.416960047774E+00
  0.481018221656E+00
  0.416960219708E+00
  0.481018291553E+00
  0.416960178170E+00
  0.481018331845E+00
  0.416960216179E+00
  0.481018243261E+00
  0.416960250364E+00
  0.481018261199E+00
  0.416960114041E+00
  0.481018178295E+00
  0.416960221185E+00
  0.481018230465E+00
  0.416960111157E+00
  0.481018307028E+00
  0.416960168412E+00
  0.481018409837E+00
  0.416960241129E+00
  0.481018158549E+00
  0.416960408020E+00
  0.481018353563E+00
  0.416960142532E+00
  0.481018479078E+00
  0.416960360683E+00
  0.481018561585E+00
  0.416960440965E+00
  0.481018412136E+00
  0.416960559557E+00
  0.481018391708E+00
  0.416960189777E+00
  0.240055707557E+00
  0.177079194833E+00
  0.240055595096E+00
  0.177079745609E+00
  0.240055243642E+00
  0.177079881612E+00
  0.240055303636E+00
  0.177079418034E+00
  0.240055590225E+00
  0.177079350265E+00
  0.240056671137E+00
  0.177079256487E+00
  0.240055652487E+00
  0.177080529322E+00
  0.240055305450E+00
  0.177078974925E+00
  0.240056366916E+00
  0.177078954903E+00
  0.240056255042E+00
  0.177080137114E+00
  0.240057407896E+00
  0.177079154716E+00
  0.240055951253E+00
  0.177080937631E+00
  0.240055277931E+00
  0.177079257871E+00
  0.240056037619E+00
  0.177078633116E+00
  0.240054922800E+00
  0.177079924743E+00
  0.240056307636E+00
  0.177077903177E+00
  0.240055746527E+00
  0.177080324623E+00
  0.240055583326E+00
  0.177079500133E+00
  0.240055943881E+00
  0.177079476458E+00
  0.240056119459E+00
  0.177079697133E+00
  0.240056082112E+00
  0.177079931414E+00
  0.240055778726E+00
  0.177080202903E+00
  0.240055810544E+00
  0.177079517973E+00
  0.240056872913E+00
  0.177079156081E+00
  0.240056433016E+00
  0.177080013199E+00
  0.240055667040E+00
  0.177080094958E+00
  0.240055843507E+00
  0.177079485029E+00
  0.240056935621E+00
  0.177079046453E+00
  0.240056629033E+00
  0.177080069736E+00
  0.240056787904E+00
  0.177079347549E+00
  0.240055968266E+00
  0.177080156707E+00
  0.240056490145E+00
  0.177079221304E+00
  0.240056304435E+00
  0.177080011558E+00
  0.240055926650E+00
  0.177079836439E+00
  0.240055501101E+00
  0.177079642062E+00
  0.240055653086E+00
  0.177079372739E+00
  0.240055700413E+00
  0.177079587252E+00
  0.240055697172E+00
  0.177079347574E+00
  0.240055734022E+00
  0.177079463076E+00
  0.240055623684E+00
  0.177079425149E+00
  0.240055728625E+00
  0.177079310158E+00
  0.240055600875E+00
  0.177079617585E+00
  0.240055685172E+00
  0.177079402720E+00
  0.240055672568E+00
  0.177079450744E+00
  0.240055913616E+00
  0.177079438319E+00
  0.240055907788E+00
  0.177079739271E+00
  0.240055811478E+00
  0.177079575382E+00
  0.240056077533E+00
  0.177079299491E+00
  0.240056312314E+00
  0.177079464027E+00
  0.240055384137E+00
  0.177080356683E+00
 -0.138606769595E-01
 -0.712312698921E-01
 -0.138608442440E-01
 -0.712329236291E-01
 -0.138597049856E-01
 -0.712328351238E-01
 -0.138601480511E-01
 -0.712317716986E-01
 -0.138605914572E-01
 -0.712322753139E-01
 -0.138609734569E-01
 -0.712325954339E-01
 -0.138608952501E-01
 -0.712327052206E-01
 -0.138615489170E-01
 -0.712317313923E-01
 -0.138612542546E-01
 -0.712333031602E-01
 -0.138609853609E-01
 -0.712325237656E-01
 -0.138618472471E-01
 -0.712325373451E-01
 -0.138609429917E-01
 -0.712337185780E-01
 -0.138609701062E-01
 -0.712316175689E-01
 -0.138616436648E-01
 -0.712317458702E-01
 -0.138611580906E-01
 -0.712322415252E-01
 -0.138626669792E-01
 -0.712314370335E-01
 -0.138612209533E-01
 -0.712342819416E-01
 -0.138603200621E-01
 -0.712324895333E-01
 -0.138608259821E-01
 -0.712324540771E-01
 -0.138606333549E-01
 -0.712321938492E-01
 -0.138609362978E-01
 -0.712317672024E-01
 -0.138598068691E-01
 -0.712328331648E-01
 -0.138601771122E-01
 -0.712310098785E-01
 -0.138615602154E-01
 -0.712314042862E-01
 -0.138623790975E-01
 -0.712327055622E-01
 -0.138600536916E-01
 -0.712342058107E-01
 -0.138606064569E-01
 -0.712317167842E-01
 -0.138618574262E-01
 -0.712324954566E-01
 -0.138619793494E-01
 -0.712331658666E-01
 -0.138624401685E-01
 -0.712325123429E-01
 -0.138616026737E-01
 -0.712336238034E-01
 -0.138608158532E-01
 -0.712329027799E-01
 -0.138609975723E-01
 -0.712324411526E-01
 -0.138607280081E-01
 -0.712325697180E-01
 -0.138608052605E-01
 -0.712320716296E-01
 -0.138607948496E-01
 -0.712324071263E-01
 -0.138605712795E-01
 -0.712326013287E-01
 -0.138610638983E-01
 -0.712320211854E-01
 -0.138610644377E-01
 -0.712326846888E-01
 -0.138612195803E-01
 -0.712322459668E-01
 -0.138611916844E-01
 -0.712325037874E-01
 -0.138607168003E-01
 -0.712326590170E-01
 -0.138608318745E-01
 -0.712323089287E-01
 -0.138612316114E-01
 -0.712324378301E-01
 -0.138609399257E-01
 -0.712332101088E-01
 -0.138607588445E-01
 -0.712330817333E-01
 -0.138608157789E-01
 -0.712328982480E-01
 -0.138614190433E-01
 -0.712328194105E-01
 -0.138620687277E-01
 -0.712325327860E-01
 -0.138600868303E-01
 -0.712335312522E-01
 -0.261644413781E+00
 -0.310581215444E+00
 -0.261645131459E+00
 -0.310579591897E+00
 -0.261645364573E+00
 -0.310581384706E+00
 -0.261645180752E+00
 -0.310580960510E+00
 -0.261644264452E+00
 -0.310581049021E+00
 -0.261645869251E+00
 -0.310580153576E+00
 -0.261644936389E+00
 -0.310581760605E+00
 -0.261643662068E+00
 -0.310580577245E+00
 -0.261644638746E+00
 -0.310579201526E+00
 -0.261644290074E+00
 -0.310581736104E+00
 -0.261645458486E+00
 -0.310579383867E+00
 -0.261645607635E+00
 -0.310580380531E+00
 -0.261644329411E+00
 -0.310581610073E+00
 -0.261642863966E+00
 -0.310580819956E+00
 -0.261642489055E+00
 -0.310580509161E+00
 -0.261643095183E+00
 -0.310579319691E+00
 -0.261644199930E+00
 -0.310579136480E+00
 -0.261645931770E+00
 -0.310579970283E+00
 -0.261645372682E+00
 -0.310580185422E+00
 -0.261644066161E+00
 -0.310580730228E+00
 -0.261643116035E+00
 -0.310580555201E+00
 -0.261645093126E+00
 -0.310579612866E+00
 -0.261643479172E+00
 -0.310582086212E+00
 -0.261642489333E+00
 -0.310579907909E+00
 -0.261644153631E+00
 -0.310579268269E+00
 -0.261645753961E+00
 -0.310580196262E+00
 -0.261645488261E+00
 -0.310580922078E+00
 -0.261644419217E+00
 -0.310580105815E+00
 -0.261644614270E+00
 -0.310580440104E+00
 -0.261643890717E+00
 -0.310581303984E+00
 -0.261644855974E+00
 -0.310579386343E+00
 -0.261645369614E+00
 -0.310580373791E+00
 -0.261644602070E+00
 -0.310580994394E+00
 -0.261644877568E+00
 -0.310580060252E+00
 -0.261644047715E+00
 -0.310580326851E+00
 -0.261644458306E+00
 -0.310579213399E+00
 -0.261644759608E+00
 -0.310580139945E+00
 -0.261644596441E+00
 -0.310579940474E+00
 -0.261644443737E+00
 -0.310579828947E+00
 -0.261644226902E+00
 -0.310580737073E+00
 -0.261644131069E+00
 -0.310580446223E+00
 -0.261644500355E+00
 -0.310580310730E+00
 -0.261644836215E+00
 -0.310580072449E+00
 -0.261644356247E+00
 -0.310580531783E+00
 -0.261645605625E+00
 -0.310579675037E+00
 -0.261646318734E+00
 -0.310580705259E+00
 -0.261646051385E+00
 -0.310580408764E+00
 -0.261646181184E+00
 -0.310580485389E+00
 -0.261644209485E+00
 -0.310581770354E+00
 -0.261644697882E+00
 -0.310579783211E+00
 -0.487413326801E+00
 -0.526745909285E+00
 -0.487413105255E+00
 -0.526746670486E+00
 -0.487413664171E+00
 -0.526745581614E+00
 -0.487414034429E+00
 -0.526747696535E+00
 -0.487414070418E+00
 -0.526746668334E+00
 -0.487413685297E+00
 -0.526746301157E+00
 -0.487413629213E+00
 -0.526747122624E+00
 -0.487413700173E+00
 -0.526747621581E+00
 -0.487412729897E+00
 -0.526747771445E+00
 -0.487414389166E+00
 -0.526745861371E+00
 -0.487413265225E+00
 -0.526748264797E+00
 -0.487410940416E+00
 -0.526746534759E+00
 -0.487413684066E+00
 -0.526744770227E+00
 -0.487415381019E+00
 -0.526747451599E+00
 -0.487415350367E+00
 -0.526747591819E+00
 -0.487413390489E+00
 -0.526748167626E+00
 -0.487412065259E+00
 -0.526746536107E+00
 -0.487411925588E+00
 -0.526745494290E+00
 -0.487411294263E+00
 -0.526747112031E+00
 -0.487412663766E+00
 -0.526746065586E+00
 -0.487414411579E+00
 -0.526745665465E+00
 -0.487414552262E+00
 -0.526746584249E+00
 -0.487413925838E+00
 -0.526746989683E+00
 -0.487414741909E+00
 -0.526746979736E+00
 -0.487413599901E+00
 -0.526747447906E+00
 -0.487413057841E+00
 -0.526746157637E+00
 -0.487411615416E+00
 -0.526747149674E+00
 -0.487412500619E+00
 -0.526745347621E+00
 -0.487413438491E+00
 -0.526745580958E+00
 -0.487414288561E+00
 -0.526745179002E+00
 -0.487412907536E+00
 -0.526747316553E+00
 -0.487411865035E+00
 -0.526746493071E+00
 -0.487413388354E+00
 -0.526745943870E+00
 -0.487413190252E+00
 -0.526747074133E+00
 -0.487412100452E+00
 -0.526747008559E+00
 -0.487411621464E+00
 -0.526746738429E+00
 -0.487412984487E+00
 -0.526745918009E+00
 -0.487411816298E+00
 -0.526747504119E+00
 -0.487411974985E+00
 -0.526745951346E+00
 -0.487413764547E+00
 -0.526746319807E+00
 -0.487413927829E+00
 -0.526747236336E+00
 -0.487413553472E+00
 -0.526746958352E+00
 -0.487412533699E+00
 -0.526747771792E+00
 -0.487412915802E+00
 -0.526746614851E+00
 -0.487412871381E+00
 -0.526746792142E+00
 -0.487411999929E+00
 -0.526746383565E+00
 -0.487411073223E+00
 -0.526746368774E+00
 -0.487411989286E+00
 -0.526745070515E+00
 -0.487413541425E+00
 -0.526745910223E+00
 -0.487413228220E+00
 -0.526746862750E+00
 -0.680081902040E+00
 -0.709902484683E+00
 -0.680081360597E+00
 -0.709901592045E+00
 -0.680081355576E+00
 -0.709901985387E+00
 -0.680082826104E+00
 -0.709900430550E+00
 -0.680081984312E+00
 -0.709902905572E+00
 -0.680080879704E+00
 -0.709901650925E+00
 -0.680082412108E+00
 -0.709900001959E+00
 -0.680083128955E+00
 -0.709901548321E+00
 -0.680083990969E+00
 -0.709901900959E+00
 -0.680083510974E+00
 -0.709902421033E+00
 -0.680081948625E+00
 -0.709902257133E+00
 -0.680083224195E+00
 -0.709902666020E+00
 -0.680082078223E+00
 -0.709902852785E+00
 -0.680081448438E+00
 -0.709901117528E+00
 -0.680082798909E+00
 -0.709901084391E+00
 -0.680082596381E+00
 -0.709902305927E+00
 -0.680083729354E+00
 -0.709902201548E+00
 -0.680082035572E+00
 -0.709904437965E+00
 -0.680082824311E+00
 -0.709901357977E+00
 -0.680084112268E+00
 -0.709902000656E+00
 -0.680080582227E+00
 -0.709904924382E+00
 -0.680080473706E+00
 -0.709901310752E+00
 -0.680082360538E+00
 -0.709902376409E+00
 -0.680082539242E+00
 -0.709903346645E+00
 -0.680082279520E+00
 -0.709901827080E+00
 -0.680082143216E+00
 -0.709901545349E+00
 -0.680082651041E+00
 -0.709902369944E+00
 -0.680082824278E+00
 -0.709904257795E+00
 -0.680081085322E+00
 -0.709902968024E+00
 -0.680079707190E+00
 -0.709902861191E+00
 -0.680081079646E+00
 -0.709900231864E+00
 -0.680083351180E+00
 -0.709902075852E+00
 -0.680082850403E+00
 -0.709902232984E+00
 -0.680082173065E+00
 -0.709902076817E+00
 -0.680083341942E+00
 -0.709902915541E+00
 -0.680083902861E+00
 -0.709902957924E+00
 -0.680083130413E+00
 -0.709901949469E+00
 -0.680082812618E+00
 -0.709902690164E+00
 -0.680083480789E+00
 -0.709903811183E+00
 -0.680083162581E+00
 -0.709902120360E+00
 -0.680082336274E+00
 -0.709902850886E+00
 -0.680082358230E+00
 -0.709901486720E+00
 -0.680083737413E+00
 -0.709901320563E+00
 -0.680084137097E+00
 -0.709902164679E+00
 -0.680082433792E+00
 -0.709902469946E+00
 -0.680082531415E+00
 -0.709901565681E+00
 -0.680082470065E+00
 -0.709901984544E+00
 -0.680082154963E+00
 -0.709901667505E+00
 -0.680081866764E+00
 -0.709902261053E+00
 -0.680081660791E+00
 -0.709901988739E+00
 -0.833253676554E+00
 -0.854336562256E+00
 -0.833252962213E+00
 -0.854338407970E+00
 -0.833253046936E+00
 -0.854335589659E+00
 -0.833252336013E+00
 -0.854337559124E+00
 -0.833251926594E+00
 -0.854336364580E+00
 -0.833253231679E+00
 -0.854337686290E+00
 -0.833251937431E+00
 -0.854338518289E+00
 -0.833250570019E+00
 -0.854337143952E+00
 -0.833252366206E+00
 -0.854335763600E+00
 -0.833252137454E+00
 -0.854337741941E+00
 -0.833252304298E+00
 -0.854337165684E+00
 -0.833254260277E+00
 -0.854337180677E+00
 -0.833253607966E+00
 -0.854338926459E+00
 -0.833252970870E+00
 -0.854337238490E+00
 -0.833252273703E+00
 -0.854339000148E+00
 -0.833252385912E+00
 -0.854338883631E+00
 -0.833253416437E+00
 -0.854338069585E+00
 -0.833254118805E+00
 -0.854336864314E+00
 -0.833254376867E+00
 -0.854337225890E+00
 -0.833251856637E+00
 -0.854338680014E+00
 -0.833255210315E+00
 -0.854335898028E+00
 -0.833255632851E+00
 -0.854340697471E+00
 -0.833253734840E+00
 -0.854337225845E+00
 -0.833254636887E+00
 -0.854335961860E+00
 -0.833253162410E+00
 -0.854338180853E+00
 -0.833251584180E+00
 -0.854338598309E+00
 -0.833253559154E+00
 -0.854336963265E+00
 -0.833255665352E+00
 -0.854338058202E+00
 -0.833254872993E+00
 -0.854339228987E+00
 -0.833254962668E+00
 -0.854338033892E+00
 -0.833253245959E+00
 -0.854340212191E+00
 -0.833252842856E+00
 -0.854336947777E+00
 -0.833252972764E+00
 -0.854339282043E+00
 -0.833252551007E+00
 -0.854338799835E+00
 -0.833254208213E+00
 -0.854335683290E+00
 -0.833253560636E+00
 -0.854337854335E+00
 -0.833251875640E+00
 -0.854338132938E+00
 -0.833253245920E+00
 -0.854336970802E+00
 -0.833255332310E+00
 -0.854336965093E+00
 -0.833253311499E+00
 -0.854338908810E+00
 -0.833252979614E+00
 -0.854336328427E+00
 -0.833252943130E+00
 -0.854339794992E+00
 -0.833252124686E+00
 -0.854338157953E+00
 -0.833251581221E+00
 -0.854338173508E+00
 -0.833252203384E+00
 -0.854337872620E+00
 -0.833253042544E+00
 -0.854338158243E+00
 -0.833252459769E+00
 -0.854338430928E+00
 -0.833252196194E+00
 -0.854337989026E+00
 -0.833253669358E+00
 -0.854335985791E+00