# vtk DataFile Version 3.0
MachLine results file. Generated by MachLine, USU AeroLab (c) 2022.
ASCII
DATASET POLYDATA
POINTS                4802 float
 -0.605345624325E+02 -0.127989667074E+02 -0.247207646547E+01
 -0.605345624330E+02 -0.127989666981E+02  0.247205453104E+01
 -0.605345624330E+02 -0.786459130815E+01 -0.247207646551E+01
 -0.605345624324E+02 -0.786459129891E+01  0.247205453105E+01
 -0.599161245935E+02 -0.176944303425E+02 -0.247207646547E+01
 -0.599161245952E+02 -0.176944303334E+02  0.247205453103E+01
 -0.599161250277E+02 -0.127600568597E+02  0.737719969822E+01
 -0.599161250277E+02 -0.790350066977E+01 -0.737722067903E+01
 -0.599161250260E+02 -0.790350064238E+01  0.737719969823E+01
 -0.599161245952E+02 -0.296912552708E+01 -0.247207646552E+01
 -0.599161245935E+02 -0.296912551799E+01  0.247205453104E+01
 -0.599161135819E+02 -0.127600568870E+02 -0.737722067902E+01
 -0.593074451607E+02 -0.308523820971E+01  0.737719969824E+01
 -0.593074375365E+02 -0.175783188158E+02  0.737719969818E+01
 -0.593074375365E+02 -0.308524038245E+01 -0.737722067898E+01
 -0.593074260872E+02 -0.175783188429E+02 -0.737722067898E+01
 -0.586890069006E+02  0.181022771056E+01 -0.247207646546E+01
 -0.586890068977E+02  0.181022771941E+01  0.247205453101E+01
 -0.586889967020E+02 -0.126828465860E+02  0.121660034423E+02
 -0.586889966992E+02 -0.798070326949E+01  0.121660034423E+02
 -0.586889878243E+02 -0.224737833414E+02 -0.247207646550E+01
 -0.586889878271E+02 -0.224737833326E+02  0.247205453100E+01
 -0.586889890698E+02 -0.126828466305E+02 -0.121660234693E+02
 -0.586889890726E+02 -0.798070426767E+01 -0.121660234693E+02
 -0.580996687516E+02 -0.331563375230E+01  0.121660034423E+02
 -0.580996679379E+02  0.161874106123E+01  0.737719969820E+01
 -0.580996573159E+02 -0.173479211107E+02  0.121660034422E+02
 -0.580996573159E+02 -0.331563474973E+01 -0.121660234694E+02
 -0.580996565023E+02  0.161873912776E+01 -0.737722067899E+01
 -0.580996488644E+02 -0.222822935838E+02 -0.737722067900E+01
 -0.580996488729E+02 -0.222822935577E+02  0.737719969820E+01
 -0.580996496782E+02 -0.173479211545E+02 -0.121660234693E+02
 -0.569302902040E+02  0.123878581376E+01 -0.121660234694E+02
 -0.569302901902E+02  0.123878895557E+01  0.121660034423E+02
 -0.569302787599E+02 -0.219023447736E+02  0.121660034423E+02
 -0.569302711167E+02 -0.219023448160E+02 -0.121660234693E+02
 -0.568725407278E+02 -0.809498516116E+01  0.167629376220E+02
 -0.568725383927E+02  0.639809319391E+01 -0.247207646545E+01
 -0.568725383887E+02  0.639809320231E+01  0.247205453104E+01
 -0.568725331022E+02 -0.125685670631E+02  0.167629376219E+02
 -0.568725193153E+02 -0.270616464402E+02 -0.247207646550E+01
 -0.568725193192E+02 -0.270616464318E+02  0.247205453100E+01
 -0.568725216544E+02 -0.125685671230E+02 -0.167629566953E+02
 -0.568725216581E+02 -0.809498522102E+01 -0.167629566954E+02
 -0.563118534683E+02 -0.365667604836E+01  0.167629376220E+02
 -0.563118515581E+02  0.613425357300E+01  0.737719969819E+01
 -0.563118420354E+02 -0.170068802301E+02  0.167629376219E+02
 -0.563118420354E+02 -0.365667920670E+01 -0.167629566953E+02
 -0.563118401257E+02  0.613425164079E+01 -0.737722067903E+01
 -0.563118286699E+02 -0.267978072877E+02 -0.737722067902E+01
 -0.563118286816E+02 -0.267978072629E+02  0.737719969824E+01
 -0.563118305801E+02 -0.170068707522E+02 -0.167629566953E+02
 -0.551993137799E+02  0.676362344702E+00  0.167629376220E+02
 -0.551993126990E+02  0.561073273392E+01 -0.121660234694E+02
 -0.551993126800E+02  0.561073563529E+01  0.121660034423E+02
 -0.551993012549E+02 -0.262742869254E+02  0.121660034423E+02
 -0.551993023544E+02 -0.213399145718E+02  0.167629376220E+02
 -0.551993023544E+02  0.676358472944E+00 -0.167629566953E+02
 -0.551992936065E+02 -0.262742869658E+02 -0.121660234693E+02
 -0.551992947065E+02 -0.213399050921E+02 -0.167629566953E+02
 -0.544953862344E+02 -0.824454102350E+01  0.210955112692E+02
 -0.544953826659E+02  0.107221198090E+02 -0.247207646548E+01
 -0.544953826609E+02  0.107221198167E+02  0.247205453105E+01
 -0.544953747949E+02 -0.124190073729E+02  0.210955112693E+02
 -0.544953747949E+02 -0.824454205022E+01 -0.210955227134E+02
 -0.544953635875E+02 -0.313856701936E+02 -0.247207646547E+01
 -0.544953635924E+02 -0.313856701858E+02  0.247205453102E+01
 -0.544953671609E+02 -0.124190074460E+02 -0.210955227134E+02
 -0.539721942237E+02  0.103900902340E+02  0.737719969824E+01
 -0.539721859311E+02 -0.410299022351E+01  0.210955112693E+02
 -0.539721827943E+02  0.103900806742E+02 -0.737722067901E+01
 -0.539721783154E+02 -0.165605615120E+02  0.210955112693E+02
 -0.539721783154E+02 -0.410299124912E+01 -0.210955227133E+02
 -0.539721637208E+02 -0.310536415414E+02  0.737719969822E+01
 -0.539721637061E+02 -0.310536301205E+02 -0.737722067903E+01
 -0.539721668576E+02 -0.165605615839E+02 -0.210955227134E+02
 -0.535524845050E+02  0.483579529307E+01  0.167629376220E+02
 -0.535524769013E+02  0.483579142411E+01 -0.167629566953E+02
 -0.535524654571E+02 -0.254993499072E+02  0.167629376220E+02
 -0.535524578022E+02 -0.254993385174E+02 -0.167629566953E+02
 -0.529340456005E+02  0.973125906762E+01  0.121660034422E+02
 -0.529340365086E+02 -0.596706138355E-01  0.210955112693E+02
 -0.529340341804E+02  0.973125521526E+01 -0.121660234694E+02
 -0.529340289018E+02 -0.206038758824E+02  0.210955112693E+02
 -0.529340289018E+02 -0.596725833359E-01 -0.210955227134E+02
 -0.529340151069E+02 -0.303948122678E+02  0.121660034423E+02
 -0.529340150831E+02 -0.303948027687E+02 -0.121660234693E+02
 -0.529340174351E+02 -0.206038759520E+02 -0.210955227134E+02
 -0.515950381407E+02  0.147141146941E+02 -0.247207646545E+01
 -0.515950381348E+02  0.147141147012E+02  0.247205453102E+01
 -0.515950314773E+02 -0.122365373823E+02  0.250953985348E+02
 -0.515950314721E+02 -0.842701291093E+01  0.250953985348E+02
 -0.515950200332E+02 -0.842701490191E+01 -0.250954176083E+02
 -0.515950076173E+02 -0.353776650781E+02 -0.247207646545E+01
 -0.515950076232E+02 -0.353776650709E+02  0.247205453102E+01
 -0.515950123986E+02 -0.122365279292E+02 -0.250954176083E+02
 -0.513973220699E+02  0.382165237499E+01  0.210955112693E+02
 -0.513973208086E+02  0.875602606713E+01  0.167629376220E+02
 -0.513973106570E+02  0.382164920927E+01 -0.210955227134E+02
 -0.513973093967E+02  0.875602029445E+01 -0.167629566954E+02
 -0.513972979526E+02 -0.294195735323E+02  0.167629376220E+02
 -0.513972992129E+02 -0.244852012550E+02  0.210955112692E+02
 -0.513972991817E+02 -0.244851917846E+02 -0.210955227134E+02
 -0.513972902911E+02 -0.294195640462E+02 -0.167629566953E+02
 -0.511175763756E+02  0.143191255806E+02  0.737719969822E+01
 -0.511175731344E+02 -0.160160125684E+02  0.250953985348E+02
 -0.511175731187E+02 -0.464753534199E+01  0.250953985348E+02
 -0.511175687637E+02  0.143191150690E+02 -0.737722067900E+01
 -0.511175616746E+02 -0.160160126507E+02 -0.250954176083E+02
 -0.511175616903E+02 -0.464753733169E+01 -0.250954176083E+02
 -0.511175496902E+02 -0.349826768900E+02  0.737719969822E+01
 -0.511175382286E+02 -0.349826654670E+02 -0.737722067900E+01
 -0.501701942497E+02 -0.957698277362E+00  0.250953985348E+02
 -0.501701906540E+02  0.135353766905E+02  0.121660034422E+02
 -0.501701828315E+02 -0.197058482050E+02  0.250953985348E+02
 -0.501701828314E+02 -0.957702112172E+00 -0.250954176083E+02
 -0.501701792383E+02  0.135353766562E+02 -0.121660234694E+02
 -0.501701601649E+02 -0.341989260794E+02  0.121660034423E+02
 -0.501701601365E+02 -0.341989184843E+02 -0.121660234693E+02
 -0.501701637321E+02 -0.197058482847E+02 -0.250954176083E+02
 -0.493862544668E+02  0.747976674964E+01  0.210955112693E+02
 -0.493862430619E+02  0.747976239632E+01 -0.210955227134E+02
 -0.493862316179E+02 -0.281433156342E+02  0.210955112692E+02
 -0.493862239492E+02 -0.281433061593E+02 -0.210955227134E+02
 -0.487678141270E+02  0.258430276584E+01  0.250953985348E+02
 -0.487678116353E+02  0.123752294294E+02 -0.167629566953E+02
 -0.487678115970E+02  0.123752294756E+02  0.167629376219E+02
 -0.487678065333E+02  0.258429768319E+01 -0.250954176083E+02
 -0.487677925618E+02 -0.330387798063E+02  0.167629376220E+02
 -0.487677950892E+02 -0.232478435301E+02  0.250953985348E+02
 -0.487677836094E+02 -0.232478436060E+02 -0.250954176083E+02
 -0.487677734501E+02 -0.330387684084E+02 -0.167629566954E+02
 -0.482172258593E+02 -0.863952646454E+01  0.286995158534E+02
 -0.482172200841E+02  0.183111182680E+02 -0.247207646549E+01
 -0.482172200774E+02  0.183111182743E+02  0.247205453105E+01
 -0.482172182357E+02 -0.120240180988E+02  0.286995158534E+02
 -0.482172182357E+02 -0.863952750963E+01 -0.286995349268E+02
 -0.482172067859E+02 -0.120240181902E+02 -0.286995349268E+02
 -0.482171933745E+02 -0.389746600681E+02 -0.247207646548E+01
 -0.482171933812E+02 -0.389746600618E+02  0.247205453106E+01
 -0.477930418953E+02  0.178593999569E+02  0.737719969822E+01
 -0.477930396610E+02 -0.528172289765E+01  0.286995158535E+02
 -0.477930342859E+02  0.178593999382E+02 -0.737722067904E+01
 -0.477930282341E+02 -0.153818240515E+02  0.286995158534E+02
 -0.477930282341E+02 -0.528172537179E+01 -0.286995349268E+02
 -0.477930113978E+02 -0.385229512686E+02  0.737719969821E+01
 -0.477930167728E+02 -0.153818136510E+02 -0.286995349268E+02
 -0.477930037484E+02 -0.385229398433E+02 -0.737722067902E+01
 -0.469513535840E+02  0.169630929363E+02  0.121660034423E+02
 -0.469513506118E+02 -0.200356105387E+01  0.286995158534E+02
 -0.469513459871E+02  0.169630929058E+02 -0.121660234693E+02
 -0.469513391961E+02 -0.186599801759E+02  0.286995158534E+02
 -0.469513391961E+02 -0.200356519411E+01 -0.286995349268E+02
 -0.469513277237E+02 -0.186599802631E+02 -0.286995349268E+02
 -0.469513154697E+02 -0.376266404216E+02  0.121660034423E+02
 -0.469513154371E+02 -0.376266328228E+02 -0.121660234693E+02
 -0.469325655963E+02  0.592260924651E+01  0.250953985348E+02
 -0.469325643094E+02  0.108569819696E+02  0.210955112693E+02
 -0.469325580118E+02  0.592260440733E+01 -0.250954176083E+02
 -0.469325567267E+02  0.108569819132E+02 -0.210955227134E+02
 -0.469325465677E+02 -0.265861495390E+02  0.250953985348E+02
[...]
POINT_DATA                4802
SCALARS phi float 1
LOOKUP_TABLE default
 -0.207910355599E-10
  0.189059878863E-11
  0.116051612764E-11
  0.270006239589E-11
  0.164968039229E-11
  0.342070816117E-10
 -0.298028268730E-11
 -0.269246847040E-10
  0.441824354880E-11
  0.385784737489E-10
 -0.374300590522E-11
 -0.434008384786E-11
 -0.115374376719E-11
 -0.259423593718E-10
 -0.341593420217E-11
 -0.100497388189E-11
 -0.101018082788E-10
  0.176147985087E-11
 -0.362998520131E-11
 -0.363797880709E-11
  0.842659275690E-13
 -0.123723253864E-11
 -0.276401124211E-11
  0.719779791325E-11
 -0.675903777392E-12
  0.414335232790E-12
  0.298783220387E-10
  0.509592368303E-10
 -0.905941988094E-12
 -0.224353868816E-11
  0.920596932019E-12
 -0.811795075606E-12
 -0.938120692240E-10
  0.669597710612E-11
  0.426414459298E-11
 -0.712763181809E-11
  0.503508346128E-11
  0.670796751479E-11
  0.195177207729E-11
  0.101811892250E-10
 -0.400435240522E-11
  0.714428516346E-11
  0.884625706021E-12
 -0.166178182326E-11
  0.491695573146E-11
  0.610800299228E-11
  0.837641067619E-11
 -0.922550924543E-11
  0.697664148674E-12
 -0.726485538394E-11
 -0.416999768049E-12
 -0.384137166520E-11
  0.432809343920E-11
  0.706101843662E-12
  0.412558875951E-11
  0.699973412566E-11
  0.160014224093E-10
 -0.110045306201E-11
 -0.551363399381E-10
 -0.348343576206E-11
  0.519229104157E-11
  0.444283498879E-10
  0.123958621145E-10
  0.114717124688E-10
 -0.741806616134E-11
  0.415434353584E-11
  0.328481686296E-11
 -0.819788681383E-11
 -0.247366571671E-10
 -0.127897692437E-11
  0.321076498722E-12
  0.682121026330E-11
  0.249826825893E-10
  0.684208245616E-11
 -0.103872466184E-10
 -0.112549969344E-10
 -0.420374846044E-11
  0.175068848307E-10
  0.977617986564E-11
 -0.152349244331E-10
  0.116138210160E-10
 -0.449418280368E-12
 -0.125766064230E-11
  0.127382548953E-10
 -0.211759498825E-10
  0.637001562609E-11
 -0.101998409718E-10
 -0.152091672589E-10
 -0.114900311488E-10
  0.296962454627E-11
  0.623856521997E-11
  0.300737212910E-11
 -0.154898316396E-11
 -0.847233394552E-11
 -0.137926337018E-10
 -0.636468655557E-11
  0.117061915716E-10
 -0.543032285805E-11
 -0.849986747653E-11
  0.828048740686E-11
  0.132915900508E-10
  0.830802093787E-11
 -0.155786494815E-11
  0.123749899217E-10
 -0.128430599489E-11
  0.173532299641E-10
 -0.371791486486E-11
  0.567679236951E-11
 -0.331468186232E-11
 -0.245670150889E-11
 -0.319300141882E-12
 -0.183670856302E-10
 -0.385469434150E-12
 -0.726529947315E-11
  0.305711012061E-11
 -0.282174283939E-10
 -0.246203057941E-11
  0.864108784526E-11
 -0.608579853179E-11
 -0.119904086660E-11
 -0.688871182319E-11
  0.189359639080E-11
  0.306279446249E-10
 -0.269295696853E-11
  0.781597009336E-12
  0.725286497527E-11
 -0.193622895495E-12
 -0.769162511460E-12
  0.124300569837E-10
  0.136193278877E-10
 -0.250466314355E-12
 -0.977795622248E-11
  0.560440582831E-11
  0.792754750734E-11
  0.685240753029E-11
  0.980726611033E-11
 -0.186517468137E-11
  0.309974268475E-11
 -0.883815243213E-11
 -0.114803722084E-10
  0.197575289462E-11
  0.122177823414E-10
  0.369038133385E-11
  0.102460262497E-10
 -0.399857924549E-11
  0.629141183595E-11
 -0.920685749861E-11
 -0.514077669322E-11
 -0.484501327946E-11
  0.112709841460E-10
  0.799094124204E-11
  0.119140253219E-10
 -0.611422024122E-11
 -0.849809111969E-11
  0.148059342564E-10
 -0.163069557857E-10
 -0.477839989799E-12
 -0.385469434150E-12
 -0.594546634147E-11
 -0.970956648416E-11
  0.136939348749E-10
 -0.126707533354E-10
  0.530775423613E-11
 -0.749800221911E-11
  0.292743607133E-11
 -0.229327667967E-11
 -0.825295387585E-11
  0.774580399820E-11
  0.115178977467E-10
  0.721911419532E-11
 -0.138911104841E-11
 -0.146753720287E-10
 -0.122213350551E-11
 -0.785504994383E-11
  0.240643061034E-10
 -0.241051623107E-11
  0.111970432926E-10
  0.800548516366E-11
  0.803979105513E-11
  0.823163759378E-11
 -0.905941988094E-11
 -0.153693724414E-10
 -0.621724893790E-11
  0.117950094136E-11
  0.329691829393E-11
 -0.909494701773E-12
 -0.260058641288E-11
  0.102744479591E-10
 -0.105444541987E-10
  0.134896538384E-10
  0.307309733216E-11
 -0.774846853346E-11
  0.557776047572E-11
  0.779154518682E-11
 -0.138378197789E-11
  0.144044776107E-10
 -0.663646915200E-11
 -0.727284898971E-11
 -0.605204775184E-11
 -0.927435905851E-11
  0.230926389122E-12
  0.346744855051E-11
  0.216431317313E-10
  0.109281472760E-10
  0.496669372296E-11
 -0.160937929650E-10
 -0.380495635000E-11
 -0.633271213246E-11
  0.435740332705E-11
  0.809396993873E-11
 -0.486721773996E-11
  0.101518793372E-10
 -0.884803341705E-11
  0.363886698551E-11
 -0.168425273728E-10
 -0.238031816480E-12
  0.310507175527E-11
 -0.476418904327E-11
  0.646416253858E-11
 -0.696509516729E-11
  0.916067222079E-11
  0.127577948206E-10
 -0.625988150205E-11
 -0.225597318604E-12
  0.302868841118E-11
 -0.608935124546E-11
  0.291144885978E-11
  0.121289644994E-10
 -0.954258894126E-11
 -0.718891612905E-11
 -0.124451560168E-10
 -0.675015598972E-13
  0.668798350034E-11
  0.100470742836E-10
  0.464894789332E-11
  0.663746835272E-11
 -0.302335934066E-11
 -0.806932298758E-11
 -0.226030305583E-11
 -0.162891922173E-11
  0.896127616556E-11
  0.702193858615E-11
  0.941824396250E-11
  0.296473956496E-11
 -0.391908727693E-11
 -0.411048972637E-11
  0.137312383686E-11
 -0.139790401477E-10
  0.303046476802E-11
 -0.381916720471E-12
  0.101358921256E-10
 -0.473221462016E-11
  0.104520836430E-10
  0.617639273059E-11
  0.383071352417E-11
 -0.483968420895E-11
 -0.337507799486E-12
 -0.117887921647E-10
 -0.990318937966E-12
 -0.112976294986E-11
  0.450839365840E-11
  0.500932628711E-12
 -0.287769807983E-12
 -0.993694015961E-11
  0.845012948503E-11
  0.116653353643E-10
 -0.506439334913E-11
 -0.773425767875E-11
  0.692956803050E-11
  0.678834766177E-11
 -0.350652840098E-11
  0.125268684315E-10
 -0.627231599992E-11
  0.567990099398E-11
 -0.127471366795E-10
 -0.229150032283E-11
  0.788347165326E-11
  0.527577981302E-11
 -0.405719902119E-11
  0.938271682571E-11
 -0.595790083935E-11
 -0.663646915200E-11
  0.656186216474E-11
  0.301980662698E-13
  0.334310357175E-11
 -0.971667191152E-12
 -0.746069872548E-11
  0.732214289201E-11
  0.107505115921E-10
 -0.412647693793E-11
 -0.473399097700E-11
 -0.426325641456E-12
  0.303934655221E-11
 -0.329336558025E-11
  0.382804898891E-11
  0.103792530126E-10
 -0.479616346638E-12
  0.788169529642E-11
 -0.589572834997E-11
 -0.157385215971E-11
  0.548361356323E-11
  0.762589991155E-11
  0.558875168366E-11
  0.215383266777E-11
 -0.677591316389E-11
 -0.820266077284E-11
 -0.121858079183E-11
 -0.167688085639E-11
  0.126552102131E-10
  0.133004718350E-11
  0.813216161077E-11
  0.493116658618E-11
 -0.357225360403E-11
 -0.609468031598E-11
 -0.149134038452E-10
 -0.867927951731E-11
  0.446931380793E-11
  0.103890229752E-10
 -0.109334763465E-11
  0.744115880025E-11
 -0.770938868300E-12
 -0.123749899217E-10
 -0.201083594220E-11
 -0.370903308067E-11
  0.357047724719E-12
  0.102513553202E-10
 -0.620126172635E-11
 -0.479971618006E-11
  0.433963975865E-11
  0.211475281731E-11
  0.107558406626E-11
  0.781064102284E-11
 -0.486721773996E-11
  0.607158767707E-11
 -0.163531410635E-10
 -0.192024174339E-11
  0.422595292093E-11
 -0.393995946979E-11
  0.894928575690E-11
 -0.686917189796E-11
 -0.264677169071E-12
 -0.124344978758E-13
 -0.114930287509E-11
  0.664357457936E-12
  0.491695573146E-11
  0.485655959892E-11
 -0.578914693961E-11
  0.822808488010E-11
  0.107469588784E-11
 -0.820499224119E-11
  0.550670620214E-11
 -0.269828603905E-11
  0.487965223783E-11
  0.477307082747E-11
 -0.723154869320E-11
  0.836308799990E-11
 -0.112443387934E-11
  0.106119557586E-10
 -0.643396447231E-11
 -0.360955709766E-11
  0.257571741713E-11
  0.105160324892E-11
  0.131059607611E-10
 -0.226485497024E-11
  0.593836091412E-11
  0.880895356659E-11
 -0.298427949019E-11
 -0.327027294134E-11
  0.303757019537E-11
 -0.396305210870E-11
 -0.261124455392E-11
  0.830091551052E-11
 -0.154543045028E-12
  0.107807096583E-10
 -0.302158298382E-11
  0.227373675443E-12
  0.112859721568E-10
  0.390498744451E-11
  0.656363852158E-11
  0.506972241965E-11
 -0.209610107049E-12
 -0.386535248253E-11
 -0.196599403424E-10
 -0.114277476371E-10
  0.229727348255E-11
  0.111430864536E-10
  0.658317844682E-11
  0.605515637631E-11
 -0.102402530899E-10
 -0.218958184917E-10
 -0.118127729820E-11
 -0.129674049276E-11
 -0.134381394901E-11
  0.169642078163E-11
  0.525623988779E-11
  0.614797102116E-11
 -0.270006239589E-11
 -0.578381786909E-11
 -0.136290978503E-10
 -0.114752651825E-11
  0.173905334577E-11
  0.645705711122E-11
 -0.213873363464E-11
 -0.487077045364E-11
 -0.451194637208E-11
  0.151985091179E-10
  0.447109016477E-11
  0.136175515308E-10
 -0.147259981986E-11
 -0.260502730498E-11
 -0.443023395746E-11
  0.147259981986E-11
  0.444089209850E-11
 -0.493827201353E-12
 -0.192557081391E-11
  0.831690272207E-11
  0.154543045028E-11
  0.937916411203E-11
 -0.463451499400E-11
 -0.197175609173E-12
  0.277999845366E-11
  0.838085156829E-11
 -0.113331566354E-11
  0.824229573482E-11
  0.440536496171E-12
  0.424549284617E-11
 -0.317079695833E-11
  0.270361510957E-11
  0.403055366860E-11
 -0.521183096680E-11
  0.638600283764E-11
 -0.730437932361E-11
  0.115107923193E-11
 -0.268940425485E-11
 -0.241406894474E-11
 -0.780353559549E-11
  0.218847162614E-11
  0.968114477473E-12
  0.852118375860E-11
  0.891731133379E-12
  0.775735031766E-11
  0.204103400847E-11
  0.109245945623E-11
 -0.105337960576E-11
  0.410160794218E-11
 -0.234656738485E-11
  0.706101843662E-11
 -0.252420306879E-11
 -0.245492515205E-11
  0.579802872380E-11
 -0.605204775184E-11
  0.945021838561E-12
  0.325606208662E-11
 -0.322586402035E-11
  0.652988774164E-11
  0.182964754458E-11
  0.349942297362E-12
  0.579447601012E-11
 -0.423305834829E-11
 -0.834887714518E-13
  0.264677169071E-11
  0.156870072487E-10
  0.179412040779E-12
  0.165023550380E-11
  0.833821900414E-11
  0.624389429049E-11
  0.211286543816E-11
  0.513500353350E-11
  0.183675297194E-11
 -0.372857300590E-11
 -0.137695410629E-10
 -0.146409551149E-10
  0.609290395914E-11
  0.525623988779E-11
  0.650191012141E-11
 -0.812239164816E-12
 -0.688027412821E-11
 -0.126920696175E-10
  0.154543045028E-11
  0.409627887166E-11
  0.283861822936E-11
 -0.394351218347E-12
  0.749267314859E-11
 -0.433253433130E-11
  0.565947289033E-11
  0.591526827520E-12
 -0.127542421069E-11
 -0.604138961080E-11
  0.625810514521E-11
  0.556354962100E-11
  0.796163135419E-11
 -0.837552249777E-12
  0.135536026846E-11
  0.509814412908E-12
 -0.145670142615E-10
 -0.792166332531E-11
 -0.367439412230E-11
  0.589395199313E-11
  0.573763259126E-11
  0.948130463030E-11
 -0.486721773996E-12
  0.817124146124E-13
 -0.427036184192E-11
 -0.133351107934E-10
  0.576605430069E-11
  0.529887245193E-11
  0.115250031740E-10
 -0.305178105009E-11
  0.236255459640E-12
 -0.873612293617E-11
  0.223643326080E-11
  0.870414851306E-12
  0.761524177051E-11
  0.527755616986E-11
  0.859401438902E-11
 -0.270539146641E-11
  0.557776047572E-12
  0.628475049780E-11
  0.174615877313E-11
  0.269473332537E-11
  0.941469124882E-12
  0.428812541031E-11
 -0.939692768043E-12
  0.584776671531E-11
  0.763655805258E-11
 -0.498801000504E-11
 -0.177635683940E-14
  0.504485342390E-12
  0.440358860487E-11
  0.177102776888E-11
 -0.146727074934E-11
  0.698108237884E-11
  0.128075328121E-11
 -0.287769807983E-11
  0.593658455728E-11
 -0.754951656745E-11
  0.823696666430E-11
  0.483346696001E-11
 -0.167155178588E-11
 -0.473399097700E-11
  0.118589582598E-10
  0.184030568562E-11
  0.183320025826E-11
 -0.195043980966E-11
  0.435207425653E-12
  0.343014505688E-11
  0.707167657765E-11
  0.211386463889E-12
  0.415312229052E-11
 -0.262545540863E-11
 -0.881072992343E-12
  0.635402841453E-11
  0.252242671195E-12
  0.717115256066E-11
 -0.609290395914E-12
  0.106581410364E-11
  0.595967719619E-11
  0.358468810191E-11
  0.321698223615E-11
 -0.214939177567E-12
  0.874678107721E-11
  0.177635683940E-11
  0.192912352759E-11
 -0.222044604925E-12
  0.603428418344E-11
  0.127542421069E-11
  0.344613226844E-11
  0.399857924549E-11
  0.151700874085E-11
  0.744293515709E-11
 -0.722977233636E-12
  0.202682315376E-11
  0.227728946811E-11
  0.668265442982E-11
  0.263078447915E-11
  0.287769807983E-12
  0.465760763291E-11
 -0.941469124882E-12
  0.541611200333E-11
 -0.474109640436E-11
  0.564703839245E-11
  0.198951966013E-12
  0.986233317235E-11
 -0.238031816480E-12
  0.121245236073E-10
  0.797584220891E-12
  0.156159529752E-10
  0.442312853011E-12
  0.103721475853E-10
  0.386757292858E-11
  0.505284702967E-11
  0.495115060062E-11
  0.621369622422E-11
  0.280309109257E-11
  0.206590300422E-11
  0.484412510104E-11
  0.820676859803E-12
  0.405897537803E-11
  0.198419058961E-11
  0.164668279012E-11
 -0.134878774816E-10
 -0.444089209850E-13
  0.131237243295E-10
 -0.352429196937E-11
  0.705924207978E-11
  0.109245945623E-11
  0.636646291241E-11
 -0.199484873065E-11
  0.902389274415E-11
  0.300381941543E-11
 -0.485833595576E-11
 -0.550670620214E-11
  0.843236591663E-11
 -0.364508423445E-11
 -0.162235780365E-10
 -0.109208198040E-10
 -0.152478030202E-10
 -0.164401825486E-10
 -0.626787510782E-11
 -0.197104554900E-10
 -0.299760216649E-11
 -0.921041021229E-11
 -0.527933252670E-11
  0.570210545447E-12
 -0.112621023618E-11
 -0.384403620046E-11
  0.753175299906E-12
  0.309796632791E-11
  0.617639273059E-11
  0.134470212743E-11
  0.261124455392E-11
  0.177280412572E-11
  0.353495011041E-12
  0.113686837722E-11
  0.254551935086E-11
  0.210143014101E-11
  0.333066907388E-11
  0.646060982490E-11
  0.881072992343E-12
 -0.548006084955E-11
  0.412647693793E-11
  0.384225984362E-11
  0.201616501272E-11
  0.561151125567E-11
  0.546762635167E-11
  0.374988928797E-11
 -0.870414851306E-12
 -0.744471151393E-11
 -0.112621023618E-11
  0.176214598469E-11
  0.184030568562E-11
  0.408029166010E-11
  0.394884125399E-11
  0.127897692437E-11
  0.299138491755E-11
 -0.242117437210E-11
  0.605915317919E-11
  0.284927637040E-11
 -0.849098569233E-12
 -0.366995323020E-11
  0.509814412908E-11
  0.507327513333E-11
  0.349231754626E-11
  0.528288524038E-11
 -0.394173582663E-11
  0.632738306194E-11
  0.403233002544E-11
 -0.220268248086E-11
  0.243183251314E-11
  0.749622586227E-12
  0.354027918092E-11
  0.649080789117E-11
  0.260769184024E-11
 -0.516742204582E-11
  0.197708516225E-11
  0.291855428713E-11
 -0.627053964308E-11
 -0.346034312315E-11
  0.284750001356E-11
  0.328270743921E-11
  0.537525579603E-11
  0.318323145621E-11
  0.600408611717E-11
  0.297362134916E-11
  0.275690581475E-11
  0.281374923361E-11
  0.105870867628E-11
  0.477662354115E-11
 -0.201971772640E-11
  0.125943699913E-11
  0.107966968699E-10
 -0.139444011893E-11
  0.826005930321E-12
  0.206057393370E-11
  0.585487214266E-11
  0.339639427693E-11
 -0.921218656913E-11
 -0.160227386914E-11
  0.959854418170E-11
  0.146815892776E-11
  0.348698847574E-11
  0.187228010873E-11
  0.397726296342E-11
  0.593480820044E-11
 -0.231992203226E-11
 -0.114424025810E-10
  0.643662900757E-11
  0.548361356323E-11
  0.155431223448E-11
  0.312816439418E-11
  0.614441830749E-11
  0.388311605093E-11
 -0.906474895146E-11
 -0.653344045531E-11
  0.219735341034E-11
 -0.611422024122E-11
  0.366107144600E-11
 -0.238919994899E-11
  0.386712883937E-11
  0.302158298382E-11
  0.503952435338E-11
  0.398436839077E-11
 -0.257127652503E-12
  0.252997622852E-11
  0.235900188272E-11
  0.253130849615E-11
  0.457944793197E-11
  0.536104494131E-11
 -0.118820508987E-10
 -0.146314071969E-10
  0.239974706773E-11
  0.934818888965E-11
  0.259703369920E-11
  0.308375547320E-11
  0.386179976886E-11
  0.417621492943E-11
 -0.948796596845E-11
 -0.142497125211E-10
  0.675015598972E-12
 -0.556177326416E-11
  0.710898007128E-11
  0.586553028370E-11
  0.482103246213E-11
 -0.827782287161E-11
  0.429523083767E-11
 -0.358646445875E-11
  0.370548036699E-11
  0.377653464056E-11
  0.396838117922E-11
 -0.110134124043E-12
  0.417799128627E-11
 -0.137667655054E-11
  0.591882098888E-11
 -0.256150656242E-11
  0.489031037887E-11
  0.490629759042E-11
 -0.298427949019E-12
 -0.900612917576E-12
  0.112443387934E-11
  0.276401124211E-11
 -0.879474271187E-11
 -0.743405337289E-11
  0.507860420385E-11
  0.914823772291E-12
  0.347633033471E-11
  0.724398319107E-11
  0.901145824628E-11
  0.728306304154E-12
  0.287592172299E-11
  0.497379915032E-11
 -0.253841392350E-11
  0.565236746297E-11
 -0.128164145963E-10
 -0.112088116566E-11
  0.113011822123E-10
  0.368416408492E-11
  0.560262947147E-11
  0.322408766351E-11
 -0.176569869836E-11
  0.452082815627E-11
 -0.100186525742E-11
 -0.147615253354E-11
  0.538058486654E-11
 -0.976463354618E-11
  0.391686683088E-11
 -0.876809735928E-11
  0.637889741029E-11
  0.119904086660E-11
  0.340172334745E-11
  0.141042733048E-11
  0.627320417834E-11
  0.213962181306E-11
  0.260591548340E-11
  0.591171556152E-11
 -0.103028696685E-11
  0.416910950207E-11
 -0.664801547146E-11
 -0.686206647060E-11
  0.499511543239E-11
 -0.110507158979E-10
 -0.417443857259E-12
  0.307309733216E-12
  0.515765208320E-11
  0.201616501272E-12
  0.429878355135E-11
  0.382627263207E-11
 -0.667910171614E-12
  0.443201031430E-11
 -0.859845528112E-11
 -0.848476844340E-11
  0.842836911374E-11
  0.899591512393E-11
  0.306599190480E-11
  0.517275111633E-11
  0.154720680712E-11
  0.346567219367E-11
 -0.147029055597E-10
 -0.153796975155E-10
  0.565325564139E-11
  0.162847513252E-11
  0.343369777056E-11
  0.310862446895E-11
  0.160582658282E-11
  0.220623519454E-11
 -0.161304303248E-10
 -0.128156374402E-10
  0.928679355638E-11
 -0.232347474594E-11
  0.563815660826E-11
 -0.857980353430E-11
  0.689936996423E-11
 -0.475530725907E-11
  0.270539146641E-11
 -0.187583282241E-11
  0.760103091579E-11
  0.365751873233E-11
 -0.802913291409E-11
 -0.912692144084E-11
  0.103081987390E-10
 -0.204458672215E-11
  0.605737682235E-12
  0.372324393538E-11
 -0.194333438230E-11
 -0.140687461680E-11
  0.366640051652E-11
 -0.841460234824E-11
  0.629540863883E-11
  0.339461792009E-11
 -0.764188712310E-11
 -0.148858703142E-11
  0.573230352074E-11
  0.395061761083E-11
  0.861177795741E-11
 -0.670397071190E-11
  0.600408611717E-11
  0.308020275952E-11
 -0.358824081559E-11
 -0.634159391666E-11
  0.713917813755E-11
 -0.649436060485E-11
  0.857625082062E-11
 -0.117399423516E-10
  0.100257580016E-10
  0.270716782325E-11
 -0.318500781304E-11
 -0.138200562105E-11
  0.236433095324E-11
 -0.373034936274E-13
  0.704503122506E-11
  0.511235498379E-11
 -0.741096073398E-11
  0.156852308919E-11
 -0.651922960060E-12
 -0.472777372806E-11
  0.104680708546E-10
 -0.953370715706E-11
  0.311217718263E-11
 -0.204281036531E-12
  0.876809735928E-11
  0.648814335591E-11
  0.356337181984E-11
  0.361488616818E-11
 -0.358113538823E-11
  0.227373675443E-12
 -0.114157572284E-10
 -0.792255150373E-11
  0.778443975946E-11
  0.681144030068E-11
  0.758149099056E-11
  0.498090457768E-11
 -0.301980662698E-11
  0.117239551400E-12
 -0.887112605596E-11
 -0.106150643830E-10
  0.677835565455E-11
  0.602706773378E-11
  0.689581725055E-11
  0.461319871192E-11
 -0.219912976718E-11
 -0.110844666779E-11
 -0.118449694497E-10
 -0.131979982498E-10
  0.450839365840E-11
 -0.344435591160E-11
  0.459365878669E-11
 -0.117541532063E-10
  0.532374144768E-11
  0.197353244857E-11
  0.281019651993E-11
 -0.359534624295E-11
  0.784616815963E-11
  0.867572680363E-11
 -0.810373990134E-11
 -0.107291953100E-10
  0.242295072894E-11
  0.289368529138E-11
  0.116173737297E-11
 -0.211031192521E-11
  0.793498600160E-11
 -0.161648472385E-12
  0.508748598804E-11
 -0.114397380457E-10
 -0.201971772640E-11
  0.225597318604E-12
 -0.543209921489E-11
 -0.605027139500E-11
  0.800781663202E-11
  0.209254835681E-11
  0.226130225656E-11
 -0.101607611214E-10
  0.323652216139E-11
 -0.189714910448E-11
 -0.702105040773E-11
 -0.764099894468E-11
  0.122888366150E-10
 -0.369304586911E-11
  0.105870867628E-10
 -0.122888366150E-10
  0.107327480237E-10
 -0.214761541883E-11
  0.411048972637E-11
 -0.420996570938E-11
  0.803179744935E-11
  0.419042578415E-11
  0.851230197441E-11
  0.575006708914E-11
 -0.839328606617E-11
 -0.144240175359E-11