# vtk DataFile Version 3.0
TriPan results file. Generated by TriPan, USU AeroLab (c) 2021.
ASCII
DATASET POLYDATA
POINTS                 126 float
  0.400000000000E+01  0.000000000000E+00  0.000000000000E+00
  0.879426044751E+01  0.000000000000E+00  0.239713022375E+00
  0.135885208950E+02  0.000000000000E+00  0.479426044751E+00
  0.183827813425E+02  0.000000000000E+00  0.719139067126E+00
  0.231770417900E+02  0.000000000000E+00  0.958852089501E+00
  0.279713022375E+02  0.000000000000E+00  0.119856511188E+01
  0.327655626850E+02  0.000000000000E+00  0.143827813425E+01
  0.375598231325E+02  0.000000000000E+00  0.167799115663E+01
  0.423540835801E+02  0.000000000000E+00  0.191770417900E+01
  0.471483440276E+02  0.000000000000E+00  0.215741720138E+01
  0.519426044751E+02  0.000000000000E+00  0.239713022375E+01
  0.567368649226E+02  0.000000000000E+00  0.263684324613E+01
  0.615311253701E+02  0.000000000000E+00  0.287655626850E+01
  0.663253858176E+02  0.000000000000E+00  0.311626929088E+01
  0.711196462651E+02  0.000000000000E+00  0.335598231325E+01
  0.759139067126E+02  0.000000000000E+00  0.359569533563E+01
  0.807081671601E+02  0.000000000000E+00  0.383540835801E+01
  0.855024276076E+02  0.000000000000E+00  0.407512138038E+01
  0.902966880551E+02  0.000000000000E+00  0.431483440276E+01
  0.950909485026E+02  0.000000000000E+00  0.455454742513E+01
  0.998852089501E+02  0.000000000000E+00  0.479426044751E+01
  0.400000000000E+01  0.179999995232E+01  0.000000000000E+00
  0.879426044751E+01  0.179999995232E+01  0.239713022375E+00
  0.135885208950E+02  0.179999995232E+01  0.479426044751E+00
  0.183827813425E+02  0.179999995232E+01  0.719139067126E+00
  0.231770417900E+02  0.179999995232E+01  0.958852089501E+00
  0.279713022375E+02  0.179999995232E+01  0.119856511188E+01
  0.327655626850E+02  0.179999995232E+01  0.143827813425E+01
  0.375598231325E+02  0.179999995232E+01  0.167799115663E+01
  0.423540835801E+02  0.179999995232E+01  0.191770417900E+01
  0.471483440276E+02  0.179999995232E+01  0.215741720138E+01
  0.519426044751E+02  0.179999995232E+01  0.239713022375E+01
  0.567368649226E+02  0.179999995232E+01  0.263684324613E+01
  0.615311253701E+02  0.179999995232E+01  0.287655626850E+01
  0.663253858176E+02  0.179999995232E+01  0.311626929088E+01
  0.711196462651E+02  0.179999995232E+01  0.335598231325E+01
  0.759139067126E+02  0.179999995232E+01  0.359569533563E+01
  0.807081671601E+02  0.179999995232E+01  0.383540835801E+01
  0.855024276076E+02  0.179999995232E+01  0.407512138038E+01
  0.902966880551E+02  0.179999995232E+01  0.431483440276E+01
  0.950909485026E+02  0.179999995232E+01  0.455454742513E+01
  0.998852089501E+02  0.179999995232E+01  0.479426044751E+01
  0.400000000000E+01  0.359999990463E+01  0.000000000000E+00
  0.879426044751E+01  0.359999990463E+01  0.239713022375E+00
  0.135885208950E+02  0.359999990463E+01  0.479426044751E+00
  0.183827813425E+02  0.359999990463E+01  0.719139067126E+00
  0.231770417900E+02  0.359999990463E+01  0.958852089501E+00
  0.279713022375E+02  0.359999990463E+01  0.119856511188E+01
  0.327655626850E+02  0.359999990463E+01  0.143827813425E+01
  0.375598231325E+02  0.359999990463E+01  0.167799115663E+01
  0.423540835801E+02  0.359999990463E+01  0.191770417900E+01
  0.471483440276E+02  0.359999990463E+01  0.215741720138E+01
  0.519426044751E+02  0.359999990463E+01  0.239713022375E+01
  0.567368649226E+02  0.359999990463E+01  0.263684324613E+01
  0.615311253701E+02  0.359999990463E+01  0.287655626850E+01
  0.663253858176E+02  0.359999990463E+01  0.311626929088E+01
  0.711196462651E+02  0.359999990463E+01  0.335598231325E+01
  0.759139067126E+02  0.359999990463E+01  0.359569533563E+01
  0.807081671601E+02  0.359999990463E+01  0.383540835801E+01
  0.855024276076E+02  0.359999990463E+01  0.407512138038E+01
  0.902966880551E+02  0.359999990463E+01  0.431483440276E+01
  0.950909485026E+02  0.359999990463E+01  0.455454742513E+01
  0.998852089501E+02  0.359999990463E+01  0.479426044751E+01
  0.400000000000E+01  0.540000009537E+01  0.000000000000E+00
  0.879426044751E+01  0.540000009537E+01  0.239713022375E+00
  0.135885208950E+02  0.540000009537E+01  0.479426044751E+00
  0.183827813425E+02  0.540000009537E+01  0.719139067126E+00
  0.231770417900E+02  0.540000009537E+01  0.958852089501E+00
  0.279713022375E+02  0.540000009537E+01  0.119856511188E+01
  0.327655626850E+02  0.540000009537E+01  0.143827813425E+01
  0.375598231325E+02  0.540000009537E+01  0.167799115663E+01
  0.423540835801E+02  0.540000009537E+01  0.191770417900E+01
  0.471483440276E+02  0.540000009537E+01  0.215741720138E+01
  0.519426044751E+02  0.540000009537E+01  0.239713022375E+01
  0.567368649226E+02  0.540000009537E+01  0.263684324613E+01
  0.615311253701E+02  0.540000009537E+01  0.287655626850E+01
  0.663253858176E+02  0.540000009537E+01  0.311626929088E+01
  0.711196462651E+02  0.540000009537E+01  0.335598231325E+01
  0.759139067126E+02  0.540000009537E+01  0.359569533563E+01
  0.807081671601E+02  0.540000009537E+01  0.383540835801E+01
  0.855024276076E+02  0.540000009537E+01  0.407512138038E+01
  0.902966880551E+02  0.540000009537E+01  0.431483440276E+01
  0.950909485026E+02  0.540000009537E+01  0.455454742513E+01
  0.998852089501E+02  0.540000009537E+01  0.479426044751E+01
  0.400000000000E+01  0.719999980927E+01  0.000000000000E+00
  0.879426044751E+01  0.719999980927E+01  0.239713022375E+00
  0.135885208950E+02  0.719999980927E+01  0.479426044751E+00
  0.183827813425E+02  0.719999980927E+01  0.719139067126E+00
  0.231770417900E+02  0.719999980927E+01  0.958852089501E+00
  0.279713022375E+02  0.719999980927E+01  0.119856511188E+01
  0.327655626850E+02  0.719999980927E+01  0.143827813425E+01
  0.375598231325E+02  0.719999980927E+01  0.167799115663E+01
  0.423540835801E+02  0.719999980927E+01  0.191770417900E+01
  0.471483440276E+02  0.719999980927E+01  0.215741720138E+01
  0.519426044751E+02  0.719999980927E+01  0.239713022375E+01
  0.567368649226E+02  0.719999980927E+01  0.263684324613E+01
  0.615311253701E+02  0.719999980927E+01  0.287655626850E+01
  0.663253858176E+02  0.719999980927E+01  0.311626929088E+01
  0.711196462651E+02  0.719999980927E+01  0.335598231325E+01
  0.759139067126E+02  0.719999980927E+01  0.359569533563E+01
  0.807081671601E+02  0.719999980927E+01  0.383540835801E+01
  0.855024276076E+02  0.719999980927E+01  0.407512138038E+01
  0.902966880551E+02  0.719999980927E+01  0.431483440276E+01
  0.950909485026E+02  0.719999980927E+01  0.455454742513E+01
  0.998852089501E+02  0.719999980927E+01  0.479426044751E+01
  0.400000000000E+01  0.900000000000E+01  0.000000000000E+00
  0.879426044751E+01  0.900000000000E+01  0.239713022375E+00
  0.135885208950E+02  0.900000000000E+01  0.479426044751E+00
  0.183827813425E+02  0.900000000000E+01  0.719139067126E+00
  0.231770417900E+02  0.900000000000E+01  0.958852089501E+00
  0.279713022375E+02  0.900000000000E+01  0.119856511188E+01
  0.327655626850E+02  0.900000000000E+01  0.143827813425E+01
  0.375598231325E+02  0.900000000000E+01  0.167799115663E+01
  0.423540835801E+02  0.900000000000E+01  0.191770417900E+01
  0.471483440276E+02  0.900000000000E+01  0.215741720138E+01
  0.519426044751E+02  0.900000000000E+01  0.239713022375E+01
  0.567368649226E+02  0.900000000000E+01  0.263684324613E+01
  0.615311253701E+02  0.900000000000E+01  0.287655626850E+01
  0.663253858176E+02  0.900000000000E+01  0.311626929088E+01
  0.711196462651E+02  0.900000000000E+01  0.335598231325E+01
  0.759139067126E+02  0.900000000000E+01  0.359569533563E+01
  0.807081671601E+02  0.900000000000E+01  0.383540835801E+01
  0.855024276076E+02  0.900000000000E+01  0.407512138038E+01
  0.902966880551E+02  0.900000000000E+01  0.431483440276E+01
  0.950909485026E+02  0.900000000000E+01  0.455454742513E+01
  0.998852089501E+02  0.900000000000E+01  0.479426044751E+01
POLYGONS                 200                 800
3                   0                   1                  22
3                   0                  22                  21
3                   1                   2                  23
3                   1                  23                  22
3                   2                   3                  24
3                   2                  24                  23
3                   3                   4                  25
3                   3                  25                  24
3                   4                   5                  26
3                   4                  26                  25
3                   5                   6                  27
3                   5                  27                  26
3                   6                   7                  28
3                   6                  28                  27
3                   7                   8                  29
3                   7                  29                  28
3                   8                   9                  30
3                   8                  30                  29
3                   9                  10                  31
3                   9                  31                  30
3                  10                  11                  32
3                  10                  32                  31
3                  11                  12                  33
3                  11                  33                  32
3                  12                  13                  34
3                  12                  34                  33
3                  13                  14                  35
3                  13                  35                  34
3                  14                  15                  36
3                  14                  36                  35
3                  15                  16                  37
3                  15                  37                  36
3                  16                  17                  38
3                  16                  38                  37
3                  17                  18                  39
3                  17                  39                  38
3                  18                  19                  40
3                  18                  40                  39
3                  19                  20                  41
3                  19                  41                  40
3                  21                  22                  43
3                  21                  43                  42
3                  22                  23                  44
3                  22                  44                  43
3                  23                  24                  45
3                  23                  45                  44
3                  24                  25                  46
3                  24                  46                  45
3                  25                  26                  47
3                  25                  47                  46
3                  26                  27                  48
3                  26                  48                  47
3                  27                  28                  49
3                  27                  49                  48
3                  28                  29                  50
3                  28                  50                  49
3                  29                  30                  51
3                  29                  51                  50
3                  30                  31                  52
3                  30                  52                  51
3                  31                  32                  53
3                  31                  53                  52
3                  32                  33                  54
3                  32                  54                  53
3                  33                  34                  55
3                  33                  55                  54
3                  34                  35                  56
3                  34                  56                  55
3                  35                  36                  57
3                  35                  57                  56
3                  36                  37                  58
3                  36                  58                  57
3                  37                  38                  59
3                  37                  59                  58
3                  38                  39                  60
3                  38                  60                  59
3                  39                  40                  61
3                  39                  61                  60
3                  40                  41                  62
3                  40                  62                  61
3                  42                  43                  64
3                  42                  64                  63
3                  43                  44                  65
3                  43                  65                  64
3                  44                  45                  66
3                  44                  66                  65
3                  45                  46                  67
3                  45                  67                  66
3                  46                  47                  68
3                  46                  68                  67
3                  47                  48                  69
3                  47                  69                  68
3                  48                  49                  70
3                  48                  70                  69
3                  49                  50                  71
3                  49                  71                  70
3                  50                  51                  72
3                  50                  72                  71
3                  51                  52                  73
3                  51                  73                  72
3                  52                  53                  74
3                  52                  74                  73
3                  53                  54                  75
3                  53                  75                  74
3                  54                  55                  76
3                  54                  76                  75
3                  55                  56                  77
3                  55                  77                  76
3                  56                  57                  78
3                  56                  78                  77
3                  57                  58                  79
3                  57                  79                  78
3                  58                  59                  80
3                  58                  80                  79
3                  59                  60                  81
3                  59                  81                  80
3                  60                  61                  82
3                  60                  82                  81
3                  61                  62                  83
3                  61                  83                  82
3                  63                  64                  85
3                  63                  85                  84
3                  64                  65                  86
3                  64                  86                  85
3                  65                  66                  87
3                  65                  87                  86
3                  66                  67                  88
3                  66                  88                  87
3                  67                  68                  89
3                  67                  89                  88
3                  68                  69                  90
3                  68                  90                  89
3                  69                  70                  91
3                  69                  91                  90
3                  70                  71                  92
3                  70                  92                  91
3                  71                  72                  93
3                  71                  93                  92
3                  72                  73                  94
3                  72                  94                  93
3                  73                  74                  95
3                  73                  95                  94
3                  74                  75                  96
3                  74                  96                  95
3                  75                  76                  97
3                  75                  97                  96
3                  76                  77                  98
3                  76                  98                  97
3                  77                  78                  99
3                  77                  99                  98
3                  78                  79                 100
3                  78                 100                  99
3                  79                  80                 101
3                  79                 101                 100
3                  80                  81                 102
3                  80                 102                 101
3                  81                  82                 103
3                  81                 103                 102
3                  82                  83                 104
3                  82                 104                 103
3                  84                  85                 106
3                  84                 106                 105
3                  85                  86                 107
3                  85                 107                 106
3                  86                  87                 108
3                  86                 108                 107
3                  87                  88                 109
3                  87                 109                 108
3                  88                  89                 110
3                  88                 110                 109
3                  89                  90                 111
3                  89                 111                 110
3                  90                  91                 112
3                  90                 112                 111
3                  91                  92                 113
3                  91                 113                 112
3                  92                  93                 114
3                  92                 114                 113
3                  93                  94                 115
3                  93                 115                 114
3                  94                  95                 116
3                  94                 116                 115
3                  95                  96                 117
3                  95                 117                 116
3                  96                  97                 118
3                  96                 118                 117
3                  97                  98                 119
3                  97                 119                 118
3                  98                  99                 120
3                  98                 120                 119
3                  99                 100                 121
3                  99                 121                 120
3                 100                 101                 122
3                 100                 122                 121
3                 101                 102                 123
3                 101                 123                 122
3                 102                 103                 124
3                 102                 124                 123
3                 103                 104                 125
3                 103                 125                 124
POINT_DATA                 126
SCALARS mu float 1
LOOKUP_TABLE default
 -0.337671231209E-04
 -0.337671231209E-04
 -0.337671231209E-04
 -0.337671231209E-04
 -0.337671231209E-04
 -0.337671231209E-04
 -0.337671231209E-04
 -0.337671231209E-04
 -0.337671231209E-04
 -0.337671231209E-04
 -0.337671231209E-04
 -0.337671231209E-04
 -0.337671231209E-04
 -0.337671231209E-04
 -0.337671231209E-04
 -0.337671231209E-04
 -0.337671231209E-04
 -0.337671231209E-04
 -0.337671231209E-04
 -0.337671231209E-04
 -0.337671231209E-04
 -0.397079444854E-04
 -0.397079444854E-04
 -0.397079444854E-04
 -0.397079444854E-04
 -0.397079444854E-04
 -0.397079444854E-04
 -0.397079444854E-04
 -0.397079444854E-04
 -0.397079444854E-04
 -0.397079444854E-04
 -0.397079444854E-04
 -0.397079444854E-04
 -0.397079444854E-04
 -0.397079444854E-04
 -0.397079444854E-04
 -0.397079444854E-04
 -0.397079444854E-04
 -0.397079444854E-04
 -0.397079444854E-04
 -0.397079444854E-04
 -0.397079444854E-04
 -0.389038519953E-04
 -0.389038519953E-04
 -0.389038519953E-04
 -0.389038519953E-04
 -0.389038519953E-04
 -0.389038519953E-04
 -0.389038519953E-04
 -0.389038519953E-04
 -0.389038519953E-04
 -0.389038519953E-04
 -0.389038519953E-04
 -0.389038519953E-04
 -0.389038519953E-04
 -0.389038519953E-04
 -0.389038519953E-04
 -0.389038519953E-04
 -0.389038519953E-04
 -0.389038519953E-04
 -0.389038519953E-04
 -0.389038519953E-04
 -0.389038519953E-04
 -0.365914839770E-04
 -0.365914839770E-04
 -0.365914839770E-04
 -0.365914839770E-04
 -0.365914839770E-04
 -0.365914839770E-04
 -0.365914839770E-04
 -0.365914839770E-04
 -0.365914839770E-04
 -0.365914839770E-04
 -0.365914839770E-04
 -0.365914839770E-04
 -0.365914839770E-04
 -0.365914839770E-04
 -0.365914839770E-04
 -0.365914839770E-04
 -0.365914839770E-04
 -0.365914839770E-04
 -0.365914839770E-04
 -0.365914839770E-04
 -0.365914839770E-04
 -0.294277306582E-04
 -0.294277306582E-04
 -0.294277306582E-04
 -0.294277306582E-04
 -0.294277306582E-04
 -0.294277306582E-04
 -0.294277306582E-04
 -0.294277306582E-04
 -0.294277306582E-04
 -0.294277306582E-04
 -0.294277306582E-04
 -0.294277306582E-04
 -0.294277306582E-04
 -0.294277306582E-04
 -0.294277306582E-04
 -0.294277306582E-04
 -0.294277306582E-04
 -0.294277306582E-04
 -0.294277306582E-04
 -0.294277306582E-04
 -0.294277306582E-04
  0.000000000000E+00
  0.000000000000E+00
  0.000000000000E+00
  0.000000000000E+00
  0.000000000000E+00
  0.000000000000E+00
  0.000000000000E+00
  0.000000000000E+00
  0.000000000000E+00
  0.000000000000E+00
  0.000000000000E+00
  0.000000000000E+00
  0.000000000000E+00
  0.000000000000E+00
  0.000000000000E+00
  0.000000000000E+00
  0.000000000000E+00
  0.000000000000E+00
  0.000000000000E+00
  0.000000000000E+00
  0.000000000000E+00
