# vtk DataFile Version 3.0
TriPan results file. Generated by TriPan, USU AeroLab (c) 2021.
ASCII
DATASET POLYDATA
POINTS                 247 float
  0.000000000000E+00  0.000000000000E+00  0.000000000000E+00
  0.000000000000E+00  0.179999995232E+01  0.000000000000E+00
  0.000000000000E+00  0.359999990463E+01  0.000000000000E+00
  0.000000000000E+00  0.540000009537E+01  0.000000000000E+00
  0.000000000000E+00  0.719999980927E+01  0.000000000000E+00
  0.000000000000E+00  0.900000000000E+01  0.000000000000E+00
  0.744162946939E-01  0.000000000000E+00  0.744162919000E-02
  0.746868997812E-01  0.179999995232E+01  0.746868969873E-02
  0.749575048685E-01  0.359999990463E+01  0.749575020745E-02
  0.752281099558E-01  0.540000009537E+01  0.752281071618E-02
  0.754987150431E-01  0.719999980927E+01  0.754987122491E-02
  0.757693201303E-01  0.000000000000E+00 -0.757693173364E-02
  0.757693201303E-01  0.179999995232E+01 -0.757693173364E-02
  0.757693201303E-01  0.359999990463E+01 -0.757693173364E-02
  0.757693201303E-01  0.540000009537E+01 -0.757693173364E-02
  0.757693201303E-01  0.719999980927E+01 -0.757693173364E-02
  0.757693201303E-01  0.900000000000E+01 -0.757693173364E-02
  0.757693201303E-01  0.900000000000E+01  0.757693173364E-02
  0.757697224617E-01  0.900378799438E+01 -0.568265793845E-02
  0.757705420256E-01  0.900378799438E+01  0.568282138556E-02
  0.757709518075E-01  0.900757694244E+01  0.163249438856E-06
  0.181352928281E+00  0.000000000000E+00  0.181352943182E-01
  0.182012394071E+00  0.179999995232E+01  0.182012394071E-01
  0.182671859860E+00  0.359999990463E+01  0.182671863586E-01
  0.183331325650E+00  0.540000009537E+01  0.183331333101E-01
  0.183990791440E+00  0.719999980927E+01  0.183990802616E-01
  0.184650257230E+00  0.000000000000E+00 -0.184650253505E-01
  0.184650257230E+00  0.179999995232E+01 -0.184650253505E-01
  0.184650257230E+00  0.359999990463E+01 -0.184650253505E-01
  0.184650257230E+00  0.540000009537E+01 -0.184650253505E-01
  0.184650257230E+00  0.719999980927E+01 -0.184650253505E-01
  0.184650257230E+00  0.900000000000E+01 -0.184650253505E-01
  0.184650257230E+00  0.900000000000E+01  0.184650253505E-01
  0.184651583433E+00  0.900923252106E+01 -0.138486372307E-01
  0.184654235840E+00  0.900923252106E+01  0.138491680846E-01
  0.184655562043E+00  0.901846504211E+01  0.530808620169E-06
  0.331838786602E+00  0.000000000000E+00  0.331838801503E-01
  0.333045482635E+00  0.179999995232E+01  0.333045460284E-01
  0.334252148867E+00  0.359999990463E+01  0.334252156317E-01
  0.335458844900E+00  0.540000009537E+01  0.335458852351E-01
  0.336665540934E+00  0.719999980927E+01  0.336665548384E-01
  0.337872207165E+00  0.000000000000E+00 -0.337872207165E-01
  0.337872207165E+00  0.179999995232E+01 -0.337872207165E-01
  0.337872207165E+00  0.359999990463E+01 -0.337872207165E-01
  0.337872207165E+00  0.540000009537E+01 -0.337872207165E-01
  0.337872207165E+00  0.719999980927E+01 -0.337872207165E-01
  0.337872207165E+00  0.900000000000E+01 -0.337872207165E-01
  0.337872207165E+00  0.900000000000E+01  0.337872207165E-01
  0.337875515223E+00  0.901689338684E+01 -0.253400877118E-01
  0.337882071733E+00  0.901689338684E+01  0.253414008766E-01
  0.337885349989E+00  0.903378677368E+01  0.131366152800E-05
  0.537488281727E+00  0.000000000000E+00  0.537488274276E-01
  0.539442777634E+00  0.179999995232E+01  0.539442785084E-01
  0.541397273540E+00  0.359999990463E+01  0.541397295892E-01
  0.543351769447E+00  0.540000009537E+01  0.543351806700E-01
  0.545306265354E+00  0.719999980927E+01  0.545306280255E-01
  0.547260820866E+00  0.000000000000E+00 -0.547260791063E-01
  0.547260820866E+00  0.179999995232E+01 -0.547260791063E-01
  0.547260820866E+00  0.359999990463E+01 -0.547260791063E-01
  0.547260820866E+00  0.540000009537E+01 -0.547260791063E-01
  0.547260820866E+00  0.719999980927E+01 -0.547260791063E-01
  0.547260820866E+00  0.900000000000E+01 -0.547260791063E-01
  0.547260820866E+00  0.900000000000E+01  0.547260791063E-01
  0.547268390656E+00  0.902736282349E+01 -0.410438030958E-01
  0.547283530235E+00  0.902736282349E+01  0.410468317568E-01
  0.547291100025E+00  0.905472564697E+01  0.302831858789E-05
  0.807539045811E+00  0.000000000000E+00  0.807539075613E-01
  0.810475587845E+00  0.179999995232E+01  0.810475572944E-01
  0.813412070274E+00  0.359999990463E+01  0.813412070274E-01
  0.816348552704E+00  0.540000009537E+01  0.816348567605E-01
  0.819285094738E+00  0.719999980927E+01  0.819285064936E-01
  0.822221577168E+00  0.000000000000E+00 -0.822221562266E-01
  0.822221577168E+00  0.179999995232E+01 -0.822221562266E-01
  0.822221577168E+00  0.359999990463E+01 -0.822221562266E-01
  0.822221577168E+00  0.540000009537E+01 -0.822221562266E-01
  0.822221577168E+00  0.719999980927E+01 -0.822221562266E-01
  0.822221577168E+00  0.900000000000E+01 -0.822221562266E-01
  0.822221577168E+00  0.900000000000E+01  0.822221562266E-01
  0.822238802910E+00  0.904111099243E+01 -0.616648979485E-01
  0.822273254395E+00  0.904111099243E+01  0.616717860103E-01
  0.822290480137E+00  0.908222198486E+01  0.689090529704E-05
  0.114417910576E+01  0.000000000000E+00  0.114417918026E+00
  0.114833974838E+01  0.179999995232E+01  0.114833980799E+00
  0.115250039101E+01  0.359999990463E+01  0.115250043571E+00
  0.115666115284E+01  0.540000009537E+01  0.115666113794E+00
  0.116082179546E+01  0.719999980927E+01  0.116082176566E+00
  0.116498243809E+01  0.000000000000E+00 -0.116498239338E+00
  0.116498243809E+01  0.179999995232E+01 -0.116498239338E+00
  0.116498243809E+01  0.359999990463E+01 -0.116498239338E+00
  0.116498243809E+01  0.540000009537E+01 -0.116498239338E+00
  0.116498243809E+01  0.719999980927E+01 -0.116498239338E+00
  0.116498243809E+01  0.900000000000E+01 -0.116498239338E+00
  0.116498243809E+01  0.900000000000E+01  0.116498239338E+00
  0.116501641273E+01  0.905824947357E+01 -0.873702764511E-01
  0.116508460045E+01  0.905824947357E+01  0.873839035630E-01
  0.116511869431E+01  0.911649799347E+01  0.136267226480E-04
  0.153763222694E+01  0.000000000000E+00  0.153763219714E+00
  0.154322361946E+01  0.179999995232E+01  0.154322355986E+00
  0.154881501198E+01  0.359999990463E+01  0.154881492257E+00
  0.155440640450E+01  0.540000009537E+01  0.155440628529E+00
  0.155999779701E+01  0.719999980927E+01  0.155999779701E+00
  0.156558918953E+01  0.000000000000E+00 -0.156558915973E+00
  0.156558918953E+01  0.179999995232E+01 -0.156558915973E+00
  0.156558918953E+01  0.359999990463E+01 -0.156558915973E+00
  0.156558918953E+01  0.540000009537E+01 -0.156558915973E+00
  0.156558918953E+01  0.719999980927E+01 -0.156558915973E+00
  0.156558918953E+01  0.900000000000E+01 -0.156558915973E+00
  0.156558918953E+01  0.900000000000E+01  0.156558915973E+00
  0.156565010548E+01  0.907827949524E+01 -0.117413096130E+00
  0.156577193737E+01  0.907827949524E+01  0.117437466979E+00
  0.156583285332E+01  0.915655899048E+01  0.243710874201E-04
  0.196428573132E+01  0.000000000000E+00  0.196428567171E+00
  0.197142851353E+01  0.179999995232E+01  0.197142854333E+00
  0.197857141495E+01  0.359999990463E+01  0.197857141495E+00
  0.198571431637E+01  0.540000009537E+01  0.198571428657E+00
  0.199285709858E+01  0.719999980927E+01  0.199285715818E+00
  0.200000000000E+01  0.000000000000E+00 -0.200000002980E+00
  0.200000000000E+01  0.179999995232E+01 -0.200000002980E+00
  0.200000000000E+01  0.359999990463E+01 -0.200000002980E+00
  0.200000000000E+01  0.540000009537E+01 -0.200000002980E+00
  0.200000000000E+01  0.719999980927E+01 -0.200000002980E+00
  0.200000000000E+01  0.900000000000E+01 -0.200000002980E+00
  0.200000000000E+01  0.900000000000E+01  0.200000002980E+00
  0.200009918213E+01  0.909999942780E+01 -0.149990081787E+00
  0.200029754639E+01  0.909999942780E+01  0.150029763579E+00
  0.200039672852E+01  0.919999885559E+01  0.396822251787E-04
  0.240541839600E+01  0.000000000000E+00  0.159458145499E+00
  0.241121697426E+01  0.179999995232E+01  0.158878311515E+00
  0.241701531410E+01  0.359999990463E+01  0.158298462629E+00
  0.242281389236E+01  0.540000009537E+01  0.157718613744E+00
  0.242861247063E+01  0.719999980927E+01  0.157138764858E+00
  0.243441081047E+01  0.000000000000E+00 -0.156558915973E+00
  0.243441081047E+01  0.179999995232E+01 -0.156558915973E+00
  0.243441081047E+01  0.359999990463E+01 -0.156558915973E+00
  0.243441081047E+01  0.540000009537E+01 -0.156558915973E+00
  0.243441081047E+01  0.719999980927E+01 -0.156558915973E+00
  0.243441081047E+01  0.900000000000E+01 -0.156558915973E+00
  0.243441081047E+01  0.900000000000E+01  0.156558915973E+00
  0.243447422981E+01  0.907827949524E+01 -0.117425508797E+00
  0.243460059166E+01  0.907827949524E+01  0.117400206625E+00
  0.243466401100E+01  0.915655803680E+01 -0.253061607509E-04
  0.281344389915E+01  0.000000000000E+00  0.118655614555E+00
  0.281775856018E+01  0.179999995232E+01  0.118224143982E+00
  0.282207345963E+01  0.359999990463E+01  0.117792665958E+00
  0.282638812065E+01  0.540000009537E+01  0.117361187935E+00
  0.283070278168E+01  0.719999980927E+01  0.116929717362E+00
  0.283501768112E+01  0.000000000000E+00 -0.116498239338E+00
  0.283501768112E+01  0.179999995232E+01 -0.116498239338E+00
  0.283501768112E+01  0.359999990463E+01 -0.116498239338E+00
  0.283501768112E+01  0.540000009537E+01 -0.116498239338E+00
  0.283501768112E+01  0.719999980927E+01 -0.116498239338E+00
  0.283501768112E+01  0.900000000000E+01 -0.116498239338E+00
  0.283501768112E+01  0.900000000000E+01  0.116498239338E+00
  0.283505296707E+01  0.905824947357E+01 -0.873772129416E-01
  0.283512353897E+01  0.905824851990E+01  0.873630791903E-01
  0.283515906334E+01  0.911649799347E+01 -0.141368718687E-04
  0.316255211830E+01  0.000000000000E+00  0.837447941303E-01
  0.316559743881E+01  0.179999995232E+01  0.834402665496E-01
  0.316864252090E+01  0.359999990463E+01  0.831357389688E-01
  0.317168784142E+01  0.540000009537E+01  0.828312113881E-01
  0.317473316193E+01  0.719999980927E+01  0.825266838074E-01
[...]
CELL_DATA                 440
SCALARS sigma float 1
LOOKUP_TABLE default
  0.139955094541E-06
  0.139955094541E-06
 -0.161761661926E-06
 -0.161761661122E-06
  0.842561378861E-07
  0.842561384551E-07
 -0.422768081793E-07
 -0.422768077490E-07
 -0.536638244952E-08
 -0.536638217197E-08
 -0.860629630062E-08
 -0.860629630062E-08
  0.257777224150E-07
  0.257777223456E-07
 -0.135838932186E-07
 -0.135838932186E-07
  0.198019815295E+00
  0.198019815295E+00
  0.198019805592E+00
  0.198019805592E+00
  0.198019793540E+00
  0.198019793540E+00
  0.198019807240E+00
  0.198019807240E+00
  0.198019788167E+00
  0.198019788167E+00
  0.198019804340E+00
  0.198019804340E+00
  0.198019801150E+00
  0.198019801150E+00
  0.198019798402E+00
  0.198019798402E+00
 -0.370377889469E-08
 -0.371724720449E-08
  0.257742828469E-08
  0.163832564598E-07
 -0.146522217692E-07
 -0.138777878078E-16
  0.142957011923E-07
 -0.107613651185E-07
 -0.816495356049E-08
  0.136582314764E-07
  0.218351857567E-07
  0.131462207370E-07
 -0.298897250561E-07
 -0.262464119466E-07
  0.206711443240E-07
 -0.691775682571E-08
 -0.182256746972E+00
 -0.185378272303E+00
 -0.198019755906E+00
 -0.198019823324E+00
 -0.198019797837E+00
 -0.198019772878E+00
 -0.198019809724E+00
 -0.198019858988E+00
 -0.198019815543E+00
 -0.198019727119E+00
 -0.198019871478E+00
 -0.198019848481E+00
 -0.198019767756E+00
 -0.198019891962E+00
 -0.198019719992E+00
 -0.198019710292E+00
  0.139955094555E-06
  0.139955094555E-06
 -0.161761661899E-06
 -0.161761661135E-06
  0.842561378722E-07
  0.842561384412E-07
 -0.422768081931E-07
 -0.422768077352E-07
 -0.536638243565E-08
 -0.536638217197E-08
 -0.860629628674E-08
 -0.860629628674E-08
  0.257777224150E-07
  0.257777223456E-07
 -0.135838932186E-07
 -0.135838932325E-07
  0.198019815295E+00
  0.198019815295E+00
  0.198019805592E+00
  0.198019805592E+00
  0.198019793540E+00
  0.198019793540E+00
  0.198019807240E+00
  0.198019807240E+00
  0.198019788167E+00
  0.198019788167E+00
  0.198019804340E+00
  0.198019804340E+00
  0.198019801150E+00
  0.198019801150E+00
  0.198019798402E+00
  0.198019798402E+00
 -0.369053994309E-08
 -0.370377889469E-08
  0.599311532345E-08
  0.257742828469E-08
  0.243245923404E-08
 -0.146522217831E-07
  0.712276258807E-08
  0.142957011645E-07
 -0.813584166703E-08
 -0.816495356049E-08
  0.130518874042E-07
  0.218351857012E-07
 -0.335042342342E-07
 -0.298897250145E-07
  0.205988209823E-07
  0.206711443240E-07
 -0.185378221803E+00
 -0.188515369368E+00
 -0.198019823324E+00
 -0.198019759136E+00
 -0.198019772878E+00
 -0.198019860400E+00
 -0.198019858988E+00
 -0.198019742158E+00
 -0.198019727119E+00
 -0.198019856628E+00
 -0.198019848481E+00
 -0.198019825317E+00
 -0.198019891962E+00
 -0.198019806901E+00
 -0.198019710292E+00
 -0.198019700521E+00
  0.139955094541E-06
  0.139955094541E-06
 -0.161761661913E-06
 -0.161761661122E-06
  0.842561378722E-07
  0.842561384690E-07
 -0.422768081793E-07
 -0.422768077490E-07
 -0.536638246340E-08
 -0.536638217197E-08
 -0.860629628674E-08
 -0.860629627286E-08
  0.257777224011E-07
  0.257777223317E-07
 -0.135838932325E-07
 -0.135838932186E-07
  0.198019815295E+00
  0.198019815295E+00
  0.198019805592E+00
  0.198019805592E+00
  0.198019793540E+00
  0.198019793540E+00
  0.198019807240E+00
  0.198019807240E+00
  0.198019788167E+00
  0.198019788167E+00
  0.198019804340E+00
  0.198019804340E+00
  0.198019801150E+00
  0.198019801150E+00
  0.198019798402E+00
  0.198019798402E+00
 -0.367726457617E-08
 -0.369053992921E-08
  0.938322165800E-08
  0.599311537897E-08
 -0.416333634234E-16
  0.243245915077E-08
  0.141933307884E-07
  0.712276260195E-08
 -0.810657643791E-08
 -0.813584166703E-08
 -0.867024634033E-08
  0.130518872654E-07
 -0.259656721818E-07
 -0.335042341371E-07
  0.205247226576E-07
  0.205988209823E-07
 -0.188515316184E+00
 -0.191667954730E+00
 -0.198019759136E+00
 -0.198019809146E+00
 -0.198019860400E+00
 -0.198019814543E+00
 -0.198019742158E+00
 -0.198019791540E+00
 -0.198019856628E+00
 -0.198019784839E+00
 -0.198019825317E+00
 -0.198019778559E+00
 -0.198019806901E+00
 -0.198019936294E+00
 -0.198019700521E+00
 -0.198019684758E+00
  0.139955094541E-06
  0.139955094541E-06
 -0.161761661926E-06
 -0.161761661122E-06
  0.842561378583E-07
  0.842561384551E-07
 -0.422768081654E-07
 -0.422768077490E-07
 -0.536638244952E-08
 -0.536638217197E-08
 -0.860629627286E-08
 -0.860629627286E-08
  0.257777224150E-07
  0.257777223456E-07
 -0.135838932186E-07
 -0.135838932186E-07
  0.198019815295E+00
  0.198019815295E+00
  0.198019805592E+00
  0.198019805592E+00
  0.198019793540E+00
  0.198019793540E+00
  0.198019807240E+00
  0.198019807240E+00
  0.198019788167E+00
  0.198019788167E+00
  0.198019804340E+00
  0.198019804340E+00
  0.198019801150E+00
  0.198019801150E+00
  0.198019798402E+00
  0.198019798402E+00
 -0.366408439700E-08
 -0.367726456230E-08
  0.127490260987E-07
  0.938322171351E-08
 -0.241631906150E-08
 -0.000000000000E+00
  0.353585230539E-08
  0.141933308023E-07
 -0.161546775401E-07
 -0.810657634076E-08
  0.579772341247E-12
 -0.867024634033E-08
  0.739146399642E-08
 -0.259656721818E-07
  0.136325824240E-07
  0.205247224216E-07
 -0.191667898779E+00
 -0.194836064261E+00
 -0.198019809146E+00
 -0.198019841542E+00
 -0.198019814543E+00
 -0.198019789369E+00
 -0.198019791540E+00
 -0.198019841282E+00
 -0.198019784839E+00
 -0.198019695323E+00
 -0.198019778559E+00
 -0.198019917175E+00
 -0.198019936294E+00
 -0.198019834237E+00
 -0.198019684758E+00
 -0.198019674808E+00
  0.139955094541E-06
  0.139955094541E-06
 -0.161761661899E-06
 -0.161761661135E-06
  0.842561378722E-07
  0.842561384551E-07
 -0.422768081793E-07
 -0.422768077490E-07
 -0.536638246340E-08
 -0.536638217197E-08
 -0.860629627286E-08
 -0.860629627286E-08
  0.257777223872E-07
  0.257777223317E-07
 -0.135838932325E-07
 -0.135838932325E-07
  0.198019815295E+00
  0.198019815295E+00
  0.198019805592E+00
  0.198019805592E+00
  0.198019793540E+00
  0.198019793540E+00
  0.198019807240E+00
  0.198019807240E+00
  0.198019788167E+00
  0.198019788167E+00
  0.198019804340E+00
  0.198019804340E+00
  0.198019801150E+00
  0.198019801150E+00
  0.198019798402E+00
  0.198019798402E+00
 -0.365086769150E-08
 -0.366408438313E-08
 -0.846687442380E-09
  0.127490261265E-07
  0.240704334242E-08
 -0.241631901987E-08
 -0.140924189956E-07
  0.353585224988E-08
  0.536566209519E-08
 -0.161546773597E-07
 -0.861033869204E-08
  0.579758463459E-12
  0.368500432946E-08
  0.739146396866E-08
  0.135838932325E-07
  0.136325824102E-07
 -0.194836005454E+00
 -0.198019815295E+00
 -0.198019841542E+00
 -0.198019776713E+00
 -0.198019789369E+00
 -0.198019810416E+00
 -0.198019841282E+00
 -0.198019807240E+00
 -0.198019695323E+00
 -0.198019843420E+00
 -0.198019917175E+00
 -0.198019719392E+00
 -0.198019834237E+00
 -0.198019960539E+00
 -0.198019674808E+00
 -0.198019664796E+00
  0.125301842221E-06
 -0.516725428720E-05
 -0.144829110704E-06
 -0.419690310019E-06
  0.754367005251E-07
 -0.240780487511E-05
 -0.378518273531E-07
 -0.420052668394E-05
 -0.480476047837E-08
 -0.587601300950E-05
 -0.770571820241E-08
 -0.651435023571E-05
  0.230806414259E-07
  0.336414566639E-04
 -0.121618369125E-07
  0.177275768610E+00
  0.177269786669E+00
  0.177278987217E+00
  0.177274815858E+00
  0.177281908971E+00
  0.177279654418E+00
  0.177283958075E+00
  0.177282425615E+00
  0.177285735870E+00
  0.177285140309E+00
  0.177286710545E+00
  0.177286260687E+00
  0.177287933196E+00
  0.177288133593E+00
  0.177284028856E+00
 -0.326859264654E-08
  0.471313498668E-05
 -0.758051357796E-09
 -0.708066458063E-06
  0.215505406576E-08
  0.310342730084E-06
 -0.126171216808E-07
  0.386322431170E-06
  0.480395088986E-08
  0.622992761462E-06
 -0.770896724234E-08
 -0.493344283398E-06
  0.329923673104E-08
 -0.621545002424E-06
  0.121618375232E-07
 -0.177331588574E+00
 -0.177408880529E+00
 -0.177289908817E+00
 -0.177290470409E+00
 -0.177289544636E+00
 -0.177289218629E+00
 -0.177289836104E+00
 -0.177290003677E+00
 -0.177289672462E+00
 -0.177289755732E+00
 -0.177289426781E+00
 -0.177289270966E+00
 -0.177290067859E+00
 -0.177290276435E+00
 -0.177285747545E+00
 -0.274938877969E-01
 -0.274958340733E-01
 -0.275054010217E-01
 -0.275021398355E-01
 -0.275009473062E-01
 -0.275086279946E-01
 -0.275023327900E-01
 -0.275143626022E-01
 -0.275028545741E-01
 -0.275165733531E-01
 -0.275039034045E-01
 -0.275206984855E-01
 -0.275025272778E-01
 -0.274220137379E-01
 -0.274853626469E-01
  0.137471570123E+00
  0.137456436640E+00
  0.137480983308E+00
  0.137471931973E+00
  0.137489749370E+00
  0.137482010968E+00
  0.137495894672E+00
  0.137491436768E+00
  0.137501032739E+00
  0.137499137225E+00
  0.137502734387E+00
  0.137501311658E+00
  0.137510280928E+00
  0.137508059558E+00
  0.137509786195E+00
  0.274940149095E-01
  0.274936126733E-01
  0.275053544524E-01
  0.274986835740E-01
  0.275004616899E-01
  0.275013819139E-01
  0.275010527726E-01
  0.275003485715E-01
  0.275001908244E-01
  0.274977719297E-01
  0.275000130500E-01
  0.274975355510E-01
  0.274967269004E-01
  0.274919814786E-01
  0.274947989696E-01
 -0.137600368317E+00
 -0.137619686672E+00
 -0.137519469798E+00
 -0.137518291804E+00
 -0.137516012562E+00
 -0.137517209661E+00
 -0.137515648719E+00
 -0.137516390039E+00
 -0.137513499835E+00
 -0.137513946013E+00
 -0.137511132305E+00
 -0.137510648089E+00
 -0.137516281015E+00
 -0.137514438174E+00
 -0.137513887210E+00
SCALARS C_p float 1
LOOKUP_TABLE default
  0.197619698383E-13
  0.197619698383E-13
  0.264233079861E-13
  0.266453525910E-13
  0.754951656745E-14
  0.754951656745E-14
  0.222044604925E-14
  0.244249065418E-14
  0.444089209850E-15
  0.444089209850E-15
  0.444089209850E-15
  0.444089209850E-15
  0.111022302463E-14
  0.111022302463E-14
  0.666133814775E-15
  0.666133814775E-15
  0.392118472495E-01
  0.392118472495E-01
  0.392118434068E-01
  0.392118434068E-01
  0.392118386338E-01
  0.392118386338E-01
  0.392118440592E-01
  0.392118440592E-01
  0.392118365056E-01
  0.392118365056E-01
  0.392118429107E-01
  0.392118429107E-01
  0.392118416476E-01
  0.392118416476E-01
  0.392118405590E-01
  0.392118405590E-01
  0.222044604925E-15
  0.222044604925E-15
  0.444089209850E-15
  0.666133814775E-15
  0.666133814775E-15
  0.444089209850E-15
  0.666133814775E-15
  0.222044604925E-15
  0.444089209850E-15
  0.444089209850E-15
  0.111022302463E-14
  0.666133814775E-15
  0.133226762955E-14
  0.666133814775E-15
  0.666133814775E-15
  0.444089209850E-15
  0.332175218167E-01
  0.343651038420E-01
  0.392118237291E-01
  0.392118504293E-01
  0.392118403355E-01
  0.392118304507E-01
  0.392118450433E-01
  0.392118645538E-01
  0.392118473478E-01
  0.392118123282E-01
  0.392118695001E-01
  0.392118603926E-01
  0.392118284221E-01
  0.392118776126E-01
  0.392118095057E-01
  0.392118056641E-01
  0.197619698383E-13
  0.197619698383E-13
  0.264233079861E-13
  0.266453525910E-13
  0.754951656745E-14
  0.754951656745E-14
  0.222044604925E-14
  0.244249065418E-14
  0.444089209850E-15
  0.444089209850E-15
  0.444089209850E-15
  0.444089209850E-15
  0.111022302463E-14
  0.111022302463E-14
  0.666133814775E-15
  0.666133814775E-15
  0.392118472495E-01
  0.392118472495E-01
  0.392118434068E-01
  0.392118434068E-01
  0.392118386338E-01
  0.392118386338E-01
  0.392118440592E-01
  0.392118440592E-01
  0.392118365056E-01
  0.392118365056E-01
  0.392118429107E-01
  0.392118429107E-01
  0.392118416476E-01
  0.392118416476E-01
  0.392118405590E-01
  0.392118405590E-01
  0.222044604925E-15
  0.222044604925E-15
  0.444089209850E-15
  0.444089209850E-15
  0.444089209850E-15
  0.666133814775E-15
  0.222044604925E-15
  0.222044604925E-15
  0.444089209850E-15
  0.444089209850E-15
  0.444089209850E-15
  0.111022302463E-14
  0.155431223448E-14
  0.133226762955E-14
  0.666133814775E-15
  0.666133814775E-15
  0.343650851190E-01
  0.355380444879E-01
  0.392118504293E-01
  0.392118250083E-01
  0.392118304507E-01
  0.392118651130E-01
  0.392118645538E-01
  0.392118182845E-01
  0.392118123282E-01
  0.392118636191E-01
  0.392118603926E-01
  0.392118512184E-01
  0.392118776126E-01
  0.392118439253E-01
  0.392118056641E-01
  0.392118017944E-01
  0.197619698383E-13
  0.197619698383E-13
  0.264233079861E-13
  0.266453525910E-13
  0.754951656745E-14
  0.754951656745E-14
  0.222044604925E-14
  0.244249065418E-14
  0.444089209850E-15
  0.444089209850E-15
  0.444089209850E-15
  0.444089209850E-15
  0.111022302463E-14
  0.111022302463E-14
  0.666133814775E-15
  0.666133814775E-15
  0.392118472495E-01
  0.392118472495E-01
  0.392118434068E-01
  0.392118434068E-01
  0.392118386338E-01
  0.392118386338E-01
  0.392118440592E-01
  0.392118440592E-01
  0.392118365056E-01
  0.392118365056E-01
  0.392118429107E-01
  0.392118429107E-01
  0.392118416476E-01
  0.392118416476E-01
  0.392118405590E-01
  0.392118405590E-01
  0.222044604925E-15
  0.222044604925E-15
  0.444089209850E-15
  0.444089209850E-15
  0.444089209850E-15
  0.444089209850E-15
  0.666133814775E-15
  0.222044604925E-15
  0.444089209850E-15
  0.444089209850E-15
  0.444089209850E-15
  0.444089209850E-15
  0.111022302463E-14
  0.155431223448E-14
  0.111022302463E-14
  0.666133814775E-15
  0.355380244361E-01
  0.367366048705E-01
  0.392118250083E-01
  0.392118448144E-01
  0.392118651130E-01
  0.392118469517E-01
  0.392118182845E-01
  0.392118378415E-01
  0.392118636191E-01
  0.392118351879E-01
  0.392118512184E-01
  0.392118327007E-01
  0.392118439253E-01
  0.392118951698E-01
  0.392118017944E-01
  0.392117955515E-01
  0.197619698383E-13
  0.197619698383E-13
  0.264233079861E-13
  0.266453525910E-13
  0.754951656745E-14
  0.754951656745E-14
  0.222044604925E-14
  0.244249065418E-14
  0.444089209850E-15
  0.444089209850E-15
  0.444089209850E-15
  0.444089209850E-15
  0.111022302463E-14
  0.111022302463E-14
  0.666133814775E-15
  0.666133814775E-15
  0.392118472495E-01
  0.392118472495E-01
  0.392118434068E-01
  0.392118434068E-01
  0.392118386338E-01
  0.392118386338E-01
  0.392118440592E-01
  0.392118440592E-01
  0.392118365056E-01
  0.392118365056E-01
  0.392118429107E-01
  0.392118429107E-01
  0.392118416476E-01
  0.392118416476E-01
  0.392118405590E-01
  0.392118405590E-01
  0.222044604925E-15
  0.222044604925E-15
  0.666133814775E-15
  0.444089209850E-15
  0.444089209850E-15
  0.444089209850E-15
  0.222044604925E-15
  0.666133814775E-15
  0.444089209850E-15
  0.444089209850E-15
  0.444089209850E-15
  0.444089209850E-15
  0.444089209850E-15
  0.111022302463E-14
  0.444089209850E-15
  0.111022302463E-14
  0.367365834224E-01
  0.379610919365E-01
  0.392118448144E-01
  0.392118576443E-01
  0.392118469517E-01
  0.392118369819E-01
  0.392118378415E-01
  0.392118575413E-01
  0.392118351879E-01
  0.392117997359E-01
  0.392118327007E-01
  0.392118875981E-01
  0.392118951698E-01
  0.392118547513E-01
  0.392117955515E-01
  0.392117916109E-01
  0.197619698383E-13
  0.197619698383E-13
  0.264233079861E-13
  0.266453525910E-13
  0.754951656745E-14
  0.754951656745E-14
  0.222044604925E-14
  0.244249065418E-14
  0.444089209850E-15
  0.444089209850E-15
  0.444089209850E-15
  0.444089209850E-15
  0.111022302463E-14
  0.111022302463E-14
  0.666133814775E-15
  0.666133814775E-15
  0.392118472495E-01
  0.392118472495E-01
  0.392118434068E-01
  0.392118434068E-01
  0.392118386338E-01
  0.392118386338E-01
  0.392118440592E-01
  0.392118440592E-01
  0.392118365056E-01
  0.392118365056E-01
  0.392118429107E-01
  0.392118429107E-01
  0.392118416476E-01
  0.392118416476E-01
  0.392118405590E-01
  0.392118405590E-01
  0.444089209850E-15
  0.222044604925E-15
  0.444089209850E-15
  0.666133814775E-15
  0.222044604925E-15
  0.444089209850E-15
  0.444089209850E-15
  0.222044604925E-15
  0.222044604925E-15
  0.444089209850E-15
  0.222044604925E-15
  0.444089209850E-15
  0.666133814775E-15
  0.444089209850E-15
  0.666133814775E-15
  0.444089209850E-15
  0.379610690215E-01
  0.392118472495E-01
  0.392118576443E-01
  0.392118319694E-01
  0.392118369819E-01
  0.392118453172E-01
  0.392118575413E-01
  0.392118440595E-01
  0.392117997359E-01
  0.392118583880E-01
  0.392118875981E-01
  0.392118092683E-01
  0.392118547513E-01
  0.392119047717E-01
  0.392117916109E-01
  0.392117876461E-01
  0.159872115546E-13
  0.267010857868E-10
  0.213162820728E-13
  0.176303416310E-12
  0.621724893790E-14
  0.579802872380E-11
  0.177635683940E-14
  0.176447745304E-10
  0.444089209850E-15
  0.345279360658E-10
  0.222044604925E-15
  0.424369428487E-10
  0.666133814775E-15
  0.113174802863E-08
  0.666133814775E-15
  0.314266981364E-01
  0.314245772658E-01
  0.314278393087E-01
  0.314263603374E-01
  0.314288752485E-01
  0.314280758706E-01
  0.314296017906E-01
  0.314290584319E-01
  0.314302321431E-01
  0.314300209743E-01
  0.314305777357E-01
  0.314304182285E-01
  0.314310112569E-01
  0.314310823128E-01
  0.314296268873E-01
  0.444089209850E-15
  0.222140084105E-10
  0.222044604925E-15
  0.501820807131E-12
  0.222044604925E-15
  0.968114477473E-13
  0.444089209850E-15
  0.149436019115E-12
  0.222044604925E-15
  0.388356014014E-12
  0.444089209850E-15
  0.243582931603E-12
  0.444089209850E-15
  0.386579657174E-12
  0.666133814775E-15
  0.314464923061E-01
  0.314739108904E-01
  0.314317117684E-01
  0.314319108980E-01
  0.314315826371E-01
  0.314314670420E-01
  0.314316859859E-01
  0.314317454039E-01
  0.314316279617E-01
  0.314316574876E-01
  0.314315408483E-01
  0.314314855997E-01
  0.314317681615E-01
  0.314318421185E-01
  0.314302362826E-01
  0.755913866192E-03
  0.756020891385E-03
  0.756547085363E-03
  0.756367695531E-03
  0.756302102736E-03
  0.756724614147E-03
  0.756378308894E-03
  0.757040149404E-03
  0.756407009726E-03
  0.757161809096E-03
  0.756464702485E-03
  0.757388845132E-03
  0.756389006665E-03
  0.751966837444E-03
  0.755445159831E-03
  0.188984325920E-01
  0.188942719739E-01
  0.189010207714E-01
  0.188985320804E-01
  0.189034311818E-01
  0.189013033398E-01
  0.189051210516E-01
  0.189038951847E-01
  0.189065340043E-01
  0.189060127375E-01
  0.189070019639E-01
  0.189066107077E-01
  0.189090773608E-01
  0.189084664433E-01
  0.189089412994E-01
  0.755920855843E-03
  0.755898737832E-03
  0.756544523552E-03
  0.756177598303E-03
  0.756275393158E-03
  0.756326007173E-03
  0.756307903602E-03
  0.756269171552E-03
  0.756260495380E-03
  0.756127461098E-03
  0.756250717748E-03
  0.756114461379E-03
  0.756069990233E-03
  0.755809045618E-03
  0.755963970379E-03
  0.189338613610E-01
  0.189391781596E-01
  0.189116045735E-01
  0.189112805807E-01
  0.189106537109E-01
  0.189109829530E-01
  0.189105536426E-01
  0.189107575294E-01
  0.189099626368E-01
  0.189100853480E-01
  0.189093115079E-01
  0.189091783378E-01
  0.189107275441E-01
  0.189102207062E-01
  0.189100691757E-01
VECTORS v float
  0.100000001400E+03  0.000000000000E+00  0.999998600449E+01
  0.100000001400E+03  0.000000000000E+00  0.999998600449E+01
  0.999999983824E+02  0.000000000000E+00  0.100000161762E+02
  0.999999983824E+02  0.000000000000E+00  0.100000161762E+02
  0.100000000843E+03  0.000000000000E+00  0.999999157439E+01
  0.100000000843E+03  0.000000000000E+00  0.999999157439E+01
  0.999999995772E+02  0.000000000000E+00  0.100000042277E+02
  0.999999995772E+02  0.000000000000E+00  0.100000042277E+02
  0.999999999463E+02  0.000000000000E+00  0.100000005366E+02
  0.999999999463E+02  0.000000000000E+00  0.100000005366E+02
  0.999999999139E+02  0.000000000000E+00  0.100000008606E+02
  0.999999999139E+02  0.000000000000E+00  0.100000008606E+02
  0.100000000258E+03  0.000000000000E+00  0.999999742223E+01
  0.100000000258E+03  0.000000000000E+00  0.999999742223E+01
  0.999999998642E+02  0.000000000000E+00  0.100000013584E+02
  0.999999998642E+02  0.000000000000E+00  0.100000013584E+02
  0.980198015781E+02  0.000000000000E+00 -0.980198150261E+01
  0.980198015781E+02  0.000000000000E+00 -0.980198150261E+01
  0.980198018711E+02  0.000000000000E+00 -0.980198055193E+01
  0.980198018711E+02  0.000000000000E+00 -0.980198055193E+01
  0.980198022351E+02  0.000000000000E+00 -0.980197937109E+01
  0.980198022351E+02  0.000000000000E+00 -0.980197937109E+01