# vtk DataFile Version 3.0
MFTran results file. Generated by MFTran, USU AeroLab (c) 2021.
ASCII
DATASET POLYDATA
POINTS                 541 float
     -0.749989529748      -4.999900854324       0.000007778743
     -0.749900171569      -4.877641201020      -0.000002923872
     -0.749900171569      -4.522542476650      -0.000002923872
     -0.749900171569      -3.969463109970      -0.000002923872
     -0.749900171569      -3.272542476650      -0.000002923872
     -0.749900171569      -2.500000000000      -0.000002923872
     -0.749900171569      -1.727457523350      -0.000002923872
     -0.749900171569      -1.030536890030      -0.000002923872
     -0.749900171569      -0.477457523346      -0.000002923872
     -0.749900171569      -0.122358709574      -0.000002923872
     -0.749900171569       0.000000000000      -0.000002923872
     -0.749900171569       0.122358709574      -0.000002923872
     -0.749900171569       0.477457523346      -0.000002923872
     -0.749900171569       1.030536890030      -0.000002923872
     -0.749900171569       1.727457523350      -0.000002923872
     -0.749900171569       2.500000000000      -0.000002923872
     -0.749900171569       3.272542476650      -0.000002923872
     -0.749900171569       3.969463109970      -0.000002923872
     -0.749900171569       4.522542476650      -0.000002923872
     -0.749900171569       4.877641201020      -0.000002923872
     -0.749989529748       4.999900854324      -0.000007778743
     -0.700478916485      -5.002805522273       0.000000000000
     -0.700478981012      -5.002770750120      -0.000440467021
     -0.700478981012      -5.002770750120       0.000440467021
     -0.700479022795      -5.002668304624      -0.000867001125
     -0.700478980886      -5.002667832616       0.000868501555
     -0.700478981028      -5.002500497795      -0.001272365510
     -0.700479022958      -5.002499772928       0.001273756487
     -0.700478916192      -5.002270015011      -0.001649149297
     -0.700478916192      -5.002270015011       0.001649149297
     -0.700478980881      -5.001982985054      -0.001985021994
     -0.700478980881      -5.001982985054       0.001985021994
     -0.700479022744      -5.001649348726      -0.002269819692
     -0.700478980850      -5.001648086628       0.002270754521
     -0.700478980988      -5.001275014543      -0.002499157175
     -0.700479022964      -5.001273607046       0.002499857718
     -0.700478980875      -5.000868524830      -0.002667870357
     -0.700478916304      -5.000867026236       0.002668348064
     -0.700478980926      -5.000440362119      -0.002770886130
     -0.700478980924      -5.000437257661       0.002771377759
     -0.700478983014      -4.999996863451      -0.002805711542
     -0.700478920424      -4.999996079313       0.002805742723
     -0.700478916334      -4.877641201020      -0.002805665943
     -0.700478916334      -4.877641201020       0.002805665943
     -0.700478916334      -4.522542476650      -0.002805665943
     -0.700478916334      -4.522542476650       0.002805665943
     -0.700478916334      -3.969463109970      -0.002805665943
     -0.700478916334      -3.969463109970       0.002805665943
     -0.700478916334      -3.272542476650      -0.002805665943
     -0.700478916334      -3.272542476650       0.002805665943
     -0.700478916334      -2.500000000000      -0.002805665943
     -0.700478916334      -2.500000000000       0.002805665943
     -0.700478916334      -1.727457523350      -0.002805665943
     -0.700478916334      -1.727457523350       0.002805665943
     -0.700478916334      -1.030536890030      -0.002805665943
     -0.700478916334      -1.030536890030       0.002805665943
     -0.700478916334      -0.477457523346      -0.002805665943
     -0.700478916334      -0.477457523346       0.002805665943
     -0.700478916334      -0.122358709574      -0.002805665943
     -0.700478916334      -0.122358709574       0.002805665943
     -0.700478916334       0.000000000000      -0.002805665943
     -0.700478916334       0.000000000000       0.002805665943
     -0.700478916334       0.122358709574      -0.002805665943
     -0.700478916334       0.122358709574       0.002805665943
     -0.700478916334       0.477457523346      -0.002805665943
     -0.700478916334       0.477457523346       0.002805665943
     -0.700478916334       1.030536890030      -0.002805665943
     -0.700478916334       1.030536890030       0.002805665943
     -0.700478916334       1.727457523350      -0.002805665943
     -0.700478916334       1.727457523350       0.002805665943
     -0.700478916334       2.500000000000      -0.002805665943
     -0.700478916334       2.500000000000       0.002805665943
     -0.700478916334       3.272542476650      -0.002805665943
     -0.700478916334       3.272542476650       0.002805665943
     -0.700478916334       3.969463109970      -0.002805665943
     -0.700478916334       3.969463109970       0.002805665943
     -0.700478916334       4.522542476650      -0.002805665943
     -0.700478916334       4.522542476650       0.002805665943
     -0.700478916334       4.877641201020      -0.002805665943
     -0.700478916334       4.877641201020       0.002805665943
     -0.700478855106       4.999996863451      -0.002805718637
     -0.700479027021       4.999996079315       0.002805736867
     -0.700478980926       5.000440362119      -0.002770886130
     -0.700478980924       5.000437257661       0.002771377759
     -0.700478980875       5.000868524830      -0.002667870357
     -0.700478916304       5.000867026236       0.002668348064
     -0.700478980988       5.001275014543      -0.002499157175
     -0.700479022964       5.001273607046       0.002499857718
     -0.700479022744       5.001649348726      -0.002269819692
     -0.700478980850       5.001648086628       0.002270754521
     -0.700478980881       5.001982985054      -0.001985021994
     -0.700478980881       5.001982985054       0.001985021994
     -0.700478916192       5.002270015011      -0.001649149297
     -0.700478916192       5.002270015011       0.001649149297
     -0.700478981028       5.002500497795      -0.001272365510
     -0.700479022958       5.002499772928       0.001273756487
     -0.700479022795       5.002668304624      -0.000867001125
     -0.700478980886       5.002667832616       0.000868501555
     -0.700478981012       5.002770750120      -0.000440467021
     -0.700478981012       5.002770750120       0.000440467021
     -0.700478916485       5.002805522273       0.000000000000
     -0.561740227063      -5.010055788372      -0.000000000000
     -0.561740228657      -5.009932529040      -0.001570523431
     -0.561740228657      -5.009932529040       0.001570523431
     -0.561740227047      -5.009563812251      -0.003107462479
     -0.561740124130      -5.009564315086       0.003105970776
     -0.561740301271      -5.008959429440      -0.004566308637
     -0.561740331103      -5.008959228273       0.004566713874
     -0.561740153452      -5.008136233861      -0.005909842244
     -0.561740153455      -5.008134913495       0.005911659773
     -0.561740228771      -5.007112412031      -0.007108804002
     -0.561740301386      -5.007111331656       0.007109839916
     -0.561740331171      -5.005912086983      -0.008134518713
     -0.561740124200      -5.005912099002       0.008134522171
     -0.561740227085      -5.004565195660      -0.008959916781
     -0.561740331144      -5.004563791067       0.008960640931
     -0.561740124145      -5.003106180053      -0.009564283323
     -0.561740153410      -5.003106606550       0.009564136854
     -0.561740301283      -5.001572088290      -0.009932325562
     -0.561740227063      -5.001573195018       0.009932147411
     -0.561740230944      -4.999996078534      -0.010056030033
     -0.561740230416      -4.999996078180       0.010056030072
     -0.561740227064      -4.877641201020      -0.010055953212
     -0.561740227064      -4.877641201020       0.010055953212
     -0.561740227064      -4.522542476650      -0.010055953212
     -0.561740227064      -4.522542476650       0.010055953212
     -0.561740227064      -3.969463109970      -0.010055953212
     -0.561740227064      -3.969463109970       0.010055953212
     -0.561740227064      -3.272542476650      -0.010055953212
     -0.561740227064      -3.272542476650       0.010055953212
     -0.561740227064      -2.500000000000      -0.010055953212
     -0.561740227064      -2.500000000000       0.010055953212
     -0.561740227064      -1.727457523350      -0.010055953212
     -0.561740227064      -1.727457523350       0.010055953212
     -0.561740227064      -1.030536890030      -0.010055953212
     -0.561740227064      -1.030536890030       0.010055953212
     -0.561740227064      -0.477457523346      -0.010055953212
     -0.561740227064      -0.477457523346       0.010055953212
     -0.561740227064      -0.122358709574      -0.010055953212
     -0.561740227064      -0.122358709574       0.010055953212
     -0.561740227064       0.000000000000      -0.010055953212
     -0.561740227064       0.000000000000       0.010055953212
     -0.561740227064       0.122358709574      -0.010055953212
     -0.561740227064       0.122358709574       0.010055953212
     -0.561740227064       0.477457523346      -0.010055953212
     -0.561740227064       0.477457523346       0.010055953212
     -0.561740227064       1.030536890030      -0.010055953212
     -0.561740227064       1.030536890030       0.010055953212
     -0.561740227064       1.727457523350      -0.010055953212
     -0.561740227064       1.727457523350       0.010055953212
     -0.561740227064       2.500000000000      -0.010055953212
     -0.561740227064       2.500000000000       0.010055953212
     -0.561740227064       3.272542476650      -0.010055953212
     -0.561740227064       3.272542476650       0.010055953212
     -0.561740227064       3.969463109970      -0.010055953212
     -0.561740227064       3.969463109970       0.010055953212
[...]
POINT_DATA                 541
SCALARS phi float 1
LOOKUP_TABLE default
     -0.493777929816
     -0.103707660922
      1.317073542865
     -1.343818529264
      2.458201343571
     -1.797906110494
      0.578188056278
     -0.023762397513
      0.577411672685
      0.126610188175
     -1.152268902714
     -0.005724419813
      0.191289548683
      0.203203890272
      0.200456674144
      1.704644561023
      0.626864244610
      0.232710858613
      0.467630007725
     -1.743716097159
      0.100451144215
     14.570284405693
    -14.801845044329
  44892.999256472096
     -2.370617813374
  83293.874002705401
    -26.901795267624
  -7871.561820114312
     -2.732620822354
   9046.109022878807
    -12.131018359976
   5209.054495255324
    -26.832504796654
    334.148653782334
   2453.656129723263
   2261.224749340135
   4307.731994548330
   4325.591121018490
   4286.034852652942
   4226.206167491839
    959.203698239502
   4424.730212580604
    671.323633445416
  -3424.350172796466
   -100.235451576290
   -186.382556709699
  -1117.079346468601
   -258.730603750903
   2673.388495939651
   1563.521205108875
      4.626883251630
      8.262843167289
  -3150.065156198706
     11.222079864188
   1065.575580466121
   -547.036572587696
   -139.468575417984
   -948.809139228194
    -94.045824801714
   -642.055939074408
   3134.070417689095
   -287.593975061322
  -3084.469580353456
   -101.746058682553
    994.170794091404
   1152.930980783954
   1120.561048677305
     15.011379276931
    -30.075139871437
   1083.055783665356
     52.414050807273
     15.169337909752
    184.677876198954
  -1361.752537623256
    900.825764620181
   1111.297084928479
      7.783323874697
     14.591607324993
    106.563867509555
     15.105411775203
    244.710031273483
   1197.866113632995
   1219.648491154851
      1.684056722405
    139.273861231743
   -855.817121289675
    147.075355593775
    759.497846272943
    990.985148127732
    -82.405775510689
   -331.633216928170
    -50.566204717648
    207.918820626760
   -543.795417308579
     66.989691575858
   -511.124297615557
   -348.075630859327
    -15.478293436284
   -331.729134949789
     24.682823449195
   -817.657557632501
     29.863331527522
     27.912702808919
 -57622.646590396565
  -3770.731413941982
  -2921.037720246851
      1.742113004609
   2570.672645165007
     30.198284269507
  -4822.380640991455
     17.816096644814
      2.101699937268
 -55823.911271665864
  -3316.809273573082
  -3298.174763981413
    -10.575921624010
   4482.339932525656
  34932.313367392824
  11933.785112093510
  18170.183112239400
     -1.677302013667
  47636.067035027765
     44.255314408107
   4592.997706214323
    103.145713151851
  13208.974387977416
     49.629041373975
   1783.876865528197
     38.084209317498
  14477.769637118858
  40310.889314666063
 -18897.406734283413
  26986.064379961830
  12007.156402977978
  -9173.830487057132
 -26804.368149384954
    -24.437299463584
   4050.963953228267
   1107.487706401982
 -21772.403050713172
 106113.945895810117
   3499.122021652346
     24.012296725890
    304.075917523952
 -23707.058875283885
   3118.263890131490
 -38887.796658666826
 -13851.549009644135
 -24664.699710740093
   8449.404933769216
 -45944.996723218967
  31505.788260920919
 -28315.018717115741
   -694.864406385364
   -508.930514847387
  -6572.147280630171
  -2895.984484416651
   -692.796915621760
  -5511.994280291999
 -16167.075977686130
   8724.021008707941
  31222.280709573261
   8465.016837165516
   1704.294808440660
 -22402.020825053551
    668.244815811421
  -6396.744253543912
 -19826.352649901215
     -3.855570946947
  -6225.739683144022
  53140.728199563753
  -6248.715509555555
 -23388.993100714339
 -34889.077242592575
  -5333.487281353311
  39324.224189283261
  20791.320517297987
  -7869.158496524708
 -14855.330873553219
  -6319.661680852640
  -7644.318504013144
     61.663511919435
     19.978047333571
 -17507.132354701229
  -3572.653398069738
     75.863773840862
      9.452158077818
  -5256.188280172326
  -6718.536337752092
     74.830208023076
 -16851.744770595928
 109111.948972882688
  13532.107421613004
   4453.138833671050
   2696.959690922608
  17078.843627760121
  -2367.189183064147
  15364.930229859703
   1546.339753419128
   8626.114530713316
  11892.750121921967
 -18549.318476724162
   1562.733868773118
  65165.715681474969
    346.482157945790
     -4.534067505024
   2719.230775706641
 -37424.914281514328
  64795.416417970831
  -3876.083511804712
   8626.964834335586
 -20278.103868399252
  64001.872912513092
  -1511.402183879099
 -12633.028499090853
    109.118238863645
 -17840.515922533177
     44.661192226868
 -14664.930886830702
  18706.529982885932
 -70711.306254063398
 -24656.563144501313
  75874.791856567201
 -13509.549150047693
     18.466502248738
 -37845.319846975857
  24110.558847291097
     31.682412679431
 -11057.322415546731
  -1554.597842338091
 -37438.292488004314
     95.324434882691
 -16030.205479489914
  -2534.381521556755
   9089.440099278725
     15.169205269705
 -18852.607704339232
 -12176.160762819374
  -9175.625059283380
  27880.102765152333
 -19990.690106392969
     45.486534381470
 -28592.592088736470
   4593.419464050764
     97.336204383202
   6152.813290748276
     25.044629286217
 -21314.151648410112
    327.240683181064
      8.932165485784
  36088.812798957297
     22.072047774152
    104.558781027186
  -7763.060947285629
 -10959.717633470958
   3215.434271551331
 -10250.319861784879
 -18919.662327348138
  -8639.551593842829
 -15949.514625376907
  -6948.584751905101
     -2.847970065176
  -7116.473066189173
 -23432.157981382847
  -7384.109326486896
 -14519.976774836514
 -23210.237575648749
  14911.310865863648
  -8466.296685343750
  -6805.540064746556
      1.784498283780
 -22105.378132942318
      9.683186486209
     36.278791066793
    -39.247804382982
  -6074.380339855485
     33.652815159864
      4.406100596045
      0.074054863047
 -15867.224085333848
    -18.668614649061
   3373.663049533201
  -5612.905085156609
  -2191.836631320246
 -21941.136980442578
  -2120.146279833183
  -4572.132915428158
  -8654.535874218036
  14889.255450521416
  27046.724599222951
  -8570.998961949716
   6454.456868691480
 -19248.929090386177
   2472.737030549401
     26.327453986994
     16.342521640861
  11719.291859309942
    -38.980413216083
     25.858907702122
     89.967843311707
     -5.314643449595
    -38.619961248522
     -5.047809769043
      0.046220715544
    -11.962184423428
   8710.626030803594
     10.033055959891
  -5626.341523484350
 -30673.594389671573
  -2725.593094796859
     45.426891983036
  22462.872905668664
   3657.225505812728
    467.034029066737
   2019.232253231224
   5242.924148838219
     32.148569782816
     69.719273040524
 -15819.861266818312
     11.366857319337
      5.986747139406
   9064.227366614405
      8.715192000421
 -21007.509263909222
 -19644.055188767397
      4.088189699140
  -9625.106448839009
    -25.367962277893
 -12183.931652054100
  -5634.219953666594
  -8135.945390982299
 -22283.814506576633
 -13007.200464343099
 -30960.537111228266
 -14350.507884749102
 -22625.918228538329
 -13706.651079017436
   7141.752774786533
  -7751.384846193385
     63.289188085311
  -6425.837787588100
     20.393403627963
     15.173553749148
   1305.484609739788
     26.099055373598
     98.673713094379
     22.668415562573
  -6594.393209730384
     23.400052558138
 -22066.142906746420
  -3901.135578504086
  11524.411105199522
 -15844.044452671928
    462.306473667342
   -972.281562081273
     29.643362825315
     -8.420347330965
  -1754.373207482635
   8920.774242419935
    891.420936316135
 -20801.291115149805
     -3.582871459672
     21.121480982727
  38671.316673471207
 -23182.399473280078
   -796.771918472401
  -2417.770555556929
    -14.940199393526
 -20530.205834515655
   -228.930101503705
 -12018.969366099196
     10.968868477711
   1369.060131641699
     71.989945905926
     58.210496929836
 -23768.380604480717
   6985.655392549663
    -53.974594916335
    -26.430112457993
      7.402565847148
      4.336278902142
    -49.941203797307
    -18.501719479906
    -55.979371108448
  -5580.681983818535
    -17.111733556124
    -17.189519742641
    -64.667126331950
    128.889573411429
    113.261993300398
      5.011616400778
 -72191.446352144252
     60.013473490292
   1613.371631350353
     60.260948109317
  -3020.539353764543
     13.255242681555
  -5636.335959180898
  -1769.456436981419
     43.390564477061
    -36.833852802910
    -25.381291615569
   9209.554124304592
  -7866.220025031099
      7.267338115567
    -18.517317584317
   2691.507225881538
  -7113.619493169022
      1.023030418407
  -5266.928947350164
    -10.912149067771
   2049.487932675334
  -8729.399639430751
   3360.537957475949
  -1687.408155175714
  -8343.255344339159
  -5117.860782294289
  14796.578843105261
  -9328.851915139934
  -4458.755460167678
  -2443.868142566868
     38.201500836748
    807.397404114456
   -391.475901256562
   -986.188276157626
   -657.360041670226
   -385.697856520500
 -23814.647293839182
 -13976.006908983085
  -2338.863168029672
   2453.516767903734
    738.454166500519
   5493.976223922820
   4199.001348185337
 -23037.773742335521
   3033.973022769891
     10.184540542039
   3762.593916205260
   -613.591797659265
   3966.209189314117
  11552.957162512990
   3581.743444995352
     33.150643723052
    781.724206091857
     -1.504243650053
   1387.077638695570
     40.820747558740
 -10904.851496039153
 -24000.759646611143
   2427.879460339355
 -50145.935004763589
  43201.979877872320
  -6800.219264297424
   6511.482730727219
 -31474.229187820303
 -13788.797087306169
  27800.550858903029
     -0.328111750442
   2647.275266447256
  33532.791011873065
     16.109388517410
  29333.312004634779
   9060.101390130978
  -2500.336311729023
 -21177.827339530551
 -12282.910849834210
  27793.975983808828
   6439.486480081234
   9857.588550254048
  26811.874162869419
   1895.441430356694
 -11576.581490563793
   6335.664435880630
  28907.273049744716
   7726.435179130425
 -21983.437791289150
   -116.671370865292
  51264.602092764857
  11571.832352183535
   6125.205041663724
    -14.772726697053
  -3729.676230664037
  -7316.504710345920
  -4776.414936547497
  -4440.348077885502
  -4965.546667492514
  -2683.263274491636
  -4834.022151008045
 -11184.996405653377
  -4878.848491256020
  -9436.161990291812
  -4742.972453444706
    -36.112210621900
 -10882.565011268553
 -17119.927400051223
  -2500.520353871836
  -8663.498136463737
  -1170.300199787234
  -1167.734999302155
  -1179.266738015192
   1471.575395530368
  15378.912031030790
   7293.828776458762
  20919.063527088430
  -5136.431392832037
  -4654.415914065994
  37280.707203629921
   4504.821553615515
  32923.882085530749
   9402.194893693060
   -257.422409503192
   9700.612205121524
  23935.318609990038
  -8952.480818890059
  20609.646525276094
 -13727.654495806419
 -42238.405613735646
  -4358.827967688104
  10721.025218059211
  44968.464226572614
  16173.565094580157
   1827.574102691591
     33.458263196504
 -37371.710620043406
  -6201.825754938869
  27086.705462598533
  -1827.702939375248
 -37745.282383873848
 -23429.906030629492
 -10960.301120279124
   -466.925539821021
 -15974.675503570903
   -394.340862427493
  -1927.343578488431
   8782.487412070219
 -20683.147046925555
   7218.039958913244
    -10.987990439185
 -15667.380342034148
     60.517561368691
 -22028.770341878240
