# vtk DataFile Version 3.0
MFTran results file. Generated by MFTran, USU AeroLab (c) 2021.
ASCII
DATASET POLYDATA
POINTS                 529 float
     -0.749986974449      -1.999904013828      -0.000024839278
     -0.749900177072      -1.951056480410      -0.000002970228
     -0.749900177072      -1.809016942980      -0.000002970228
     -0.749900177072      -1.587785243990      -0.000002970228
     -0.749900177072      -1.309016942980      -0.000002970228
     -0.749900177072      -1.000000000000      -0.000002970228
     -0.749900177072      -0.690982997417      -0.000002970228
     -0.749900177072      -0.412214756012      -0.000002970228
     -0.749900177072      -0.190983012319      -0.000002970228
     -0.749900177072      -0.048943482339      -0.000002970228
     -0.749982571712       0.000000000000       0.000095467830
     -0.749900177072       0.048943482339      -0.000002970228
     -0.749900177072       0.190983012319      -0.000002970228
     -0.749900177072       0.412214756012      -0.000002970228
     -0.749900177072       0.690982997417      -0.000002970228
     -0.749900177072       1.000000000000      -0.000002970228
     -0.749900177072       1.309016942980      -0.000002970228
     -0.749900177072       1.587785243990      -0.000002970228
     -0.749900177072       1.809016942980      -0.000002970228
     -0.749900177072       1.951056480410      -0.000002970228
     -0.749986974449       1.999904013828      -0.000024839278
     -0.725522519397      -2.001359047062      -0.000000000000
     -0.725522461948      -2.001176919621      -0.000679538509
     -0.725522461948      -2.001176919621       0.000679538509
     -0.725522519291      -2.000679639083      -0.001176986650
     -0.725522519291      -2.000679639083       0.001176986650
     -0.725522458541      -1.999989579565      -0.001359613585
     -0.725522528199      -1.999989579565       0.001359609553
     -0.725522461913      -1.951056480410      -0.001359068063
     -0.725522461913      -1.951056480410       0.001359068063
     -0.725522461913      -1.809016942980      -0.001359068063
     -0.725522461913      -1.809016942980       0.001359068063
     -0.725522461913      -1.587785243990      -0.001359068063
     -0.725522461913      -1.587785243990       0.001359068063
     -0.725522461913      -1.309016942980      -0.001359068063
     -0.725522461913      -1.309016942980       0.001359068063
     -0.725522461913      -1.000000000000      -0.001359068063
     -0.725522461913      -1.000000000000       0.001359068063
     -0.725522461913      -0.690982997417      -0.001359068063
     -0.725522461913      -0.690982997417       0.001359068063
     -0.725522461913      -0.412214756012      -0.001359068063
     -0.725522461913      -0.412214756012       0.001359068063
     -0.725522461913      -0.190983012319      -0.001359068063
     -0.725522461913      -0.190983012319       0.001359068063
     -0.725522461913      -0.048943482339      -0.001359068063
     -0.725522461913      -0.048943482339       0.001359068063
     -0.725522519487       0.000000000000      -0.001359064748
     -0.725522404340       0.000000000000       0.001359071412
     -0.725522461913       0.048943482339      -0.001359068063
     -0.725522461913       0.048943482339       0.001359068063
     -0.725522461913       0.190983012319      -0.001359068063
     -0.725522461913       0.190983012319       0.001359068063
     -0.725522461913       0.412214756012      -0.001359068063
     -0.725522461913       0.412214756012       0.001359068063
     -0.725522461913       0.690982997417      -0.001359068063
     -0.725522461913       0.690982997417       0.001359068063
     -0.725522461913       1.000000000000      -0.001359068063
     -0.725522461913       1.000000000000       0.001359068063
     -0.725522461913       1.309016942980      -0.001359068063
     -0.725522461913       1.309016942980       0.001359068063
     -0.725522461913       1.587785243990      -0.001359068063
     -0.725522461913       1.587785243990       0.001359068063
     -0.725522461913       1.809016942980      -0.001359068063
     -0.725522461913       1.809016942980       0.001359068063
     -0.725522461913       1.951056480410      -0.001359068063
     -0.725522461913       1.951056480410       0.001359068063
     -0.725522458541       1.999989579565      -0.001359613585
     -0.725522528199       1.999989579565       0.001359609553
     -0.725522519291       2.000679639083      -0.001176986650
     -0.725522519291       2.000679639083       0.001176986650
     -0.725522461948       2.001176919621      -0.000679538509
     -0.725522461948       2.001176919621       0.000679538509
     -0.725522519397       2.001359047062      -0.000000000000
     -0.654503258899      -2.005346331548      -0.000000000000
     -0.654503062321      -2.004630157426      -0.002673189558
     -0.654503062321      -2.004630157426       0.002673189558
     -0.654503227041      -2.002668728617      -0.004632884440
     -0.654503258820      -2.002673284837       0.004630086704
     -0.654503177374      -1.999985106183      -0.005347484437
     -0.654503207572      -1.999986966457       0.005347220106
     -0.654503160584      -1.951056480410      -0.005346368396
     -0.654503160584      -1.951056480410       0.005346368396
     -0.654503160584      -1.809016942980      -0.005346368396
     -0.654503160584      -1.809016942980       0.005346368396
     -0.654503160584      -1.587785243990      -0.005346368396
     -0.654503160584      -1.587785243990       0.005346368396
     -0.654503160584      -1.309016942980      -0.005346368396
     -0.654503160584      -1.309016942980       0.005346368396
     -0.654503160584      -1.000000000000      -0.005346368396
     -0.654503160584      -1.000000000000       0.005346368396
     -0.654503160584      -0.690982997417      -0.005346368396
     -0.654503160584      -0.690982997417       0.005346368396
     -0.654503160584      -0.412214756012      -0.005346368396
     -0.654503160584      -0.412214756012       0.005346368396
     -0.654503160584      -0.190983012319      -0.005346368396
     -0.654503160584      -0.190983012319       0.005346368396
     -0.654503160584      -0.048943482339      -0.005346368396
     -0.654503160584      -0.048943482339       0.005346368396
     -0.654503258813       0.000000000000      -0.005346363220
     -0.654503062359       0.000000000000       0.005346373668
     -0.654503160584       0.048943482339      -0.005346368396
     -0.654503160584       0.048943482339       0.005346368396
     -0.654503160584       0.190983012319      -0.005346368396
     -0.654503160584       0.190983012319       0.005346368396
     -0.654503160584       0.412214756012      -0.005346368396
     -0.654503160584       0.412214756012       0.005346368396
     -0.654503160584       0.690982997417      -0.005346368396
     -0.654503160584       0.690982997417       0.005346368396
     -0.654503160584       1.000000000000      -0.005346368396
     -0.654503160584       1.000000000000       0.005346368396
     -0.654503160584       1.309016942980      -0.005346368396
     -0.654503160584       1.309016942980       0.005346368396
     -0.654503160584       1.587785243990      -0.005346368396
     -0.654503160584       1.587785243990       0.005346368396
     -0.654503160584       1.809016942980      -0.005346368396
     -0.654503160584       1.809016942980       0.005346368396
     -0.654503160584       1.951056480410      -0.005346368396
     -0.654503160584       1.951056480410       0.005346368396
     -0.654503108503       1.999986966463      -0.005347225422
     -0.654503262278       1.999985106183       0.005347479921
     -0.654503258820       2.002673284837      -0.004630086704
     -0.654503227041       2.002668728617       0.004632884440
     -0.654503062321       2.004630157426      -0.002673189558
     -0.654503062321       2.004630157426       0.002673189558
     -0.654503258899       2.005346331548      -0.000000000000
     -0.543887981197      -2.010901933073      -0.000000000000
     -0.543887931003      -2.009439566388      -0.005454370939
     -0.543887931003      -2.009439566388       0.005454370939
     -0.543887981190      -2.005451084370      -0.009441448633
     -0.543888106337      -2.005451082610       0.009441443026
     -0.543888018665      -1.999986960091      -0.010902897856
     -0.543888022945      -1.999986961706       0.010902897445
     -0.543887981184      -1.951056480410      -0.010902044835
     -0.543887981184      -1.951056480410       0.010902044835
     -0.543887981184      -1.809016942980      -0.010902044835
     -0.543887981184      -1.809016942980       0.010902044835
     -0.543887981184      -1.587785243990      -0.010902044835
     -0.543887981184      -1.587785243990       0.010902044835
     -0.543887981184      -1.309016942980      -0.010902044835
     -0.543887981184      -1.309016942980       0.010902044835
     -0.543887981184      -1.000000000000      -0.010902044835
     -0.543887981184      -1.000000000000       0.010902044835
     -0.543887981184      -0.690982997417      -0.010902044835
     -0.543887981184      -0.690982997417       0.010902044835
     -0.543887981184      -0.412214756012      -0.010902044835
     -0.543887981184      -0.412214756012       0.010902044835
     -0.543887981184      -0.190983012319      -0.010902044835
     -0.543887981184      -0.190983012319       0.010902044835
     -0.543887981184      -0.048943482339      -0.010902044835
     -0.543887981184      -0.048943482339       0.010902044835
     -0.543888106330       0.000000000000      -0.010902039100
     -0.543887856045       0.000000000000       0.010902050727
     -0.543887981184       0.048943482339      -0.010902044835
     -0.543887981184       0.048943482339       0.010902044835
     -0.543887981184       0.190983012319      -0.010902044835
     -0.543887981184       0.190983012319       0.010902044835
[...]
POINT_DATA                 529
SCALARS phi float 1
LOOKUP_TABLE default
      1.888165898716
      0.117152126283
      0.127883123246
     -0.166063966640
      0.330140825175
     -0.258894048228
      0.019612035680
     -0.159496541552
     -0.077011606258
      0.060995236393
     -0.027857017070
      0.061775057130
     -0.029980948005
      0.090980547867
      0.041201260760
     -0.019443849631
     -0.071714616910
     -0.029029743689
     -0.018703490064
     -0.112009215363
      0.029747417479
     -2.575028412978
     -3.960983655453
      3.969617419287
      7.460648888886
     -6.368206819900
     -7.392877831128
      6.191647814312
      0.120015512738
      0.299260468576
      0.614076940167
      0.017997888281
     -0.128490008509
     -0.160015349495
     -0.033856550065
      0.282961299170
     -0.337371255474
     -0.173112336157
      0.134041808407
     -0.003437800053
     -0.197404661206
     -0.172213682483
     -0.076578540986
     -0.082693395149
      0.073171960986
      0.056850713305
      0.113450524424
     -0.039054735035
      0.118914926402
      0.036138473970
     -0.044688218666
     -0.095425861403
      0.036493959286
     -0.283514796860
     -0.271667817611
      0.174116409432
      0.084933535026
      0.117376037867
      0.054738007126
     -0.071477045206
     -0.014772218079
     -0.078897178627
     -0.047706935497
     -0.019001273631
     -0.099587011601
      0.200966065474
      0.247581180735
     -0.162216564670
     -2.363430028969
      0.086296231143
      0.270700850046
      3.850060203635
     -1.384455062757
      5.048941707272
     -1.788542025574
     -1.758896355509
     -6.780278566698
     17.353564826415
      1.016013521705
      5.486366936910
     -0.318433470576
      0.063481582424
      0.541147557042
     -0.171730155418
     -0.188710439070
     -0.509466648146
     -0.373583191402
      0.248830570197
     -0.127157561181
     -0.017437338135
      0.242034042802
     -0.058375203269
     -0.199200233672
     -0.036106568104
     -0.090233899204
      0.176286724352
     -0.132868958873
     -0.049030040807
      0.255098874849
     -0.133771482498
     -0.108281946179
     -0.025669080425
      0.008563532257
     -0.247300668283
     -0.153711789718
      0.013040700856
      0.242690653338
     -0.075918710227
      0.022853440508
     -0.048181890282
     -0.102743996171
      0.154009984678
      0.214115975083
     -0.158662233942
     -0.115442842173
      0.045061427643
      0.067308477333
      0.154032164415
     -0.076527805403
      0.055310349370
      1.334899122699
      1.604220399302
      0.303935936692
     -0.025121334005
      0.754544734802
    -20.257818287783
      6.751339236593
      5.801498655263
     -4.921859522036
    -19.623457411762
     -0.069244590074
     -7.084529546870
     -0.186896513116
     -0.801744809502
     -0.822450129431
      0.957162576218
      0.993960911698
      0.014401681598
      0.017902565046
     -0.061050673847
      0.178055885443
     -0.080380200315
      0.125599341013
      0.133350317817
      0.122553900699
      0.179891961360
      0.354198335329
      0.090929442053
     -0.198212991125
      0.074712846081
     -0.142520949242
     -0.116798836489
     -0.143592403199
      0.007931152374
      0.163364481894
      0.418568989370
     -0.059798955230
     -0.043591367014
      0.047473118527
     -0.067139120276
     -0.071671379074
     -0.043214752825
     -0.230293892631
      0.246083529027
     -0.075914592639
      0.015559621893
      0.037526442291
     -0.129385410069
      0.068234678726
     -0.026679930697
      0.190499242784
     -0.141378152751
      1.383709504867
      0.266131421225
     -1.688561403046
     -2.098251321385
      2.554111599059
      0.405752980972
     -7.898621043712
     -0.639458576738
      5.818749253243
     23.856534515464
      1.270753415149
      6.064586873069
      1.293209786924
     -0.397687823948
     -0.729262998493
      0.151274825965
      0.202593812788
     -0.310665130707
      0.252301155458
     -0.039738519473
     -0.448303501194
      0.358571754403
     -0.176189106363
     -0.218839549820
     -0.223165415111
     -0.338013621692
     -0.347990155509
      0.035340744806
      0.030485184306
     -0.072946629873
     -0.154587654247
      0.029053288961
      0.029738399054
     -0.054212030794
      0.091410140582
      0.050595490711
      0.001517103722
      0.102120066577
     -0.110425018520
     -0.055605786576
     -0.056336002585
      0.022862337171
     -0.018191742642
      0.027453215193
      0.094414413276
      0.089347936071
     -0.015607791669
     -0.038245611187
      0.184860266754
      0.016026159011
     -0.073983336316
      0.137341116132
     -1.260600799718
     -0.247051137727
      1.585476913805
      0.426581304464
     -0.538636632271
      9.082401935629
    -34.109778123822
    -28.540195873396
     12.429487063505
     11.744484635491
     -4.775183873059
      4.096423887739
      0.184250113713
      0.479824237918
      0.050262279044
      0.400948111040
     -0.769075033651
      0.017776159424
      0.037633390610
     -0.888272134298
      0.078089873680
      0.020346981671
     -0.159628934598
     -0.133861522092
     -0.064404447091
      0.166499795004
      0.005076258531
      0.097233699589
      0.279605732238
     -0.163283502973
      0.291030962304
      0.269760287483
     -0.012657598157
     -0.117253897946
     -0.071849243153
     -0.008609489617
     -0.210553596018
     -0.038315117134
      0.009382985116
      0.100594541219
      0.110907040798
     -0.084452982661
     -0.123810378957
      0.088125781393
      0.168486205565
      0.033295240056
      0.037105037689
      0.225260780912
     -0.039620049460
      0.180221289295
     -0.015698028091
     -0.008916870914
     -0.293540286818
      1.029805417377
     -0.114147739337
      1.363881555929
     -0.907788532169
     22.094074480551
     -0.214540427835
    -30.521327893114
      4.179179617497
     -8.481749604132
      1.795367617146
     -3.851726869353
     -0.072307807824
      1.601916649183
      0.511494945776
     -1.099167996358
     -0.218334814021
     -0.525322124922
      0.124066984643
     -0.145127096362
      0.634412995664
      0.390544716618
      0.505715608292
     -0.014374840826
     -0.068322826013
     -0.090473366835
      0.047358944600
      0.212646002594
     -0.578981081402
     -0.007071260209
      0.240465417751
      0.132634541375
     -0.196984430662
      0.182386114745
      0.027488325662
      0.056294470173
     -0.050035357953
     -0.017251548147
     -0.217543970296
     -0.049464698769
     -0.149450696547
     -0.315976829849
      0.102511797146
     -0.208021970756
      0.061604274850
     -0.162081080665
      0.129549781951
     -0.101454735358
      0.231908195570
     -0.110009947489
     -0.124188853675
      0.157093125399
      0.041698463519
     -0.513961054608
     -0.678141034885
      0.969541381454
      0.254710606380
     22.142214286897
     15.016304152646
     -2.495065457672
      5.285495654801
     -6.313593620282
      5.213633683832
     47.249990800383
     -0.805473626599
     -4.610748051263
     -0.488027220785
      0.215801281492
      0.218392599829
      1.076927996624
     -0.407169930165
      0.601473843119
     -0.786664038796
      0.492856692166
      0.214861477679
      0.095825850192
     -0.282292368758
      0.445239477357
      0.884598909328
     -0.019898164610
     -0.204229925201
      0.011809252244
      0.195413302742
     -0.000611106328
     -0.397691663581
     -0.003488089212
     -0.124809238896
      0.038273758373
     -0.163492893821
      0.098455146304
      0.065503634771
      0.267020384341
      0.143974389935
      0.063419119780
      0.085857719715
      0.075996219405
      0.239894527371
     -0.135042103369
     -0.122146486027
     -0.291153758538
     -0.151192777550
     -0.233483080381
     -0.015294152996
     -0.426003301524
      0.027473034036
     -1.144394010007
      0.332387452430
     -1.103135727849
     -0.532496255524
    -16.940866816422
     -2.160843365926
     31.991040782950
    -12.756773431637
     27.960810543789
     -5.459548771199
    -28.973337055759
      0.437294195355
     -1.657594404102
     -0.330046437697
      3.899989270387
      0.849075549415
     -0.683693502388
      1.411729651977
     -0.357365709401
     -0.225710464196
      0.011700916881
      0.887519196110
     -0.043381892227
     -0.946650653828
      0.149896256564
      0.250880871463
     -0.170593474604
     -0.116985039400
      0.223484449292
      0.076643479045
      0.178415534794
     -0.066103334812
      0.142692781857
      0.327575898327
      0.145852427202
      0.068847693670
      0.059260353972
      0.019969137146
      0.311992463557
      0.105721328741
      0.119160556852
      0.068331165453
      0.029405818820
     -0.164118131084
      0.002171789312
     -0.043223168859
      0.022794516426
     -0.039598356344
     -0.208843743567
     -0.161679341253
     -0.094479388880
      0.684031859342
     -0.622588743117
      0.694520742345
     -1.182477585362
      0.112691308771
     19.018697438586
      2.084157124786
    -36.740644813548
     14.211367575558
     -0.536311155538
      6.142077675464
     31.447811431416
     -0.257399927607
     -3.955907828991
     -0.167454270510
      1.852831414912
     -1.864641842809
     -2.522999370309
      0.272785080436
      1.352041526070
     -1.108605267395
      0.719522852094
      1.255539676688
      0.372650928182
     -0.036766505556
      0.412200243201
      0.193400981717
      0.224424753250
      0.033975707676
      0.224003553142
      0.098091268275
     -0.021593029395
      0.004133292067
      0.018355597636
      0.353425428383
     -0.037349591747
      0.133203166337
     -0.292775348619
      0.155252234725
     -0.105355401815
     -0.089958210310
     -0.168498741416
     -0.178895201344
      0.047269423596
     -0.116429488314
      0.155646388237
     -0.286796654493
      0.068089659904
      0.002785620246
      0.229378141606
      0.072239565231
      0.035892151523
      0.123939254030
      0.126825627666
     -0.062863748479
     -0.075215751706
      0.136402008084
    -24.890599141883
     -0.582862521969
      2.596525121475
     -0.614496187524
      1.786820675463
     -1.167223208632
     -0.295047620355
     -0.211596532682
     -0.075413885482
     -0.130352511133
     -0.055545895257
     -0.099675579491
      0.060276148482
     -0.254282075347
     -0.031743705870
      0.027796468527
     -0.037354269480
     -0.077613694444
      0.112898405621
     -0.066321237128
     -0.147364445885
      0.061214548126
     -0.027950163504
     -0.077005763380
     -0.159605351345
      0.019557618457
     -0.258760331621
      0.330151279569
     -0.166120616481
      0.127650391661
      0.117293794550
      0.061793729781
     -0.030098771430
      0.090983131113
      0.041311299236
     -0.019418506140
     -0.071807242768
     -0.029053340341
     -0.018578923321
     -0.112105639683
