# vtk DataFile Version 3.0
MFTran results file. Generated by MFTran, USU AeroLab (c) 2021.
ASCII
DATASET POLYDATA
POINTS                 529 float
     -0.749869744487      -1.999040138277      -0.000248392783
     -0.749001770722      -1.951056480410      -0.000029702285
     -0.749001770722      -1.809016942980      -0.000029702285
     -0.749001770722      -1.587785243990      -0.000029702285
     -0.749001770722      -1.309016942980      -0.000029702285
     -0.749001770722      -1.000000000000      -0.000029702285
     -0.749001770722      -0.690982997417      -0.000029702285
     -0.749001770722      -0.412214756012      -0.000029702285
     -0.749001770722      -0.190983012319      -0.000029702285
     -0.749001770722      -0.048943482339      -0.000029702285
     -0.749825717123       0.000000000000       0.000954678297
     -0.749001770722       0.048943482339      -0.000029702285
     -0.749001770722       0.190983012319      -0.000029702285
     -0.749001770722       0.412214756012      -0.000029702285
     -0.749001770722       0.690982997417      -0.000029702285
     -0.749001770722       1.000000000000      -0.000029702285
     -0.749001770722       1.309016942980      -0.000029702285
     -0.749001770722       1.587785243990      -0.000029702285
     -0.749001770722       1.809016942980      -0.000029702285
     -0.749001770722       1.951056480410      -0.000029702285
     -0.749869744487       1.999040138277      -0.000248392783
     -0.725471032133      -2.000460521013      -0.000000000000
     -0.725470457646      -2.000398775756      -0.000230330674
     -0.725470457646      -2.000398775756       0.000230330674
     -0.725471031076      -2.000230343175      -0.000398859314
     -0.725471031076      -2.000230343175       0.000398859314
     -0.725470423572      -1.999895795652      -0.000466027025
     -0.725471120158      -1.999895795652       0.000465986707
     -0.725470457291      -1.951056480410      -0.000460571809
     -0.725470457291      -1.951056480410       0.000460571809
     -0.725470457291      -1.809016942980      -0.000460571809
     -0.725470457291      -1.809016942980       0.000460571809
     -0.725470457291      -1.587785243990      -0.000460571809
     -0.725470457291      -1.587785243990       0.000460571809
     -0.725470457291      -1.309016942980      -0.000460571809
     -0.725470457291      -1.309016942980       0.000460571809
     -0.725470457291      -1.000000000000      -0.000460571809
     -0.725470457291      -1.000000000000       0.000460571809
     -0.725470457291      -0.690982997417      -0.000460571809
     -0.725470457291      -0.690982997417       0.000460571809
     -0.725470457291      -0.412214756012      -0.000460571809
     -0.725470457291      -0.412214756012       0.000460571809
     -0.725470457291      -0.190983012319      -0.000460571809
     -0.725470457291      -0.190983012319       0.000460571809
     -0.725470457291      -0.048943482339      -0.000460571809
     -0.725470457291      -0.048943482339       0.000460571809
     -0.725471033038       0.000000000000      -0.000460538652
     -0.725469881562       0.000000000000       0.000460605299
     -0.725470457291       0.048943482339      -0.000460571809
     -0.725470457291       0.048943482339       0.000460571809
     -0.725470457291       0.190983012319      -0.000460571809
     -0.725470457291       0.190983012319       0.000460571809
     -0.725470457291       0.412214756012      -0.000460571809
     -0.725470457291       0.412214756012       0.000460571809
     -0.725470457291       0.690982997417      -0.000460571809
     -0.725470457291       0.690982997417       0.000460571809
     -0.725470457291       1.000000000000      -0.000460571809
     -0.725470457291       1.000000000000       0.000460571809
     -0.725470457291       1.309016942980      -0.000460571809
     -0.725470457291       1.309016942980       0.000460571809
     -0.725470457291       1.587785243990      -0.000460571809
     -0.725470457291       1.587785243990       0.000460571809
     -0.725470457291       1.809016942980      -0.000460571809
     -0.725470457291       1.809016942980       0.000460571809
     -0.725470457291       1.951056480410      -0.000460571809
     -0.725470457291       1.951056480410       0.000460571809
     -0.725470423572       1.999895795652      -0.000466027025
     -0.725471120158       1.999895795652       0.000465986707
     -0.725471031076       2.000230343175      -0.000398859314
     -0.725471031076       2.000230343175       0.000398859314
     -0.725470457646       2.000398775756      -0.000230330674
     -0.725470457646       2.000398775756       0.000230330674
     -0.725471032133       2.000460521013      -0.000000000000
     -0.654456345592      -2.004447555079      -0.000000000000
     -0.654454379811      -2.003851861509      -0.002223872877
     -0.654454379811      -2.003851861509       0.002223872877
     -0.654456027013      -2.002178333076      -0.003879701613
     -0.654456344798      -2.002223895283       0.003851724254
     -0.654455530343      -1.999851061830      -0.004458798963
     -0.654455832321      -1.999869664571       0.004456155657
     -0.654455362435      -1.951056480410      -0.004447638549
     -0.654455362435      -1.951056480410       0.004447638549
     -0.654455362435      -1.809016942980      -0.004447638549
     -0.654455362435      -1.809016942980       0.004447638549
     -0.654455362435      -1.587785243990      -0.004447638549
     -0.654455362435      -1.587785243990       0.004447638549
     -0.654455362435      -1.309016942980      -0.004447638549
     -0.654455362435      -1.309016942980       0.004447638549
     -0.654455362435      -1.000000000000      -0.004447638549
     -0.654455362435      -1.000000000000       0.004447638549
     -0.654455362435      -0.690982997417      -0.004447638549
     -0.654455362435      -0.690982997417       0.004447638549
     -0.654455362435      -0.412214756012      -0.004447638549
     -0.654455362435      -0.412214756012       0.004447638549
     -0.654455362435      -0.190983012319      -0.004447638549
     -0.654455362435      -0.190983012319       0.004447638549
     -0.654455362435      -0.048943482339      -0.004447638549
     -0.654455362435      -0.048943482339       0.004447638549
     -0.654456344728       0.000000000000      -0.004447586791
     -0.654454380193       0.000000000000       0.004447691273
     -0.654455362435       0.048943482339      -0.004447638549
     -0.654455362435       0.048943482339       0.004447638549
     -0.654455362435       0.190983012319      -0.004447638549
     -0.654455362435       0.190983012319       0.004447638549
     -0.654455362435       0.412214756012      -0.004447638549
     -0.654455362435       0.412214756012       0.004447638549
     -0.654455362435       0.690982997417      -0.004447638549
     -0.654455362435       0.690982997417       0.004447638549
     -0.654455362435       1.000000000000      -0.004447638549
     -0.654455362435       1.000000000000       0.004447638549
     -0.654455362435       1.309016942980      -0.004447638549
     -0.654455362435       1.309016942980       0.004447638549
     -0.654455362435       1.587785243990      -0.004447638549
     -0.654455362435       1.587785243990       0.004447638549
     -0.654455362435       1.809016942980      -0.004447638549
     -0.654455362435       1.809016942980       0.004447638549
     -0.654455362435       1.951056480410      -0.004447638549
     -0.654455362435       1.951056480410       0.004447638549
     -0.654454841628       1.999869664633      -0.004456208818
     -0.654456379382       1.999851061830       0.004458753808
     -0.654456344798       2.002223895283      -0.003851724254
     -0.654456027013       2.002178333076       0.003879701613
     -0.654454379811       2.003851861509      -0.002223872877
     -0.654454379811       2.003851861509       0.002223872877
     -0.654456345592       2.004447555079      -0.000000000000
     -0.543846214027      -2.010002902760      -0.000000000000
     -0.543845712089      -2.008644368756      -0.005034992482
     -0.543845712089      -2.008644368756       0.005034992482
     -0.543846213950      -2.005001556783      -0.008662872724
     -0.543847465420      -2.005001539184       0.008662816656
     -0.543846588700      -1.999869600913      -0.010011544738
     -0.543846631509      -1.999869617056       0.010011540624
     -0.543846213890      -1.951056480410      -0.010003014528
     -0.543846213890      -1.951056480410       0.010003014528
     -0.543846213890      -1.809016942980      -0.010003014528
     -0.543846213890      -1.809016942980       0.010003014528
     -0.543846213890      -1.587785243990      -0.010003014528
     -0.543846213890      -1.587785243990       0.010003014528
     -0.543846213890      -1.309016942980      -0.010003014528
     -0.543846213890      -1.309016942980       0.010003014528
     -0.543846213890      -1.000000000000      -0.010003014528
     -0.543846213890      -1.000000000000       0.010003014528
     -0.543846213890      -0.690982997417      -0.010003014528
     -0.543846213890      -0.690982997417       0.010003014528
     -0.543846213890      -0.412214756012      -0.010003014528
     -0.543846213890      -0.412214756012       0.010003014528
     -0.543846213890      -0.190983012319      -0.010003014528
     -0.543846213890      -0.190983012319       0.010003014528
     -0.543846213890      -0.048943482339      -0.010003014528
     -0.543846213890      -0.048943482339       0.010003014528
     -0.543847465353       0.000000000000      -0.010002957173
     -0.543844962500       0.000000000000       0.010003073451
     -0.543846213890       0.048943482339      -0.010003014528
     -0.543846213890       0.048943482339       0.010003014528
     -0.543846213890       0.190983012319      -0.010003014528
     -0.543846213890       0.190983012319       0.010003014528
[...]
POINT_DATA                 529
SCALARS phi float 1
LOOKUP_TABLE default
                 NaN
                 NaN
                 NaN
                 NaN
                 NaN
                 NaN
                 NaN
                 NaN
                 NaN
                 NaN
                 NaN
                 NaN
                 NaN
                 NaN
                 NaN
                 NaN
                 NaN
                 NaN
                 NaN
                 NaN
                 NaN
                 NaN
                 NaN
                 NaN
                 NaN
                 NaN
                 NaN
                 NaN
                 NaN
                 NaN
                 NaN
                 NaN
                 NaN
                 NaN
                 NaN
                 NaN
                 NaN
                 NaN
                 NaN
                 NaN
                 NaN
                 NaN
                 NaN
                 NaN
                 NaN
                 NaN
                 NaN
                 NaN
                 NaN
                 NaN
                 NaN
                 NaN
                 NaN
                 NaN
                 NaN
                 NaN
                 NaN
                 NaN
                 NaN
                 NaN
                 NaN
                 NaN
                 NaN
                 NaN
                 NaN
                 NaN
                 NaN
                 NaN
                 NaN
                 NaN
                 NaN
                 NaN
                 NaN
                 NaN
                 NaN
                 NaN
                 NaN
                 NaN
                 NaN
                 NaN
                 NaN
                 NaN
                 NaN
                 NaN
                 NaN
                 NaN
                 NaN
                 NaN
                 NaN
                 NaN
                 NaN
                 NaN
                 NaN
                 NaN
                 NaN
                 NaN
                 NaN
                 NaN
                 NaN
                 NaN
                 NaN
                 NaN
                 NaN
                 NaN
                 NaN
                 NaN
                 NaN
                 NaN
                 NaN
                 NaN
                 NaN
                 NaN
                 NaN
                 NaN
                 NaN
                 NaN
                 NaN
                 NaN
                 NaN
                 NaN
                 NaN
                 NaN
                 NaN
                 NaN
                 NaN
                 NaN
                 NaN
                 NaN
                 NaN
                 NaN
                 NaN
                 NaN
                 NaN
                 NaN
                 NaN
                 NaN
                 NaN
                 NaN
                 NaN
                 NaN
                 NaN
                 NaN
                 NaN
                 NaN
                 NaN
                 NaN
                 NaN
                 NaN
                 NaN
                 NaN
                 NaN
                 NaN
                 NaN
                 NaN
                 NaN
                 NaN
                 NaN
                 NaN
                 NaN
                 NaN
                 NaN
                 NaN
                 NaN
                 NaN
                 NaN
                 NaN
                 NaN
                 NaN
                 NaN
                 NaN
                 NaN
                 NaN
                 NaN
                 NaN
                 NaN
                 NaN
                 NaN
                 NaN
                 NaN
                 NaN
                 NaN
                 NaN
                 NaN
                 NaN
                 NaN
                 NaN
                 NaN
                 NaN
                 NaN
                 NaN
                 NaN
                 NaN
                 NaN
                 NaN
                 NaN
                 NaN
                 NaN
                 NaN
                 NaN
                 NaN
                 NaN
                 NaN
                 NaN
                 NaN
                 NaN
                 NaN
                 NaN
                 NaN
                 NaN
                 NaN
                 NaN
                 NaN
                 NaN
                 NaN
                 NaN
                 NaN
                 NaN
                 NaN
                 NaN
                 NaN
                 NaN
                 NaN
                 NaN
                 NaN
                 NaN
                 NaN
                 NaN
                 NaN
                 NaN
                 NaN
                 NaN
                 NaN
                 NaN
                 NaN
                 NaN
                 NaN
                 NaN
                 NaN
                 NaN
                 NaN
                 NaN
                 NaN
                 NaN
                 NaN
                 NaN
                 NaN
                 NaN
                 NaN
                 NaN
                 NaN
                 NaN
                 NaN
                 NaN
                 NaN
                 NaN
                 NaN
                 NaN
                 NaN
                 NaN
                 NaN
                 NaN
                 NaN
                 NaN
                 NaN
                 NaN
                 NaN
                 NaN
                 NaN
                 NaN
                 NaN
                 NaN
                 NaN
                 NaN
                 NaN
                 NaN
                 NaN
                 NaN
                 NaN
                 NaN
                 NaN
                 NaN
                 NaN
                 NaN
                 NaN
                 NaN
                 NaN
                 NaN
                 NaN
                 NaN
                 NaN
                 NaN
                 NaN
                 NaN
                 NaN
                 NaN
                 NaN
                 NaN
                 NaN
                 NaN
                 NaN
                 NaN
                 NaN
                 NaN
                 NaN
                 NaN
                 NaN
                 NaN
                 NaN
                 NaN
                 NaN
                 NaN
                 NaN
                 NaN
                 NaN
                 NaN
                 NaN
                 NaN
                 NaN
                 NaN
                 NaN
                 NaN
                 NaN
                 NaN
                 NaN
                 NaN
                 NaN
                 NaN
                 NaN
                 NaN
                 NaN
                 NaN
                 NaN
                 NaN
                 NaN
                 NaN
                 NaN
                 NaN
                 NaN
                 NaN
                 NaN
                 NaN
                 NaN
                 NaN
                 NaN
                 NaN
                 NaN
                 NaN
                 NaN
                 NaN
                 NaN
                 NaN
                 NaN
                 NaN
                 NaN
                 NaN
                 NaN
                 NaN
                 NaN
                 NaN
                 NaN
                 NaN
                 NaN
                 NaN
                 NaN
                 NaN
                 NaN
                 NaN
                 NaN
                 NaN
                 NaN
                 NaN
                 NaN
                 NaN
                 NaN
                 NaN
                 NaN
                 NaN
                 NaN
                 NaN
                 NaN
                 NaN
                 NaN
                 NaN
                 NaN
                 NaN
                 NaN
                 NaN
                 NaN
                 NaN
                 NaN
                 NaN
                 NaN
                 NaN
                 NaN
                 NaN
                 NaN
                 NaN
                 NaN
                 NaN
                 NaN
                 NaN
                 NaN
                 NaN
                 NaN
                 NaN
                 NaN
                 NaN
                 NaN
                 NaN
                 NaN
                 NaN
                 NaN
                 NaN
                 NaN
                 NaN
                 NaN
                 NaN
                 NaN
                 NaN
                 NaN
                 NaN
                 NaN
                 NaN
                 NaN
                 NaN
                 NaN
                 NaN
                 NaN
                 NaN
                 NaN
                 NaN
                 NaN
                 NaN
                 NaN
                 NaN
                 NaN
                 NaN
                 NaN
                 NaN
                 NaN
                 NaN
                 NaN
                 NaN
                 NaN
                 NaN
                 NaN
                 NaN
                 NaN
                 NaN
                 NaN
                 NaN
                 NaN
                 NaN
                 NaN
                 NaN
                 NaN
                 NaN
                 NaN
                 NaN
                 NaN
                 NaN
                 NaN
                 NaN
                 NaN
                 NaN
                 NaN
                 NaN
                 NaN
                 NaN
                 NaN
                 NaN
                 NaN
                 NaN
                 NaN
                 NaN
                 NaN
                 NaN
                 NaN
                 NaN
                 NaN
                 NaN
                 NaN
                 NaN
                 NaN
                 NaN
                 NaN
                 NaN
                 NaN
                 NaN
                 NaN
                 NaN
                 NaN
                 NaN
                 NaN
                 NaN
                 NaN
                 NaN
                 NaN
                 NaN
                 NaN
                 NaN
                 NaN
                 NaN
                 NaN
                 NaN
                 NaN
                 NaN
                 NaN
                 NaN
                 NaN
                 NaN
                 NaN
                 NaN
                 NaN
                 NaN
                 NaN
                 NaN
                 NaN
                 NaN
                 NaN
                 NaN
                 NaN
                 NaN
                 NaN
                 NaN
                 NaN
                 NaN
                 NaN
                 NaN
