# vtk DataFile Version 3.0
TriPan results file. Generated by TriPan, USU AeroLab (c) 2021.
ASCII
DATASET POLYDATA
POINTS                  12 float
      4.000000000000      1.799999952320      0.000000000000
    100.000000000000      1.799999952320      0.000000000000
      4.000000000000      0.000000000000      0.000000000000
    100.000000000000      0.000000000000      0.000000000000
      4.000000000000      3.599999904630      0.000000000000
    100.000000000000      3.599999904630      0.000000000000
      4.000000000000      5.400000095370      0.000000000000
    100.000000000000      5.400000095370      0.000000000000
      4.000000000000      7.199999809270      0.000000000000
    100.000000000000      7.199999809270      0.000000000000
      4.000000000000      9.000000000000      0.000000000000
    100.000000000000      9.000000000000      0.000000000000
POLYGONS                  10                  40
3                   0                   1                   3
3                   0                   3                   2
3                   4                   5                   1
3                   4                   1                   0
3                   6                   7                   5
3                   6                   5                   4
3                   8                   9                   7
3                   8                   7                   6
3                  10                  11                   9
3                  10                   9                   8
POINT_DATA                  12
SCALARS mu float 1
LOOKUP_TABLE default
      0.001327809944
      0.001327809944
      0.001437537133
      0.001437537133
      0.001089963346
      0.001089963346
      0.000782703791
      0.000782703791
      0.000424512347
      0.000424512347
      0.000000000000
      0.000000000000
