# vtk DataFile Version 3.0
TriPan results file. Generated by TriPan, USU AeroLab (c) 2021.
ASCII
DATASET POLYDATA
POINTS                 242 float
  0.000000000000E+00  0.000000000000E+00  0.000000000000E+00
  0.000000000000E+00  0.179999995232E+01  0.000000000000E+00
  0.000000000000E+00  0.359999990463E+01  0.000000000000E+00
  0.000000000000E+00  0.540000009537E+01  0.000000000000E+00
  0.000000000000E+00  0.719999980927E+01  0.000000000000E+00
  0.000000000000E+00  0.900000000000E+01  0.000000000000E+00
  0.744162946939E-01  0.000000000000E+00  0.744162919000E-02
  0.746868997812E-01  0.179999995232E+01  0.746868969873E-02
  0.749575048685E-01  0.359999990463E+01  0.749575020745E-02
  0.752281099558E-01  0.540000009537E+01  0.752281071618E-02
  0.754987150431E-01  0.719999980927E+01  0.754987122491E-02
  0.757693201303E-01  0.000000000000E+00 -0.757693173364E-02
  0.757693201303E-01  0.179999995232E+01 -0.757693173364E-02
  0.757693201303E-01  0.359999990463E+01 -0.757693173364E-02
  0.757693201303E-01  0.540000009537E+01 -0.757693173364E-02
  0.757693201303E-01  0.719999980927E+01 -0.757693173364E-02
  0.757693201303E-01  0.900000000000E+01 -0.757693173364E-02
  0.757693201303E-01  0.900000000000E+01  0.757693173364E-02
  0.757697224617E-01  0.900378799438E+01 -0.568265793845E-02
  0.757705420256E-01  0.900378799438E+01  0.568282138556E-02
  0.757709518075E-01  0.900757694244E+01  0.163249438856E-06
  0.181352928281E+00  0.000000000000E+00  0.181352943182E-01
  0.182012394071E+00  0.179999995232E+01  0.182012394071E-01
  0.182671859860E+00  0.359999990463E+01  0.182671863586E-01
  0.183331325650E+00  0.540000009537E+01  0.183331333101E-01
  0.183990791440E+00  0.719999980927E+01  0.183990802616E-01
  0.184650257230E+00  0.000000000000E+00 -0.184650253505E-01
  0.184650257230E+00  0.179999995232E+01 -0.184650253505E-01
  0.184650257230E+00  0.359999990463E+01 -0.184650253505E-01
  0.184650257230E+00  0.540000009537E+01 -0.184650253505E-01
  0.184650257230E+00  0.719999980927E+01 -0.184650253505E-01
  0.184650257230E+00  0.900000000000E+01 -0.184650253505E-01
  0.184650257230E+00  0.900000000000E+01  0.184650253505E-01
  0.184651583433E+00  0.900923252106E+01 -0.138486372307E-01
  0.184654235840E+00  0.900923252106E+01  0.138491680846E-01
  0.184655562043E+00  0.901846504211E+01  0.530808620169E-06
  0.331838786602E+00  0.000000000000E+00  0.331838801503E-01
  0.333045482635E+00  0.179999995232E+01  0.333045460284E-01
  0.334252148867E+00  0.359999990463E+01  0.334252156317E-01
  0.335458844900E+00  0.540000009537E+01  0.335458852351E-01
  0.336665540934E+00  0.719999980927E+01  0.336665548384E-01
  0.337872207165E+00  0.000000000000E+00 -0.337872207165E-01
  0.337872207165E+00  0.179999995232E+01 -0.337872207165E-01
  0.337872207165E+00  0.359999990463E+01 -0.337872207165E-01
  0.337872207165E+00  0.540000009537E+01 -0.337872207165E-01
  0.337872207165E+00  0.719999980927E+01 -0.337872207165E-01
  0.337872207165E+00  0.900000000000E+01 -0.337872207165E-01
  0.337872207165E+00  0.900000000000E+01  0.337872207165E-01
  0.337875515223E+00  0.901689338684E+01 -0.253400877118E-01
  0.337882071733E+00  0.901689338684E+01  0.253414008766E-01
  0.337885349989E+00  0.903378677368E+01  0.131366152800E-05
  0.537488281727E+00  0.000000000000E+00  0.537488274276E-01
  0.539442777634E+00  0.179999995232E+01  0.539442785084E-01
  0.541397273540E+00  0.359999990463E+01  0.541397295892E-01
  0.543351769447E+00  0.540000009537E+01  0.543351806700E-01
  0.545306265354E+00  0.719999980927E+01  0.545306280255E-01
  0.547260820866E+00  0.000000000000E+00 -0.547260791063E-01
  0.547260820866E+00  0.179999995232E+01 -0.547260791063E-01
  0.547260820866E+00  0.359999990463E+01 -0.547260791063E-01
  0.547260820866E+00  0.540000009537E+01 -0.547260791063E-01
  0.547260820866E+00  0.719999980927E+01 -0.547260791063E-01
  0.547260820866E+00  0.900000000000E+01 -0.547260791063E-01
  0.547260820866E+00  0.900000000000E+01  0.547260791063E-01
  0.547268390656E+00  0.902736282349E+01 -0.410438030958E-01
  0.547283530235E+00  0.902736282349E+01  0.410468317568E-01
  0.547291100025E+00  0.905472564697E+01  0.302831858789E-05
  0.807539045811E+00  0.000000000000E+00  0.807539075613E-01
  0.810475587845E+00  0.179999995232E+01  0.810475572944E-01
  0.813412070274E+00  0.359999990463E+01  0.813412070274E-01
  0.816348552704E+00  0.540000009537E+01  0.816348567605E-01
  0.819285094738E+00  0.719999980927E+01  0.819285064936E-01
  0.822221577168E+00  0.000000000000E+00 -0.822221562266E-01
  0.822221577168E+00  0.179999995232E+01 -0.822221562266E-01
  0.822221577168E+00  0.359999990463E+01 -0.822221562266E-01
  0.822221577168E+00  0.540000009537E+01 -0.822221562266E-01
  0.822221577168E+00  0.719999980927E+01 -0.822221562266E-01
  0.822221577168E+00  0.900000000000E+01 -0.822221562266E-01
  0.822221577168E+00  0.900000000000E+01  0.822221562266E-01
  0.822238802910E+00  0.904111099243E+01 -0.616648979485E-01
  0.822273254395E+00  0.904111099243E+01  0.616717860103E-01
  0.822290480137E+00  0.908222198486E+01  0.689090529704E-05
  0.114417910576E+01  0.000000000000E+00  0.114417918026E+00
  0.114833974838E+01  0.179999995232E+01  0.114833980799E+00
  0.115250039101E+01  0.359999990463E+01  0.115250043571E+00
  0.115666115284E+01  0.540000009537E+01  0.115666113794E+00
  0.116082179546E+01  0.719999980927E+01  0.116082176566E+00
  0.116498243809E+01  0.000000000000E+00 -0.116498239338E+00
  0.116498243809E+01  0.179999995232E+01 -0.116498239338E+00
  0.116498243809E+01  0.359999990463E+01 -0.116498239338E+00
  0.116498243809E+01  0.540000009537E+01 -0.116498239338E+00
  0.116498243809E+01  0.719999980927E+01 -0.116498239338E+00
  0.116498243809E+01  0.900000000000E+01 -0.116498239338E+00
  0.116498243809E+01  0.900000000000E+01  0.116498239338E+00
  0.116501641273E+01  0.905824947357E+01 -0.873702764511E-01
  0.116508460045E+01  0.905824947357E+01  0.873839035630E-01
  0.116511869431E+01  0.911649799347E+01  0.136267226480E-04
  0.153763222694E+01  0.000000000000E+00  0.153763219714E+00
  0.154322361946E+01  0.179999995232E+01  0.154322355986E+00
  0.154881501198E+01  0.359999990463E+01  0.154881492257E+00
  0.155440640450E+01  0.540000009537E+01  0.155440628529E+00
  0.155999779701E+01  0.719999980927E+01  0.155999779701E+00
  0.156558918953E+01  0.000000000000E+00 -0.156558915973E+00
  0.156558918953E+01  0.179999995232E+01 -0.156558915973E+00
  0.156558918953E+01  0.359999990463E+01 -0.156558915973E+00
  0.156558918953E+01  0.540000009537E+01 -0.156558915973E+00
  0.156558918953E+01  0.719999980927E+01 -0.156558915973E+00
  0.156558918953E+01  0.900000000000E+01 -0.156558915973E+00
  0.156558918953E+01  0.900000000000E+01  0.156558915973E+00
  0.156565010548E+01  0.907827949524E+01 -0.117413096130E+00
  0.156577193737E+01  0.907827949524E+01  0.117437466979E+00
  0.156583285332E+01  0.915655899048E+01  0.243710874201E-04
  0.196428573132E+01  0.000000000000E+00  0.196428567171E+00
  0.197142851353E+01  0.179999995232E+01  0.197142854333E+00
  0.197857141495E+01  0.359999990463E+01  0.197857141495E+00
  0.198571431637E+01  0.540000009537E+01  0.198571428657E+00
  0.199285709858E+01  0.719999980927E+01  0.199285715818E+00
  0.200000000000E+01  0.000000000000E+00 -0.200000002980E+00
  0.200000000000E+01  0.179999995232E+01 -0.200000002980E+00
  0.200000000000E+01  0.359999990463E+01 -0.200000002980E+00
  0.200000000000E+01  0.540000009537E+01 -0.200000002980E+00
  0.200000000000E+01  0.719999980927E+01 -0.200000002980E+00
  0.200000000000E+01  0.900000000000E+01 -0.200000002980E+00
  0.200000000000E+01  0.900000000000E+01  0.200000002980E+00
  0.200009918213E+01  0.909999942780E+01 -0.149990081787E+00
  0.200029754639E+01  0.909999942780E+01  0.150029763579E+00
  0.200039672852E+01  0.919999885559E+01  0.396822251787E-04
  0.240541839600E+01  0.000000000000E+00  0.159458145499E+00
  0.241121697426E+01  0.179999995232E+01  0.158878311515E+00
  0.241701531410E+01  0.359999990463E+01  0.158298462629E+00
  0.242281389236E+01  0.540000009537E+01  0.157718613744E+00
  0.242861247063E+01  0.719999980927E+01  0.157138764858E+00
  0.243441081047E+01  0.000000000000E+00 -0.156558915973E+00
  0.243441081047E+01  0.179999995232E+01 -0.156558915973E+00
  0.243441081047E+01  0.359999990463E+01 -0.156558915973E+00
  0.243441081047E+01  0.540000009537E+01 -0.156558915973E+00
  0.243441081047E+01  0.719999980927E+01 -0.156558915973E+00
  0.243441081047E+01  0.900000000000E+01 -0.156558915973E+00
  0.243441081047E+01  0.900000000000E+01  0.156558915973E+00
  0.243447422981E+01  0.907827949524E+01 -0.117425508797E+00
  0.243460059166E+01  0.907827949524E+01  0.117400206625E+00
  0.243466401100E+01  0.915655803680E+01 -0.253061607509E-04
  0.281344389915E+01  0.000000000000E+00  0.118655614555E+00
  0.281775856018E+01  0.179999995232E+01  0.118224143982E+00
  0.282207345963E+01  0.359999990463E+01  0.117792665958E+00
  0.282638812065E+01  0.540000009537E+01  0.117361187935E+00
  0.283070278168E+01  0.719999980927E+01  0.116929717362E+00
  0.283501768112E+01  0.000000000000E+00 -0.116498239338E+00
  0.283501768112E+01  0.179999995232E+01 -0.116498239338E+00
  0.283501768112E+01  0.359999990463E+01 -0.116498239338E+00
  0.283501768112E+01  0.540000009537E+01 -0.116498239338E+00
  0.283501768112E+01  0.719999980927E+01 -0.116498239338E+00
  0.283501768112E+01  0.900000000000E+01 -0.116498239338E+00
  0.283501768112E+01  0.900000000000E+01  0.116498239338E+00
  0.283505296707E+01  0.905824947357E+01 -0.873772129416E-01
  0.283512353897E+01  0.905824851990E+01  0.873630791903E-01
  0.283515906334E+01  0.911649799347E+01 -0.141368718687E-04
  0.316255211830E+01  0.000000000000E+00  0.837447941303E-01
  0.316559743881E+01  0.179999995232E+01  0.834402665496E-01
  0.316864252090E+01  0.359999990463E+01  0.831357389688E-01
  0.317168784142E+01  0.540000009537E+01  0.828312113881E-01
  0.317473316193E+01  0.719999980927E+01  0.825266838074E-01
[...]
CELL_DATA                 440
SCALARS sigma float 1
LOOKUP_TABLE default
 -0.496896462674E-01
 -0.496896462674E-01
 -0.496899476115E-01
 -0.496899476115E-01
 -0.496897018976E-01
 -0.496897018976E-01
 -0.496898282742E-01
 -0.496898282742E-01
 -0.496897914094E-01
 -0.496897914094E-01
 -0.496897946453E-01
 -0.496897946453E-01
 -0.496897603038E-01
 -0.496897603038E-01
 -0.496897996167E-01
 -0.496897996167E-01
  0.149069371581E+00
  0.149069371581E+00
  0.149069361793E+00
  0.149069361793E+00
  0.149069349635E+00
  0.149069349635E+00
  0.149069363455E+00
  0.149069363455E+00
  0.149069344214E+00
  0.149069344214E+00
  0.149069360529E+00
  0.149069360529E+00
  0.149069357312E+00
  0.149069357312E+00
  0.149069354539E+00
  0.149069354539E+00
  0.496897823504E-01
  0.496897823370E-01
  0.496897886239E-01
  0.496898024127E-01
  0.496897714155E-01
  0.496897860496E-01
  0.496898003277E-01
  0.496897753016E-01
  0.496897778948E-01
  0.496897996910E-01
  0.496898078578E-01
  0.496897991796E-01
  0.496897561968E-01
  0.496897598356E-01
  0.496898066952E-01
  0.496897791404E-01
 -0.133174087949E+00
 -0.136320749792E+00
 -0.149069311669E+00
 -0.149069379681E+00
 -0.149069353970E+00
 -0.149069328791E+00
 -0.149069365961E+00
 -0.149069415659E+00
 -0.149069371831E+00
 -0.149069282629E+00
 -0.149069428258E+00
 -0.149069405059E+00
 -0.149069323623E+00
 -0.149069448923E+00
 -0.149069275439E+00
 -0.149069265654E+00
 -0.496896462674E-01
 -0.496896462674E-01
 -0.496899476115E-01
 -0.496899476115E-01
 -0.496897018976E-01
 -0.496897018976E-01
 -0.496898282742E-01
 -0.496898282742E-01
 -0.496897914094E-01
 -0.496897914094E-01
 -0.496897946453E-01
 -0.496897946453E-01
 -0.496897603038E-01
 -0.496897603038E-01
 -0.496897996167E-01
 -0.496897996167E-01
  0.149069371581E+00
  0.149069371581E+00
  0.149069361793E+00
  0.149069361793E+00
  0.149069349635E+00
  0.149069349635E+00
  0.149069363455E+00
  0.149069363455E+00
  0.149069344214E+00
  0.149069344214E+00
  0.149069360529E+00
  0.149069360529E+00
  0.149069357312E+00
  0.149069357312E+00
  0.149069354539E+00
  0.149069354539E+00
  0.496897823637E-01
  0.496897823504E-01
  0.496897920353E-01
  0.496897886239E-01
  0.496897884791E-01
  0.496897714155E-01
  0.496897931636E-01
  0.496898003277E-01
  0.496897779238E-01
  0.496897778948E-01
  0.496897990854E-01
  0.496898078578E-01
  0.496897525868E-01
  0.496897561968E-01
  0.496898066230E-01
  0.496898066952E-01
 -0.136320712656E+00
 -0.139483636190E+00
 -0.149069379681E+00
 -0.149069314928E+00
 -0.149069328791E+00
 -0.149069417083E+00
 -0.149069415659E+00
 -0.149069297800E+00
 -0.149069282629E+00
 -0.149069413278E+00
 -0.149069405059E+00
 -0.149069381691E+00
 -0.149069448923E+00
 -0.149069363113E+00
 -0.149069265654E+00
 -0.149069255797E+00
 -0.496896462674E-01
 -0.496896462674E-01
 -0.496899476115E-01
 -0.496899476115E-01
 -0.496897018976E-01
 -0.496897018976E-01
 -0.496898282742E-01
 -0.496898282742E-01
 -0.496897914094E-01
 -0.496897914094E-01
 -0.496897946453E-01
 -0.496897946453E-01
 -0.496897603038E-01
 -0.496897603038E-01
 -0.496897996167E-01
 -0.496897996167E-01
  0.149069371581E+00
  0.149069371581E+00
  0.149069361793E+00
  0.149069361793E+00
  0.149069349635E+00
  0.149069349635E+00
  0.149069363455E+00
  0.149069363455E+00
  0.149069344214E+00
  0.149069344214E+00
  0.149069360529E+00
  0.149069360529E+00
  0.149069357312E+00
  0.149069357312E+00
  0.149069354539E+00
  0.149069354539E+00
  0.496897823769E-01
  0.496897823637E-01
  0.496897954213E-01
  0.496897920353E-01
  0.496897860496E-01
  0.496897884791E-01
  0.496898002254E-01
  0.496897931636E-01
  0.496897779531E-01
  0.496897779238E-01
  0.496897773901E-01
  0.496897990854E-01
  0.496897601160E-01
  0.496897525868E-01
  0.496898065490E-01
  0.496898066230E-01
 -0.139483596839E+00
 -0.142662658341E+00
 -0.149069314928E+00
 -0.149069365378E+00
 -0.149069417083E+00
 -0.149069370823E+00
 -0.149069297800E+00
 -0.149069347617E+00
 -0.149069413278E+00
 -0.149069340857E+00
 -0.149069381691E+00
 -0.149069334522E+00
 -0.149069363113E+00
 -0.149069493645E+00
 -0.149069255797E+00
 -0.149069239894E+00
 -0.496896462674E-01
 -0.496896462674E-01
 -0.496899476115E-01
 -0.496899476115E-01
 -0.496897018976E-01
 -0.496897018976E-01
 -0.496898282742E-01
 -0.496898282742E-01
 -0.496897914094E-01
 -0.496897914094E-01
 -0.496897946453E-01
 -0.496897946453E-01
 -0.496897603038E-01
 -0.496897603038E-01
 -0.496897996167E-01
 -0.496897996167E-01
  0.149069371581E+00
  0.149069371581E+00
  0.149069361793E+00
  0.149069361793E+00
  0.149069349635E+00
  0.149069349635E+00
  0.149069363455E+00
  0.149069363455E+00
  0.149069344214E+00
  0.149069344214E+00
  0.149069360529E+00
  0.149069360529E+00
  0.149069357312E+00
  0.149069357312E+00
  0.149069354539E+00
  0.149069354539E+00
  0.496897823901E-01
  0.496897823769E-01
  0.496897987829E-01
  0.496897954213E-01
  0.496897836363E-01
  0.496897860496E-01
  0.496897895811E-01
  0.496898002254E-01
  0.496897699149E-01
  0.496897779531E-01
  0.496897860502E-01
  0.496897773901E-01
  0.496897934320E-01
  0.496897601160E-01
  0.496897996654E-01
  0.496898065490E-01
 -0.142662616695E+00
 -0.145857861092E+00
 -0.149069365378E+00
 -0.149069398059E+00
 -0.149069370823E+00
 -0.149069345427E+00
 -0.149069347617E+00
 -0.149069397796E+00
 -0.149069340857E+00
 -0.149069250553E+00
 -0.149069334522E+00
 -0.149069474358E+00
 -0.149069493645E+00
 -0.149069390690E+00
 -0.149069239894E+00
 -0.149069229857E+00
 -0.496896462674E-01
 -0.496896462674E-01
 -0.496899476115E-01
 -0.496899476115E-01
 -0.496897018976E-01
 -0.496897018976E-01
 -0.496898282742E-01
 -0.496898282742E-01
 -0.496897914094E-01
 -0.496897914094E-01
 -0.496897946453E-01
 -0.496897946453E-01
 -0.496897603038E-01
 -0.496897603038E-01
 -0.496897996167E-01
 -0.496897996167E-01
  0.149069371581E+00
  0.149069371581E+00
  0.149069361793E+00
  0.149069361793E+00
  0.149069349635E+00
  0.149069349635E+00
  0.149069363455E+00
  0.149069363455E+00
  0.149069344214E+00
  0.149069344214E+00
  0.149069360529E+00
  0.149069360529E+00
  0.149069357312E+00
  0.149069357312E+00
  0.149069354539E+00
  0.149069354539E+00
  0.496897824033E-01
  0.496897823901E-01
  0.496897852040E-01
  0.496897987829E-01
  0.496897884537E-01
  0.496897836363E-01
  0.496897719746E-01
  0.496897895811E-01
  0.496897914087E-01
  0.496897699149E-01
  0.496897774499E-01
  0.496897860502E-01
  0.496897897301E-01
  0.496897934320E-01
  0.496897996167E-01
  0.496897996654E-01
 -0.145857817068E+00
 -0.149069371581E+00
 -0.149069398059E+00
 -0.149069332659E+00
 -0.149069345427E+00
 -0.149069366659E+00
 -0.149069397796E+00
 -0.149069363455E+00
 -0.149069250553E+00
 -0.149069399953E+00
 -0.149069474358E+00
 -0.149069274834E+00
 -0.149069390690E+00
 -0.149069518103E+00
 -0.149069229857E+00
 -0.149069219758E+00
 -0.444871570341E-01
 -0.444924482837E-01
 -0.444886067159E-01
 -0.444888815092E-01
 -0.444884759359E-01
 -0.444909585675E-01
 -0.444889503516E-01
 -0.444931120111E-01
 -0.444894761233E-01
 -0.444953459151E-01
 -0.444901666231E-01
 -0.444966717199E-01
 -0.444908020010E-01
 -0.444571914588E-01
 -0.444879261999E-01
  0.133453247514E+00
  0.133446395981E+00
  0.133455668258E+00
  0.133450716607E+00
  0.133457864994E+00
  0.133455073520E+00
  0.133459410699E+00
  0.133457408622E+00
  0.133460744652E+00
  0.133459899635E+00
  0.133461482094E+00
  0.133460716249E+00
  0.133462401776E+00
  0.133463598641E+00
  0.133459461957E+00
  0.444868649420E-01
  0.444915801394E-01
  0.444879746489E-01
  0.444872675230E-01
  0.444878492708E-01
  0.444881573781E-01
  0.444878837230E-01
  0.444882825564E-01
  0.444879519607E-01
  0.444885699798E-01
  0.444880133688E-01
  0.444875278715E-01
  0.444879737505E-01
  0.444873490911E-01
  0.444879277772E-01
 -0.133495268798E+00
 -0.133583775253E+00
 -0.133463883423E+00
 -0.133464549934E+00
 -0.133463616991E+00
 -0.133463213418E+00
 -0.133463835681E+00
 -0.133464054570E+00
 -0.133463720784E+00
 -0.133463838914E+00
 -0.133463507408E+00
 -0.133463242197E+00
 -0.133464045283E+00
 -0.133465289259E+00
 -0.133460725165E+00
 -0.552050148883E-01
 -0.552069639575E-01
 -0.552145675838E-01
 -0.552113017064E-01
 -0.552103082069E-01
 -0.552179999689E-01
 -0.552126181437E-01
 -0.552246653680E-01
 -0.552146470464E-01
 -0.552283858190E-01
 -0.552171838828E-01
 -0.552340036366E-01
 -0.552176935954E-01
 -0.551370605637E-01
 -0.551948137258E-01
  0.110389366975E+00
  0.110371971063E+00
  0.110396667816E+00
  0.110385914898E+00
  0.110403840999E+00
  0.110394303596E+00
  0.110408271845E+00
  0.110402531171E+00
  0.110412185483E+00
  0.110409589307E+00
  0.110413208319E+00
  0.110411021424E+00
  0.110420045143E+00
  0.110415039974E+00
  0.110416777089E+00
  0.552040543214E-01
  0.552036515119E-01
  0.552129834789E-01
  0.552063030964E-01
  0.552077844143E-01
  0.552087059483E-01
  0.552084245721E-01
  0.552077193697E-01
  0.552075820500E-01
  0.552051597241E-01
  0.552071410372E-01
  0.552046600334E-01
  0.552039342736E-01
  0.551991821592E-01
  0.552017504181E-01
 -0.110506249488E+00
 -0.110528452556E+00
 -0.110427630039E+00
 -0.110426230881E+00
 -0.110423937857E+00
 -0.110425412984E+00
 -0.110423842597E+00
 -0.110424797084E+00
 -0.110421889382E+00
 -0.110422500408E+00
 -0.110419669660E+00
 -0.110418925459E+00
 -0.110424592504E+00
 -0.110420441186E+00
 -0.110419886884E+00
SCALARS C_p float 1
LOOKUP_TABLE default
 -0.273840036279E+00
 -0.275659675495E+00
 -0.148468074634E+00
 -0.150246452183E+00
 -0.102583013680E+00
 -0.103802375915E+00
 -0.917982265635E-01
 -0.927051891065E-01
 -0.989160221974E-01
 -0.996075307999E-01
 -0.121848676614E+00
 -0.122361042000E+00
 -0.171265771149E+00
 -0.171802540209E+00
 -0.366919351988E+00
 -0.366969420872E+00
 -0.335823512232E+00
 -0.335515424031E+00
 -0.878803714268E-01
 -0.878104550706E-01
  0.102140867826E-01
  0.100830939997E-01
  0.886509214382E-01
  0.883432090892E-01
  0.164899596418E+00
  0.164396605770E+00
  0.251512270992E+00
  0.250770712689E+00
  0.369739429710E+00
  0.368645679988E+00
  0.592925986006E+00
  0.591346138791E+00
 -0.277857203121E+00
 -0.281231196963E+00
 -0.150450653409E+00
 -0.152642414508E+00
 -0.103625152592E+00
 -0.105047074296E+00
 -0.923113901298E-01
 -0.932966458532E-01
 -0.989981891553E-01
 -0.996615184725E-01
 -0.121430220859E+00
 -0.121788520876E+00
 -0.168729087186E+00
 -0.168645327255E+00
 -0.356827227152E+00
 -0.354330546057E+00
 -0.339937598556E+00
 -0.338467428137E+00
 -0.104377254457E+00
 -0.101078158100E+00
  0.415595975357E-02
  0.518536561846E-02
  0.843511578396E-01
  0.848559179084E-01
  0.161249000490E+00
  0.161429339628E+00
  0.248001292098E+00
  0.247910614349E+00
  0.365953747347E+00
  0.365552106267E+00
  0.588344803963E+00
  0.587581266882E+00
 -0.262800042738E+00
 -0.272663235981E+00
 -0.141827378091E+00
 -0.148468072526E+00
 -0.980039196197E-01
 -0.102583055116E+00
 -0.883717328755E-01
 -0.917983802881E-01
 -0.962854851110E-01
 -0.989163577274E-01
 -0.119846803511E+00
 -0.121849244871E+00
 -0.169558701001E+00
 -0.171266625834E+00
 -0.365967295121E+00
 -0.366920378282E+00
 -0.335516429834E+00
 -0.334583264714E+00
 -0.878116706838E-01
 -0.876657761798E-01
  0.100818350047E-01
  0.954658095533E-02
  0.883420531098E-01
  0.871290391459E-01
  0.164395640257E+00
  0.162434265909E+00
  0.250769968970E+00
  0.247900756791E+00
  0.368645152173E+00
  0.364478543523E+00
  0.591345808744E+00
  0.585220891815E+00
 -0.265697886027E+00
 -0.277857217486E+00
 -0.143291890049E+00
 -0.150450652677E+00
 -0.987638847208E-01
 -0.103625203059E+00
 -0.887372932214E-01
 -0.923115620860E-01
 -0.963288028699E-01
 -0.989985547233E-01
 -0.119513281590E+00
 -0.121430835250E+00
 -0.167618442856E+00
 -0.168729957268E+00
 -0.358379650576E+00
 -0.356828106302E+00
 -0.338468254178E+00
 -0.336890467163E+00
 -0.101078660587E+00
 -0.975975426119E-01
  0.518439585397E-02
  0.588520704737E-02
  0.848549350521E-01
  0.845245768707E-01
  0.161428484248E+00
  0.160218159984E+00
  0.247909943609E+00
  0.245762485080E+00
  0.365551628440E+00
  0.362156544883E+00
  0.587580971800E+00
  0.582354224169E+00
 -0.232006087418E+00
 -0.261652129915E+00
 -0.124078046765E+00
 -0.141827350301E+00
 -0.858342323606E-01
 -0.980042105402E-01
 -0.793487079053E-01
 -0.883727861002E-01
 -0.894115639733E-01
 -0.962877345377E-01
 -0.114581446553E+00
 -0.119850569983E+00
 -0.165286876168E+00
 -0.169564212471E+00
 -0.362775749154E+00
 -0.365974253906E+00
 -0.334589812522E+00
 -0.331952258903E+00
 -0.876739183467E-01
 -0.870670710325E-01
  0.953791684172E-02
  0.828539562708E-02
  0.871209118328E-01
  0.839169308485E-01
  0.162427391323E+00
  0.157077324533E+00
  0.247895423979E+00
  0.239984895703E+00
  0.364474736574E+00
  0.352995603452E+00
  0.585218475127E+00
  0.568305339505E+00
 -0.233697429863E+00
 -0.265697942813E+00
 -0.124972991449E+00
 -0.143291866691E+00
 -0.862791363355E-01
 -0.987641984380E-01
 -0.795435014027E-01
 -0.887383898023E-01
 -0.893996567066E-01
 -0.963311194057E-01
 -0.114322718777E+00
 -0.119517142491E+00
 -0.163954860557E+00
 -0.167623928961E+00
 -0.357684425684E+00
 -0.358386143707E+00
 -0.336896556677E+00
 -0.333625174013E+00
 -0.976035342264E-01
 -0.936416065429E-01
  0.587735371068E-02
  0.588093834012E-02
  0.845169288506E-01
  0.822179530231E-01
  0.160211587072E+00
  0.155638381970E+00
  0.245757350369E+00
  0.238599669027E+00
  0.362152873173E+00
  0.351486190558E+00
  0.582351902993E+00
  0.566390668244E+00
 -0.140716857031E+00
 -0.230941007444E+00
 -0.724183750041E-01
 -0.124077839012E+00
 -0.509649426188E-01
 -0.858360504962E-01
 -0.541056282252E-01
 -0.793561327936E-01
 -0.706829129971E-01
 -0.894277880841E-01
 -0.100590784452E+00
 -0.114608579852E+00
 -0.154580034359E+00
 -0.165325658733E+00
 -0.352865288647E+00
 -0.362827173447E+00
 -0.332000302835E+00
 -0.322813393091E+00
 -0.871303420280E-01
 -0.835794151633E-01
  0.821470242910E-02
  0.686940947242E-02
  0.838470440316E-01
  0.766677022954E-01
  0.157015468733E+00
  0.143037332544E+00
  0.239935119597E+00
  0.217640985273E+00
  0.352959020827E+00
  0.319057855518E+00
  0.568281530008E+00
  0.516381218407E+00
 -0.141233751884E+00
 -0.233698817945E+00
 -0.727395251466E-01
 -0.124972786532E+00
 -0.510985645437E-01
 -0.862810021886E-01
 -0.541383805039E-01
 -0.795510196739E-01
 -0.706292394809E-01
 -0.894160217755E-01
 -0.100423445268E+00
 -0.114350043979E+00
 -0.153883024778E+00
 -0.163993485001E+00
 -0.350264484272E+00
 -0.357734704824E+00
 -0.333671836847E+00
 -0.323843498963E+00
 -0.936985093686E-01
 -0.867649408972E-01
  0.581264258412E-02
  0.573926664201E-02
  0.821494863812E-01
  0.758845019571E-01
  0.155577418989E+00
  0.142383326345E+00
  0.238550479771E+00
  0.217018434461E+00
  0.351450010773E+00
  0.318378250357E+00
  0.566367146406E+00
  0.515460683838E+00
  0.938238932189E-01
 -0.140085886717E+00
  0.421916703108E-01
 -0.725341566416E-01
  0.161964150763E-01
 -0.510293150922E-01
 -0.585133516101E-02
 -0.541312730275E-01
 -0.276316123065E-01
 -0.706792481480E-01
 -0.527411229984E-01
 -0.100579220066E+00
 -0.888737156248E-01
 -0.154637641432E+00
 -0.221365545872E+00
 -0.353370015333E+00
 -0.323287855023E+00
 -0.183702415211E+00
 -0.849922694056E-01
 -0.303698557752E-01
  0.495467393637E-02
  0.169527777405E-01
  0.746377385229E-01
  0.498089580204E-01
  0.141171380299E+00
  0.771109429675E-01
  0.216094194746E+00
  0.102965914358E+00
  0.317891156278E+00
  0.131362134040E+00
  0.515605695547E+00
  0.183843035310E+00
  0.938160317360E-01
 -0.141427781090E+00
  0.421841807444E-01
 -0.728549615271E-01
  0.161857349332E-01
 -0.511626570821E-01
 -0.586742957163E-02
 -0.541638018728E-01
 -0.276535431635E-01
 -0.706254010273E-01
 -0.527660849233E-01
 -0.100411753324E+00
 -0.888813355674E-01
 -0.153940083648E+00
 -0.221264784148E+00
 -0.350766813865E+00
 -0.324313818085E+00
 -0.183739571832E+00
 -0.881510297396E-01
 -0.303419095699E-01
  0.383492031589E-02
  0.169527611208E-01
  0.738610418271E-01
  0.498048551599E-01
  0.140521706952E+00
  0.771063105919E-01
  0.215474623118E+00
  0.102961737500E+00
  0.317213632942E+00
  0.131359146049E+00
  0.514686605268E+00
  0.183838993617E+00
  0.863819158701E-01
  0.388177328034E-01
  0.381004664547E-01
  0.158789494478E-01
  0.138179125965E-01
 -0.441548893416E-02
 -0.715824573679E-02
 -0.248172296400E-01
 -0.282328208867E-01
 -0.482730664160E-01
 -0.528911557705E-01
 -0.806732413031E-01
 -0.888959555856E-01
 -0.197422504512E+00
 -0.223295544141E+00
 -0.202542959606E+00
 -0.188782903968E+00
 -0.711577002328E-01
 -0.713510063599E-01
 -0.390484003608E-01
 -0.423252857667E-01
 -0.188000962102E-01
 -0.234995814489E-01
 -0.302020935134E-02
 -0.889792678654E-02
  0.115435068376E-01
  0.382709602846E-02
  0.276302497647E-01
  0.147124598657E-01
  0.629995935016E-01
  0.863754231372E-01
  0.388118585784E-01
  0.380943184355E-01
  0.158690617722E-01
  0.138083611979E-01
 -0.443100851782E-02
 -0.717325361132E-02
 -0.248390320006E-01
 -0.282537221164E-01
 -0.483011414913E-01
 -0.529154525859E-01
 -0.806881255463E-01
 -0.889040054292E-01
 -0.197480393106E+00
 -0.223188075278E+00
 -0.202554055466E+00
 -0.188726702158E+00
 -0.710853630764E-01
 -0.712643046801E-01
 -0.390081842669E-01
 -0.422832189933E-01
 -0.187676253639E-01
 -0.234699054798E-01
 -0.299523897533E-02
 -0.887721889779E-02
  0.115626625929E-01
  0.384244665402E-02
  0.276469573658E-01
  0.147270653566E-01
  0.630189331048E-01
  0.836004055128E-01
  0.386840269504E-01
  0.349705483362E-01
  0.126751490268E-01
  0.103523954585E-01
 -0.886432003285E-02
 -0.103396345395E-01
 -0.298043672479E-01
 -0.305173385503E-01
 -0.531128895466E-01
 -0.533210368301E-01
 -0.843771449805E-01
 -0.846691653730E-01
 -0.184311702804E+00
 -0.201810996705E+00
 -0.194357971578E+00
 -0.169079183242E+00
 -0.832144482859E-01
 -0.770507501421E-01
 -0.543964618036E-01
 -0.521981062070E-01
 -0.351505065167E-01
 -0.350714319080E-01
 -0.192604514339E-01
 -0.205981883613E-01
 -0.375016070042E-02
 -0.649774534870E-02
  0.142805051418E-01
  0.866009066925E-02
  0.526013311810E-01
  0.835904161334E-01
  0.386714208480E-01
  0.349602578591E-01
  0.126603322100E-01
  0.103385481875E-01
 -0.888433055019E-02
 -0.103592949268E-01
 -0.298316902744E-01
 -0.305433291556E-01
 -0.531524737293E-01
 -0.533520002412E-01
 -0.844350868182E-01
 -0.846792291837E-01
 -0.184422680612E+00
 -0.201845936235E+00
 -0.194314169879E+00
 -0.168973277164E+00
 -0.831490990228E-01
 -0.769817921511E-01
 -0.543520552137E-01
 -0.521450571619E-01
 -0.351150462764E-01
 -0.350319149185E-01
 -0.192328316006E-01
 -0.205694596169E-01
 -0.372858116590E-02
 -0.647627600979E-02
  0.142993114329E-01
  0.867947162135E-02
  0.526210095312E-01
VECTORS v float
  0.112444690991E+03 -0.101877926736E-01  0.112444532045E+02
  0.112524974481E+03 -0.489623998269E-02  0.112524815422E+02
  0.106767963692E+03 -0.489623998269E-02  0.106768138129E+02
  0.106850595749E+03  0.152099976642E-03  0.106850770321E+02
  0.104613361216E+03  0.152099976641E-03  0.104613272191E+02
  0.104671191809E+03  0.512406295665E-02  0.104671102736E+02
  0.104100470807E+03  0.512406295665E-02  0.104100515258E+02
  0.104143699866E+03  0.102030544080E-01  0.104143744335E+02
  0.104439252354E+03  0.102030544080E-01  0.104439258015E+02
  0.104472106520E+03  0.152719114742E-01  0.104472112183E+02
  0.105523366707E+03  0.152719114742E-01  0.105523375880E+02
  0.105547460257E+03  0.199057492459E-01  0.105547469432E+02
  0.107822456836E+03  0.199057492459E-01  0.107822428764E+02
  0.107847159352E+03  0.254585035849E-01  0.107847131273E+02
  0.116480422943E+03  0.254585035849E-01  0.116480438924E+02
  0.116482556091E+03  0.259784641017E-01  0.116482572072E+02
  0.115147903163E+03  0.259784641017E-01 -0.115147918961E+02
  0.115134623037E+03  0.292155313006E-01 -0.115134638833E+02
  0.103913520128E+03  0.292155313006E-01 -0.103913523995E+02
  0.103910180683E+03  0.299661880430E-01 -0.103910184550E+02
  0.991179060819E+02  0.299661880430E-01 -0.991178974622E+01
  0.991244650930E+02  0.287047135489E-01 -0.991244564727E+01