# vtk DataFile Version 3.0
MFTran results file. Generated by MFTran, USU AeroLab (c) 2021.
ASCII
DATASET POLYDATA
POINTS                 529 float
     -0.749869744487      -1.999040138277      -0.000248392783
     -0.749001770722      -1.951056480410      -0.000029702285
     -0.749001770722      -1.809016942980      -0.000029702285
     -0.749001770722      -1.587785243990      -0.000029702285
     -0.749001770722      -1.309016942980      -0.000029702285
     -0.749001770722      -1.000000000000      -0.000029702285
     -0.749001770722      -0.690982997417      -0.000029702285
     -0.749001770722      -0.412214756012      -0.000029702285
     -0.749001770722      -0.190983012319      -0.000029702285
     -0.749001770722      -0.048943482339      -0.000029702285
     -0.749825717123       0.000000000000       0.000954678297
     -0.749001770722       0.048943482339      -0.000029702285
     -0.749001770722       0.190983012319      -0.000029702285
     -0.749001770722       0.412214756012      -0.000029702285
     -0.749001770722       0.690982997417      -0.000029702285
     -0.749001770722       1.000000000000      -0.000029702285
     -0.749001770722       1.309016942980      -0.000029702285
     -0.749001770722       1.587785243990      -0.000029702285
     -0.749001770722       1.809016942980      -0.000029702285
     -0.749001770722       1.951056480410      -0.000029702285
     -0.749869744487       1.999040138277      -0.000248392783
     -0.725471032133      -2.000460521013      -0.000000000000
     -0.725470457646      -2.000398775756      -0.000230330674
     -0.725470457646      -2.000398775756       0.000230330674
     -0.725471031076      -2.000230343175      -0.000398859314
     -0.725471031076      -2.000230343175       0.000398859314
     -0.725470423572      -1.999895795652      -0.000466027025
     -0.725471120158      -1.999895795652       0.000465986707
     -0.725470457291      -1.951056480410      -0.000460571809
     -0.725470457291      -1.951056480410       0.000460571809
     -0.725470457291      -1.809016942980      -0.000460571809
     -0.725470457291      -1.809016942980       0.000460571809
     -0.725470457291      -1.587785243990      -0.000460571809
     -0.725470457291      -1.587785243990       0.000460571809
     -0.725470457291      -1.309016942980      -0.000460571809
     -0.725470457291      -1.309016942980       0.000460571809
     -0.725470457291      -1.000000000000      -0.000460571809
     -0.725470457291      -1.000000000000       0.000460571809
     -0.725470457291      -0.690982997417      -0.000460571809
     -0.725470457291      -0.690982997417       0.000460571809
     -0.725470457291      -0.412214756012      -0.000460571809
     -0.725470457291      -0.412214756012       0.000460571809
     -0.725470457291      -0.190983012319      -0.000460571809
     -0.725470457291      -0.190983012319       0.000460571809
     -0.725470457291      -0.048943482339      -0.000460571809
     -0.725470457291      -0.048943482339       0.000460571809
     -0.725471033038       0.000000000000      -0.000460538652
     -0.725469881562       0.000000000000       0.000460605299
     -0.725470457291       0.048943482339      -0.000460571809
     -0.725470457291       0.048943482339       0.000460571809
     -0.725470457291       0.190983012319      -0.000460571809
     -0.725470457291       0.190983012319       0.000460571809
     -0.725470457291       0.412214756012      -0.000460571809
     -0.725470457291       0.412214756012       0.000460571809
     -0.725470457291       0.690982997417      -0.000460571809
     -0.725470457291       0.690982997417       0.000460571809
     -0.725470457291       1.000000000000      -0.000460571809
     -0.725470457291       1.000000000000       0.000460571809
     -0.725470457291       1.309016942980      -0.000460571809
     -0.725470457291       1.309016942980       0.000460571809
     -0.725470457291       1.587785243990      -0.000460571809
     -0.725470457291       1.587785243990       0.000460571809
     -0.725470457291       1.809016942980      -0.000460571809
     -0.725470457291       1.809016942980       0.000460571809
     -0.725470457291       1.951056480410      -0.000460571809
     -0.725470457291       1.951056480410       0.000460571809
     -0.725470423572       1.999895795652      -0.000466027025
     -0.725471120158       1.999895795652       0.000465986707
     -0.725471031076       2.000230343175      -0.000398859314
     -0.725471031076       2.000230343175       0.000398859314
     -0.725470457646       2.000398775756      -0.000230330674
     -0.725470457646       2.000398775756       0.000230330674
     -0.725471032133       2.000460521013      -0.000000000000
     -0.654456345592      -2.004447555079      -0.000000000000
     -0.654454379811      -2.003851861509      -0.002223872877
     -0.654454379811      -2.003851861509       0.002223872877
     -0.654456027013      -2.002178333076      -0.003879701613
     -0.654456344798      -2.002223895283       0.003851724254
     -0.654455530343      -1.999851061830      -0.004458798963
     -0.654455832321      -1.999869664571       0.004456155657
     -0.654455362435      -1.951056480410      -0.004447638549
     -0.654455362435      -1.951056480410       0.004447638549
     -0.654455362435      -1.809016942980      -0.004447638549
     -0.654455362435      -1.809016942980       0.004447638549
     -0.654455362435      -1.587785243990      -0.004447638549
     -0.654455362435      -1.587785243990       0.004447638549
     -0.654455362435      -1.309016942980      -0.004447638549
     -0.654455362435      -1.309016942980       0.004447638549
     -0.654455362435      -1.000000000000      -0.004447638549
     -0.654455362435      -1.000000000000       0.004447638549
     -0.654455362435      -0.690982997417      -0.004447638549
     -0.654455362435      -0.690982997417       0.004447638549
     -0.654455362435      -0.412214756012      -0.004447638549
     -0.654455362435      -0.412214756012       0.004447638549
     -0.654455362435      -0.190983012319      -0.004447638549
     -0.654455362435      -0.190983012319       0.004447638549
     -0.654455362435      -0.048943482339      -0.004447638549
     -0.654455362435      -0.048943482339       0.004447638549
     -0.654456344728       0.000000000000      -0.004447586791
     -0.654454380193       0.000000000000       0.004447691273
     -0.654455362435       0.048943482339      -0.004447638549
     -0.654455362435       0.048943482339       0.004447638549
     -0.654455362435       0.190983012319      -0.004447638549
     -0.654455362435       0.190983012319       0.004447638549
     -0.654455362435       0.412214756012      -0.004447638549
     -0.654455362435       0.412214756012       0.004447638549
     -0.654455362435       0.690982997417      -0.004447638549
     -0.654455362435       0.690982997417       0.004447638549
     -0.654455362435       1.000000000000      -0.004447638549
     -0.654455362435       1.000000000000       0.004447638549
     -0.654455362435       1.309016942980      -0.004447638549
     -0.654455362435       1.309016942980       0.004447638549
     -0.654455362435       1.587785243990      -0.004447638549
     -0.654455362435       1.587785243990       0.004447638549
     -0.654455362435       1.809016942980      -0.004447638549
     -0.654455362435       1.809016942980       0.004447638549
     -0.654455362435       1.951056480410      -0.004447638549
     -0.654455362435       1.951056480410       0.004447638549
     -0.654454841628       1.999869664633      -0.004456208818
     -0.654456379382       1.999851061830       0.004458753808
     -0.654456344798       2.002223895283      -0.003851724254
     -0.654456027013       2.002178333076       0.003879701613
     -0.654454379811       2.003851861509      -0.002223872877
     -0.654454379811       2.003851861509       0.002223872877
     -0.654456345592       2.004447555079      -0.000000000000
     -0.543846214027      -2.010002902760      -0.000000000000
     -0.543845712089      -2.008644368756      -0.005034992482
     -0.543845712089      -2.008644368756       0.005034992482
     -0.543846213950      -2.005001556783      -0.008662872724
     -0.543847465420      -2.005001539184       0.008662816656
     -0.543846588700      -1.999869600913      -0.010011544738
     -0.543846631509      -1.999869617056       0.010011540624
     -0.543846213890      -1.951056480410      -0.010003014528
     -0.543846213890      -1.951056480410       0.010003014528
     -0.543846213890      -1.809016942980      -0.010003014528
     -0.543846213890      -1.809016942980       0.010003014528
     -0.543846213890      -1.587785243990      -0.010003014528
     -0.543846213890      -1.587785243990       0.010003014528
     -0.543846213890      -1.309016942980      -0.010003014528
     -0.543846213890      -1.309016942980       0.010003014528
     -0.543846213890      -1.000000000000      -0.010003014528
     -0.543846213890      -1.000000000000       0.010003014528
     -0.543846213890      -0.690982997417      -0.010003014528
     -0.543846213890      -0.690982997417       0.010003014528
     -0.543846213890      -0.412214756012      -0.010003014528
     -0.543846213890      -0.412214756012       0.010003014528
     -0.543846213890      -0.190983012319      -0.010003014528
     -0.543846213890      -0.190983012319       0.010003014528
     -0.543846213890      -0.048943482339      -0.010003014528
     -0.543846213890      -0.048943482339       0.010003014528
     -0.543847465353       0.000000000000      -0.010002957173
     -0.543844962500       0.000000000000       0.010003073451
     -0.543846213890       0.048943482339      -0.010003014528
     -0.543846213890       0.048943482339       0.010003014528
     -0.543846213890       0.190983012319      -0.010003014528
     -0.543846213890       0.190983012319       0.010003014528
[...]
POINT_DATA                 529
SCALARS phi float 1
LOOKUP_TABLE default
   3157.674962374137
    -25.406051762729
   -155.494126588405
     94.907916825988
    -36.835716077074
     63.146465735118
     23.353153285373
     25.528223742010
    -48.848034093800
     70.632547739875
     61.074721819894
   -441.596500819231
   -113.420726824891
   -126.536204503021
    -63.286160586444
    -27.802125882438
    -50.173906821564
    -19.698733941392
    -20.231595686705
     -2.182154632130
     -1.566181482685
    122.181608121843
    709.270106709267
  -1170.585309528233
   -385.508826001442
   1269.373739380940
    -62.430824079581
  10670.992799350975
    165.857006900942
    161.848382720590
     13.102177871055
    116.557889604409
   -125.285535113939
   -182.040441347292
    182.394716460810
    145.531365481260
   -210.226493647966
    -18.181169683031
    291.112419849655
     81.627464518218
   -253.974507408512
     94.247568004746
    268.988066768466
    -77.344952204838
   -286.734252208083
     76.462458963297
    278.433349972904
    -47.108764827507
    210.126036951402
     97.537453178892
    166.578865267191
    -52.181629509491
     72.600591839475
     87.556006940064
     61.809720928838
     57.026422938679
     34.938758287483
     45.543767801911
     47.964793666904
     50.745709584940
     51.935581439151
     12.627329374795
     13.408941480970
     20.672024760803
      6.250946142293
     -0.497920466331
      1.316907190118
      0.786561158796
     -3.443895913554
      5.102885099436
     -3.859427716358
     -3.433834150504
     -3.102649920643
   2491.857925070914
  -3857.059193331798
  -4533.685164458649
   1887.719621038380
   -197.242125585681
   4859.844994153273
    663.724136921990
    155.096291609992
    190.878428160359
   -352.016119486411
     92.545164742179
    173.040108323303
    -16.730167011075
   -131.927914861387
     -3.868452303592
    157.906764967436
    -16.304621901891
   -273.708988371362
    -15.976125830804
    245.851834311713
     20.120292766553
   -124.539361863678
     59.583677408450
    165.393582026229
     73.020482628460
   -320.962639133709
   -145.666255202091
   -338.516172667120
   -196.918760126966
    -86.549290999091
     58.465921065932
   -199.346438522477
   -220.492455051623
   -104.224006262494
   -123.449592059382
    -89.968489188174
   -118.397823647091
    -69.970510980018
   -100.778224709450
    -83.254379185561
    -59.772224912538
    -55.894923146283
    -52.974728032905
     -6.436194401866
     -2.265576658000
     -1.352793894298
     -4.032429357710
      3.551185225983
     -5.393497040294
     -2.725107828555
      9.191370455805
     -1.739201258723
  -6303.519132577318
   -668.443576772309
   5812.626812911249
  -2589.267299866067
    320.590145258633
  -4219.075579922334
  10048.865620535331
   -296.415419578284
    157.237185040871
    458.741095343942
     87.113865867419
   -217.723413618801
     -4.603141421422
    126.262800256384
      4.560535904755
   -138.187873342307
    -22.194885207104
    245.416666837931
    -31.975722952501
   -199.483459605722
    -57.016253638731
     56.212114180091
    214.917414908610
    -97.926029000618
   -225.841836043378
    280.161284458344
    179.501366002993
     86.100108299770
    -97.316118240527
    -13.439370406295
     65.083313870363
     78.086459513621
     59.871408942646
     47.061449214043
     45.334883331465
     43.447249888029
     48.354664265505
     26.502942354489
     27.394125236114
     28.062767353797
     34.119715314086
     31.909913520766
      6.076274079015
      4.955489196175
     -3.567407639172
     -0.157224162938
      6.844276177620
     -2.062030982642
     -1.592977008070
     -0.664044308700
    -18.083346877734
      3.771924837972
    392.769246439805
   2608.568352277672
  -2572.416595845671
   7317.623672194735
   4648.396501000836
     65.432535766171
   1420.120541469970
   1081.115779668756
   -777.211520430570
   -783.896756161571
    674.431169385507
    326.075410352675
   -601.709392481279
   -165.099369620631
    527.629347636363
    145.191138996176
   -420.806610628535
   -230.371511153079
    399.754733604130
    161.380401302711
   -262.558541213896
      5.568637475736
     39.291007837372
     42.628379265782
     30.842868737313
   -234.190470796799
     56.449273325506
    -65.240367134726
    -82.767137261841
     53.078122391657
     24.281041833745
    -44.308430956868
    -44.134673531413
      5.002059320398
    -13.805526344240
    -23.398051252939
      7.080829313993
     -4.201563239824
    -28.228185542819
     -6.232240159113
     -3.419264064866
    -10.956241489181
      4.879687437231
     -3.453847349845
     -1.590712247743
      1.248216850188
     -0.768714654232
     -4.631318864516
     -2.699226764694
      4.292605779962
     11.968784041238
     -2.627423422043
   1260.491742991710
  -1142.368734184225
   2082.699028866185
  -2561.694819424953
   -394.992629363329
   8646.601240780006
 -57213.380224628861
  -2005.444053693341
   -831.580868259493
    775.751486108450
    409.047290942785
   -219.434060756338
   -221.964189689124
     66.634415127606
     75.931362163102
    -30.307663657280
     10.792377576704
    138.821314941657
   -124.961081939961
    -70.742293172826
     85.232312040290
   -105.761554470660
     79.659849738500
     50.251910675876
   -136.467684568507
    126.189838958927
    116.173696392878
     83.611707025004
     53.221706763287
    -37.811612165230
    -44.255936826811
     21.219729177388
     71.739861631490
      5.731594424657
    -51.116640535709
      4.879233533097
     14.432917206303
      8.378520103950
     19.488982865908
     -2.255612500845
     -9.932005795999
      7.776659484891
     -2.722393081771
     -2.295695031152
      5.475041794753
      1.081041186831
     -9.791122496004
      8.588633466113
      4.010743425889
     -3.543061044171
     -7.619439488170
      9.682105241034
   -858.462037673592
  -5713.253196372018
  -2601.920347992478
   2626.257091358283
    916.633975839631
  -1115.301320438510
  58856.459659164146
   2941.843088592821
  -2348.045311997186
   -863.284386767460
   -269.316005656948
    368.620545013443
    157.257317399337
    -41.257934653589
   -104.494138892456
     37.071229288251
     65.241433359116
   -136.687851837813
     54.742326921791
     48.814483125806
    -26.171904240122
    141.476524972003
   -127.267802355665
    -73.534780873902
    176.297899782217
   -114.218658522299
   -188.574021803925
    -12.171631277955
     93.271433633637
      2.624025401834
    -30.484433080004
      5.269131688889
    -19.769282986206
      4.024642738293
     51.692469243544
     -8.450164106872
    -33.051424564787
      5.730710139368
    -11.114120906909
      0.368408392602
     20.362434463455
     -2.516784786439
     -6.866294215008
      1.444235464654
     -1.236473257550
      0.569648465890
      6.321920605851
    -10.474592109025
     -0.247584396571
      7.976941748677
      6.902657820612
     -5.611796210743
   -375.640488273334
   1403.580903240417
   4672.711541237282
   -140.168709712116
    112.261075063618
    999.273093041433
  16188.105322765417
  -3122.509016995993
   2396.185588530093
   1664.224614947523
   -293.445937768510
   -279.168973889109
    179.131604999975
    148.627564422435
   -163.831186480585
    -86.198570125883
    141.770898242497
    149.584026482440
   -217.019241197642
    -39.040372387739
    156.278525222646
   -155.251261109144
     21.883295418561
     85.193822274871
    -72.098177094337
    124.472284189010
      9.601430043178
     -2.720912232985
    -47.471123847711
    -12.987670613418
     32.689971647094
     16.164439276260
    -11.519883419666
    -28.422685896330
    -46.073985393704
      8.446575899499
     51.679113770233
      0.882733106960
    -11.873250679906
    -13.550911221055
    -21.860262782832
      8.016978952612
     12.537839188598
     -7.143578429462
     -0.033100856752
      3.038150393615
    -20.913994526208
     12.175102545236
     18.215291016559
     -1.017436305105
      4.736987285548
     20.671953916600
    927.246683969639
  -3136.999404811617
  -2493.664943540848
  -4182.931774952312
    678.292708858779
   1458.646235643806
  55919.638309485505
   7298.331880119155
   1571.901018521629
     43.864272111995
    250.033461646106
    508.897191951505
   -128.592736383915
   -186.200121555912
    151.570815668346
     93.219428050928
   -159.279429085096
   -150.497768076295
    260.953436923606
     11.016457102583
   -202.692339141611
    213.550005744988
      6.738949535749
   -118.018484230887
     36.751491180827
   -122.573322499308
     37.678864112734
     -8.232434046190
     35.171364098734
     31.014468536382
    -24.944628429182
    -15.375455431435
     46.198423792123
     20.385514100253
     11.749014583795
     20.235196948839
    -44.834756114168
     -7.217004914640
     34.149491971431
     17.906809322192
     17.005163963749
      4.147211601949
    -26.587504994421
     -1.772479634156
     27.690935322635
     -1.733176483253
    -21.294389334814
     15.486551989850
     51.126184697135
     -2.061062302192
     -4.256350983730
     -9.986542224742
  -7921.955203116163
   8913.396918361845
  20720.647537563764
  21392.790316981282
   1500.320730091148
  48440.533526399442
-293754.662188243179
  20061.209094957805
   1007.964101550094
    451.786082766309
    118.731231412998
   -153.382814415020
    125.153176177253
    -87.565635660249
   -115.767139134396
    111.045967681505
    149.126155850256
    -39.554986498853
   -287.126636516332
    168.985472906678
    233.983735598753
   -338.224001401602
    -20.613160928015
    185.279890990465
    -11.640909562377
      7.393105615271
    -78.835827135578
    -24.877153901387
    -49.993343646906
    -55.712862562398
    -40.426283121602
    -14.484783308239
    -38.358897723216
    -22.285129063721
     -5.665767053821
    -33.600871916275
     17.268179272758
    -17.409111628256
    -53.575529987608
    -16.768990024327
      9.751548099750
    -20.810904986265
     -9.374264284318
     -8.917857192507
    -19.700675194287
      6.855951199263
      3.931972372661
     -7.714265271064
    -39.925864180640
      5.892841430894
     19.886340546061
     17.331544152685
1108085.680820843903
  -5088.525765548006
     10.436553328767
    -28.932284143829
     68.940889909047
   -109.069611320035
    263.964267682905
   -224.499414419815
     47.578207829326
     -9.434637227502
    102.163189729200
    177.141879081353
     68.778444089848
     46.488277679233
     37.420624287798
     34.936741858057
     26.543759176609
     31.617145524297
     21.320638597365
     25.302154865343
     -5.738929044346
    112.304773348537
     73.205885206786
    105.404766448598
     -7.717480271649
    603.412956715838
    -23.259137954524
    210.621629017665
      9.009244046397
   -385.843980572620
    248.835408871627
    -36.561397873409
   -146.263775513590
   -217.846660069230
   -172.475064778502
   -133.678434980611
    -96.415071147632
    -55.731458182318
    -26.044451263364
     -2.278894773463
SCALARS index integer 1
LOOKUP_TABLE default
                   1
                   2
                   3
                   4
                   5
                   6
                   7
                   8
                   9
                  10
                  11
                  12
                  13
                  14
                  15
                  16
                  17
                  18
                  19
                  20
                  21
                  22
                  23
                  24
                  25
                  26
                  27
                  28
                  29
                  30
                  31
                  32
                  33
                  34
                  35
                  36
                  37
                  38
                  39
                  40
                  41
                  42
                  43
                  44
                  45
                  46
                  47
                  48
                  49
                  50
                  51
                  52
                  53
                  54
                  55
                  56
                  57
                  58
                  59
                  60
                  61
                  62
                  63
                  64
                  65
                  66
                  67
                  68
                  69
                  70
                  71
                  72
                  73
                  74
                  75
                  76
                  77
                  78
                  79
                  80
                  81
                  82
                  83
                  84
                  85
                  86
                  87
                  88
                  89
                  90
                  91
                  92
                  93
                  94
                  95
                  96
                  97
                  98
                  99
                 100
                 101
                 102
                 103
                 104
                 105
                 106
                 107
                 108
                 109
                 110
                 111
                 112
                 113
                 114
                 115
                 116
                 117
                 118
                 119
                 120
                 121
                 122
                 123
                 124
                 125
                 126
                 127
                 128
                 129
                 130
                 131
                 132
                 133
                 134
                 135
                 136
                 137
                 138
                 139
                 140
                 141
                 142
                 143
                 144
                 145
                 146
                 147
                 148
                 149
                 150
                 151
                 152
                 153
                 154
                 155
                 156
                 157
                 158
                 159
                 160
                 161
                 162
                 163
                 164
                 165
                 166
                 167
                 168
                 169
                 170
                 171
                 172
                 173
                 174
                 175
                 176
                 177
                 178
                 179
                 180
                 181
                 182
                 183
                 184
                 185
                 186
                 187
                 188
                 189
                 190
                 191
                 192
                 193
                 194
                 195
                 196
                 197
                 198
                 199
                 200
                 201
                 202
                 203
                 204
                 205
                 206
                 207
                 208
                 209
                 210
                 211
                 212
                 213
                 214
                 215
                 216
                 217
                 218
                 219
                 220
                 221
                 222
                 223
                 224
                 225
                 226
                 227
                 228
                 229
                 230
                 231
                 232
                 233
                 234
                 235
                 236
                 237
                 238
                 239
                 240
                 241
                 242
                 243
                 244
                 245
                 246
                 247
                 248
                 249
                 250
                 251
                 252
                 253
                 254
                 255
                 256
                 257
                 258
                 259
                 260
                 261
                 262
                 263
                 264
                 265
                 266
                 267
                 268
                 269
                 270
                 271
                 272
                 273
                 274
                 275
                 276
                 277
                 278
                 279
                 280
                 281
                 282
                 283
                 284
                 285
                 286
                 287
                 288
                 289
                 290
                 291
                 292
                 293
                 294
                 295
                 296
                 297
                 298
                 299
                 300
                 301
                 302
                 303
                 304
                 305
                 306
                 307
                 308
                 309
                 310
                 311
                 312
                 313
                 314
                 315
                 316
                 317
                 318
                 319
                 320
                 321
                 322
                 323
                 324
                 325
                 326
                 327
                 328
                 329
                 330
                 331
                 332
                 333
                 334
                 335
                 336
                 337
                 338
                 339
                 340
                 341
                 342
                 343
                 344
                 345
                 346
                 347
                 348
                 349
                 350
                 351
                 352
                 353
                 354
                 355
                 356
                 357
                 358
                 359
                 360
                 361
                 362
                 363
                 364
                 365
                 366
                 367
                 368
                 369
                 370
                 371
                 372
                 373
                 374
                 375
                 376
                 377
                 378
                 379
                 380
                 381
                 382
                 383
                 384
                 385
                 386
                 387
                 388
                 389
                 390
                 391
                 392
                 393
                 394
                 395
                 396
                 397
                 398
                 399
                 400
                 401
                 402
                 403
                 404
                 405
                 406
                 407
                 408
                 409
                 410
                 411
                 412
                 413
                 414
                 415
                 416
                 417