# vtk DataFile Version 3.0
MFTran results file. Generated by MFTran, USU AeroLab (c) 2021.
ASCII
DATASET POLYDATA
POINTS                 529 float
     -0.749986974449      -1.999904013828      -0.000024839278
     -0.749900177072      -1.951056480410      -0.000002970228
     -0.749900177072      -1.809016942980      -0.000002970228
     -0.749900177072      -1.587785243990      -0.000002970228
     -0.749900177072      -1.309016942980      -0.000002970228
     -0.749900177072      -1.000000000000      -0.000002970228
     -0.749900177072      -0.690982997417      -0.000002970228
     -0.749900177072      -0.412214756012      -0.000002970228
     -0.749900177072      -0.190983012319      -0.000002970228
     -0.749900177072      -0.048943482339      -0.000002970228
     -0.749982571712       0.000000000000       0.000095467830
     -0.749900177072       0.048943482339      -0.000002970228
     -0.749900177072       0.190983012319      -0.000002970228
     -0.749900177072       0.412214756012      -0.000002970228
     -0.749900177072       0.690982997417      -0.000002970228
     -0.749900177072       1.000000000000      -0.000002970228
     -0.749900177072       1.309016942980      -0.000002970228
     -0.749900177072       1.587785243990      -0.000002970228
     -0.749900177072       1.809016942980      -0.000002970228
     -0.749900177072       1.951056480410      -0.000002970228
     -0.749986974449       1.999904013828      -0.000024839278
     -0.725522519397      -2.001359047062      -0.000000000000
     -0.725522461948      -2.001176919621      -0.000679538509
     -0.725522461948      -2.001176919621       0.000679538509
     -0.725522519291      -2.000679639083      -0.001176986650
     -0.725522519291      -2.000679639083       0.001176986650
     -0.725522458541      -1.999989579565      -0.001359613585
     -0.725522528199      -1.999989579565       0.001359609553
     -0.725522461913      -1.951056480410      -0.001359068063
     -0.725522461913      -1.951056480410       0.001359068063
     -0.725522461913      -1.809016942980      -0.001359068063
     -0.725522461913      -1.809016942980       0.001359068063
     -0.725522461913      -1.587785243990      -0.001359068063
     -0.725522461913      -1.587785243990       0.001359068063
     -0.725522461913      -1.309016942980      -0.001359068063
     -0.725522461913      -1.309016942980       0.001359068063
     -0.725522461913      -1.000000000000      -0.001359068063
     -0.725522461913      -1.000000000000       0.001359068063
     -0.725522461913      -0.690982997417      -0.001359068063
     -0.725522461913      -0.690982997417       0.001359068063
     -0.725522461913      -0.412214756012      -0.001359068063
     -0.725522461913      -0.412214756012       0.001359068063
     -0.725522461913      -0.190983012319      -0.001359068063
     -0.725522461913      -0.190983012319       0.001359068063
     -0.725522461913      -0.048943482339      -0.001359068063
     -0.725522461913      -0.048943482339       0.001359068063
     -0.725522519487       0.000000000000      -0.001359064748
     -0.725522404340       0.000000000000       0.001359071412
     -0.725522461913       0.048943482339      -0.001359068063
     -0.725522461913       0.048943482339       0.001359068063
     -0.725522461913       0.190983012319      -0.001359068063
     -0.725522461913       0.190983012319       0.001359068063
     -0.725522461913       0.412214756012      -0.001359068063
     -0.725522461913       0.412214756012       0.001359068063
     -0.725522461913       0.690982997417      -0.001359068063
     -0.725522461913       0.690982997417       0.001359068063
     -0.725522461913       1.000000000000      -0.001359068063
     -0.725522461913       1.000000000000       0.001359068063
     -0.725522461913       1.309016942980      -0.001359068063
     -0.725522461913       1.309016942980       0.001359068063
     -0.725522461913       1.587785243990      -0.001359068063
     -0.725522461913       1.587785243990       0.001359068063
     -0.725522461913       1.809016942980      -0.001359068063
     -0.725522461913       1.809016942980       0.001359068063
     -0.725522461913       1.951056480410      -0.001359068063
     -0.725522461913       1.951056480410       0.001359068063
     -0.725522458541       1.999989579565      -0.001359613585
     -0.725522528199       1.999989579565       0.001359609553
     -0.725522519291       2.000679639083      -0.001176986650
     -0.725522519291       2.000679639083       0.001176986650
     -0.725522461948       2.001176919621      -0.000679538509
     -0.725522461948       2.001176919621       0.000679538509
     -0.725522519397       2.001359047062      -0.000000000000
     -0.654503258899      -2.005346331548      -0.000000000000
     -0.654503062321      -2.004630157426      -0.002673189558
     -0.654503062321      -2.004630157426       0.002673189558
     -0.654503227041      -2.002668728617      -0.004632884440
     -0.654503258820      -2.002673284837       0.004630086704
     -0.654503177374      -1.999985106183      -0.005347484437
     -0.654503207572      -1.999986966457       0.005347220106
     -0.654503160584      -1.951056480410      -0.005346368396
     -0.654503160584      -1.951056480410       0.005346368396
     -0.654503160584      -1.809016942980      -0.005346368396
     -0.654503160584      -1.809016942980       0.005346368396
     -0.654503160584      -1.587785243990      -0.005346368396
     -0.654503160584      -1.587785243990       0.005346368396
     -0.654503160584      -1.309016942980      -0.005346368396
     -0.654503160584      -1.309016942980       0.005346368396
     -0.654503160584      -1.000000000000      -0.005346368396
     -0.654503160584      -1.000000000000       0.005346368396
     -0.654503160584      -0.690982997417      -0.005346368396
     -0.654503160584      -0.690982997417       0.005346368396
     -0.654503160584      -0.412214756012      -0.005346368396
     -0.654503160584      -0.412214756012       0.005346368396
     -0.654503160584      -0.190983012319      -0.005346368396
     -0.654503160584      -0.190983012319       0.005346368396
     -0.654503160584      -0.048943482339      -0.005346368396
     -0.654503160584      -0.048943482339       0.005346368396
     -0.654503258813       0.000000000000      -0.005346363220
     -0.654503062359       0.000000000000       0.005346373668
     -0.654503160584       0.048943482339      -0.005346368396
     -0.654503160584       0.048943482339       0.005346368396
     -0.654503160584       0.190983012319      -0.005346368396
     -0.654503160584       0.190983012319       0.005346368396
     -0.654503160584       0.412214756012      -0.005346368396
     -0.654503160584       0.412214756012       0.005346368396
     -0.654503160584       0.690982997417      -0.005346368396
     -0.654503160584       0.690982997417       0.005346368396
     -0.654503160584       1.000000000000      -0.005346368396
     -0.654503160584       1.000000000000       0.005346368396
     -0.654503160584       1.309016942980      -0.005346368396
     -0.654503160584       1.309016942980       0.005346368396
     -0.654503160584       1.587785243990      -0.005346368396
     -0.654503160584       1.587785243990       0.005346368396
     -0.654503160584       1.809016942980      -0.005346368396
     -0.654503160584       1.809016942980       0.005346368396
     -0.654503160584       1.951056480410      -0.005346368396
     -0.654503160584       1.951056480410       0.005346368396
     -0.654503108503       1.999986966463      -0.005347225422
     -0.654503262278       1.999985106183       0.005347479921
     -0.654503258820       2.002673284837      -0.004630086704
     -0.654503227041       2.002668728617       0.004632884440
     -0.654503062321       2.004630157426      -0.002673189558
     -0.654503062321       2.004630157426       0.002673189558
     -0.654503258899       2.005346331548      -0.000000000000
     -0.543887981197      -2.010901933073      -0.000000000000
     -0.543887931003      -2.009439566388      -0.005454370939
     -0.543887931003      -2.009439566388       0.005454370939
     -0.543887981190      -2.005451084370      -0.009441448633
     -0.543888106337      -2.005451082610       0.009441443026
     -0.543888018665      -1.999986960091      -0.010902897856
     -0.543888022945      -1.999986961706       0.010902897445
     -0.543887981184      -1.951056480410      -0.010902044835
     -0.543887981184      -1.951056480410       0.010902044835
     -0.543887981184      -1.809016942980      -0.010902044835
     -0.543887981184      -1.809016942980       0.010902044835
     -0.543887981184      -1.587785243990      -0.010902044835
     -0.543887981184      -1.587785243990       0.010902044835
     -0.543887981184      -1.309016942980      -0.010902044835
     -0.543887981184      -1.309016942980       0.010902044835
     -0.543887981184      -1.000000000000      -0.010902044835
     -0.543887981184      -1.000000000000       0.010902044835
     -0.543887981184      -0.690982997417      -0.010902044835
     -0.543887981184      -0.690982997417       0.010902044835
     -0.543887981184      -0.412214756012      -0.010902044835
     -0.543887981184      -0.412214756012       0.010902044835
     -0.543887981184      -0.190983012319      -0.010902044835
     -0.543887981184      -0.190983012319       0.010902044835
     -0.543887981184      -0.048943482339      -0.010902044835
     -0.543887981184      -0.048943482339       0.010902044835
     -0.543888106330       0.000000000000      -0.010902039100
     -0.543887856045       0.000000000000       0.010902050727
     -0.543887981184       0.048943482339      -0.010902044835
     -0.543887981184       0.048943482339       0.010902044835
     -0.543887981184       0.190983012319      -0.010902044835
     -0.543887981184       0.190983012319       0.010902044835
[...]
POINT_DATA                 529
SCALARS phi float 1
LOOKUP_TABLE default
     -0.000000000000
     -0.000000000000
     -0.000000000000
     -0.000000000000
      0.000000000000
     -0.000000000000
     -0.000000000000
     -0.000000000000
     -0.000000000000
     -0.000000000000
     -0.000000000000
     -0.000000000000
     -0.000000000000
      0.000000000000
     -0.000000000000
      0.000000000000
     -0.000000000000
     -0.000000000000
      0.000000000000
     -0.000000000000
     -0.000000000000
     -0.000000000000
      0.000000000000
      0.000000000000
      0.000000000000
      0.000000000000
     -0.000000000000
     -0.000000000000
     -0.000000000000
     -0.000000000000
     -0.000000000000
     -0.000000000000
     -0.000000000000
     -0.000000000000
      0.000000000000
     -0.000000000000
      0.000000000000
     -0.000000000000
     -0.000000000000
      0.000000000000
     -0.000000000000
     -0.000000000000
     -0.000000000000
     -0.000000000000
     -0.000000000000
      0.000000000000
     -0.000000000000
      0.000000000000
     -0.000000000000
     -0.000000000000
      0.000000000000
     -0.000000000000
     -0.000000000000
      0.000000000000
     -0.000000000000
     -0.000000000000
     -0.000000000000
     -0.000000000000
     -0.000000000000
     -0.000000000000
      0.000000000000
     -0.000000000000
     -0.000000000000
      0.000000000000
      0.000000000000
     -0.000000000000
     -0.000000000000
     -0.000000000000
      0.000000000000
     -0.000000000000
      0.000000000000
     -0.000000000000
      0.000000000000
     -0.000000000000
     -0.000000000000
      0.000000000000
     -0.000000000000
     -0.000000000000
      0.000000000001
      0.000000000000
     -0.000000000000
      0.000000000000
      0.000000000000
      0.000000000000
     -0.000000000000
     -0.000000000000
     -0.000000000000
     -0.000000000000
      0.000000000000
     -0.000000000000
     -0.000000000000
     -0.000000000000
     -0.000000000000
     -0.000000000000
     -0.000000000000
     -0.000000000000
     -0.000000000000
     -0.000000000000
     -0.000000000000
      0.000000000000
     -0.000000000000
     -0.000000000000
     -0.000000000000
      0.000000000000
     -0.000000000000
     -0.000000000000
     -0.000000000000
      0.000000000000
     -0.000000000000
     -0.000000000000
      0.000000000000
     -0.000000000000
      0.000000000000
      0.000000000000
      0.000000000000
     -0.000000000000
      0.000000000000
     -0.000000000000
     -0.000000000000
      0.000000000000
     -0.000000000000
      0.000000000000
     -0.000000000000
      0.000000000000
     -0.000000000000
      0.000000000000
      0.000000000000
     -0.000000000000
      0.000000000000
     -0.000000000000
     -0.000000000000
     -0.000000000000
      0.000000000000
     -0.000000000000
      0.000000000000
      0.000000000000
     -0.000000000000
     -0.000000000000
      0.000000000000
      0.000000000000
      0.000000000000
     -0.000000000000
     -0.000000000000
     -0.000000000000
     -0.000000000000
     -0.000000000000
     -0.000000000000
     -0.000000000000
     -0.000000000000
     -0.000000000000
      0.000000000000
      0.000000000000
     -0.000000000000
      0.000000000000
      0.000000000000
     -0.000000000000
      0.000000000000
      0.000000000000
     -0.000000000000
      0.000000000000
      0.000000000000
      0.000000000000
     -0.000000000000
      0.000000000000
      0.000000000000
     -0.000000000000
     -0.000000000000
      0.000000000000
      0.000000000000
      0.000000000000
      0.000000000000
     -0.000000000000
     -0.000000000000
      0.000000000000
     -0.000000000000
      0.000000000000
      0.000000000000
      0.000000000000
     -0.000000000000
      0.000000000000
     -0.000000000000
     -0.000000000000
      0.000000000000
     -0.000000000000
      0.000000000000
     -0.000000000000
     -0.000000000000
     -0.000000000000
     -0.000000000000
     -0.000000000000
     -0.000000000000
     -0.000000000000
     -0.000000000000
      0.000000000000
     -0.000000000000
     -0.000000000000
     -0.000000000000
     -0.000000000000
     -0.000000000000
      0.000000000000
     -0.000000000000
     -0.000000000000
     -0.000000000000
     -0.000000000000
     -0.000000000000
     -0.000000000000
     -0.000000000000
      0.000000000000
      0.000000000000
     -0.000000000000
     -0.000000000000
     -0.000000000000
     -0.000000000000
      0.000000000000
      0.000000000000
     -0.000000000000
      0.000000000000
     -0.000000000000
     -0.000000000000
     -0.000000000000
      0.000000000000
      0.000000000000
     -0.000000000000
      0.000000000000
     -0.000000000000
     -0.000000000000
      0.000000000000
     -0.000000000000
     -0.000000000000
      0.000000000000
      0.000000000000
     -0.000000000000
     -0.000000000000
      0.000000000000
     -0.000000000000
     -0.000000000000
      0.000000000000
      0.000000000000
      0.000000000000
     -0.000000000000
     -0.000000000000
     -0.000000000000
     -0.000000000000
     -0.000000000000
      0.000000000000
     -0.000000000000
      0.000000000000
      0.000000000000
     -0.000000000000
     -0.000000000000
      0.000000000000
      0.000000000000
     -0.000000000000
      0.000000000000
      0.000000000000
     -0.000000000000
      0.000000000000
      0.000000000000
     -0.000000000000
      0.000000000000
     -0.000000000000
     -0.000000000000
      0.000000000000
     -0.000000000000
     -0.000000000000
     -0.000000000000
      0.000000000000
     -0.000000000000
      0.000000000000
      0.000000000000
     -0.000000000000
     -0.000000000000
     -0.000000000000
     -0.000000000000
     -0.000000000000
     -0.000000000000
      0.000000000000
     -0.000000000000
     -0.000000000000
      0.000000000000
      0.000000000000
     -0.000000000000
     -0.000000000000
     -0.000000000000
     -0.000000000000
      0.000000000000
      0.000000000000
     -0.000000000000
     -0.000000000000
      0.000000000000
     -0.000000000000
     -0.000000000000
      0.000000000000
     -0.000000000000
      0.000000000000
      0.000000000000
      0.000000000000
     -0.000000000000
      0.000000000000
      0.000000000000
     -0.000000000000
      0.000000000000
     -0.000000000000
     -0.000000000000
      0.000000000000
     -0.000000000000
     -0.000000000000
      0.000000000000
     -0.000000000000
      0.000000000000
      0.000000000000
     -0.000000000000
     -0.000000000000
      0.000000000000
      0.000000000000
     -0.000000000000
     -0.000000000000
      0.000000000000
     -0.000000000000
      0.000000000000
     -0.000000000000
     -0.000000000000
      0.000000000000
     -0.000000000000
     -0.000000000000
     -0.000000000000
     -0.000000000000
     -0.000000000000
     -0.000000000000
     -0.000000000000
     -0.000000000000
      0.000000000000
      0.000000000000
     -0.000000000000
     -0.000000000000
      0.000000000000
     -0.000000000000
     -0.000000000000
     -0.000000000000
      0.000000000000
     -0.000000000000
      0.000000000000
     -0.000000000000
     -0.000000000000
     -0.000000000000
      0.000000000000
     -0.000000000000
     -0.000000000000
     -0.000000000000
     -0.000000000000
     -0.000000000000
      0.000000000000
     -0.000000000000
      0.000000000000
      0.000000000000
     -0.000000000000
     -0.000000000000
     -0.000000000000
      0.000000000000
      0.000000000000
      0.000000000000
      0.000000000000
     -0.000000000000
      0.000000000000
     -0.000000000000
      0.000000000000
      0.000000000000
     -0.000000000000
      0.000000000000
      0.000000000000
     -0.000000000000
     -0.000000000000
      0.000000000000
      0.000000000000
      0.000000000000
     -0.000000000000
     -0.000000000000
      0.000000000000
     -0.000000000000
     -0.000000000000
      0.000000000000
     -0.000000000000
     -0.000000000000
     -0.000000000000
     -0.000000000000
     -0.000000000000
     -0.000000000000
      0.000000000000
      0.000000000000
      0.000000000000
      0.000000000000
     -0.000000000000
     -0.000000000000
      0.000000000000
      0.000000000000
      0.000000000000
      0.000000000000
      0.000000000000
      0.000000000000
     -0.000000000000
     -0.000000000000
      0.000000000000
      0.000000000000
     -0.000000000000
      0.000000000000
     -0.000000000000
     -0.000000000000
      0.000000000000
      0.000000000000
     -0.000000000000
      0.000000000000
     -0.000000000000
     -0.000000000000
      0.000000000000
     -0.000000000000
     -0.000000000000
     -0.000000000000
      0.000000000000
      0.000000000000
     -0.000000000000
     -0.000000000000
     -0.000000000000
      0.000000000000
     -0.000000000000
      0.000000000000
     -0.000000000000
      0.000000000000
      0.000000000000
      0.000000000000
     -0.000000000000
     -0.000000000000
      0.000000000000
      0.000000000000
     -0.000000000000
      0.000000000000
     -0.000000000000
      0.000000000000
     -0.000000000000
      0.000000000000
      0.000000000000
      0.000000000001
     -0.000000000000
     -0.000000000000
     -0.000000000000
      0.000000000000
     -0.000000000000
      0.000000000000
     -0.000000000000
     -0.000000000000
     -0.000000000000
     -0.000000000000
      0.000000000000
      0.000000000000
     -0.000000000000
     -0.000000000000
     -0.000000000000
      0.000000000000
     -0.000000000000
      0.000000000000
     -0.000000000000
      0.000000000000
      0.000000000000
      0.000000000000
      0.000000000000
      0.000000000000
     -0.000000000000
     -0.000000000000
      0.000000000000
     -0.000000000000
     -0.000000000000
      0.000000000000
     -0.000000000000
     -0.000000000000
      0.000000000000
     -0.000000000000
     -0.000000000000
      0.000000000000
     -0.000000000000
     -0.000000000000
      0.000000000000
      0.000000000000
     -0.000000000000
     -0.000000000000
     -0.000000000000
      0.000000000000
     -0.000000000000
      0.000000000000
     -0.000000000000
     -0.000000000000
     -0.000000000000
      0.000000000000
      0.000000000000
      0.000000000000
     -0.000000000000
     -0.000000000000
      0.000000000000
     -0.000000000000
      0.000000000000
      0.000000000000
     -0.000000000000
      0.000000000000
     -0.000000000000
      0.000000000000
      0.000000000000
     -0.000000000000
      0.000000000000
      0.000000000000
     -0.000000000000
      0.000000000000
      0.000000000000
     -0.000000000000
      0.000000000000
     -0.000000000000
     -0.000000000000
     -0.000000000000
     -0.000000000000
      0.000000000000
     -0.000000000000
      0.000000000000
     -0.000000000000
     -0.000000000000
     -0.000000000000
     -0.000000000000
     -0.000000000000
     -0.000000000000
     -0.000000000000
     -0.000000000000
     -0.000000000000
     -0.000000000000
SCALARS phi_mu float 1
LOOKUP_TABLE default
     -0.006698542396
     -0.008127894756
     -0.009971042907
     -0.011279893573
     -0.012021930045
     -0.012397115624
     -0.012576860394
     -0.012657552899
     -0.012688133779
     -0.012695626482
     -0.012682520015
     -0.012695626482
     -0.012688133779
     -0.012657552899
     -0.012576860394
     -0.012397115624
     -0.012021930045
     -0.011279893573
     -0.009971042907
     -0.008127894756
     -0.006698660358
     -0.007439082801
     -0.007455005791
     -0.007454308215
     -0.007498297551
     -0.007497137552
     -0.007559336081
     -0.007558073482
     -0.009330572013
     -0.009330345763
     -0.011341067665
     -0.011339441976
     -0.012691868756
     -0.012689583603
     -0.013437837320
     -0.013435297182
     -0.013808987912
     -0.013806349366
     -0.013985121102
     -0.013982449074
     -0.014063849328
     -0.014061170361
     -0.014093808308
     -0.014091131501
     -0.014101852016
     -0.014099222664
     -0.014106355396
     -0.014103879068
     -0.014101852016
     -0.014099222664
     -0.014093808308
     -0.014091131501
     -0.014063849328
     -0.014061170361
     -0.013985121102
     -0.013982449074
     -0.013808987912
     -0.013806349366
     -0.013437837320
     -0.013435297182
     -0.012691868756
     -0.012689583603
     -0.011341067665
     -0.011339441976
     -0.009330572013
     -0.009330345763
     -0.007559625655
     -0.007558374827
     -0.007498514810
     -0.007497365597
     -0.007455172186
     -0.007454481042
     -0.007439232890
     -0.008168068254
     -0.008207975807
     -0.008220611273
     -0.008298659580
     -0.008265702253
     -0.008360286755
     -0.008361576777
     -0.010139585558
     -0.010141254225
     -0.012430036179
     -0.012432161738
     -0.013861397722
     -0.013863929757
     -0.014603203097
     -0.014605954540
     -0.014956541502
     -0.014959390784
     -0.015119845732
     -0.015122737475
     -0.015191758464
     -0.015194667444
     -0.015218740554
     -0.015221657077
     -0.015225306246
     -0.015228224694
     -0.015225769642
     -0.015228687401
     -0.015225306246
     -0.015228224694
     -0.015218740554
     -0.015221657077
     -0.015191758464
     -0.015194667444
     -0.015119845732
     -0.015122737475
     -0.014956541502
     -0.014959390784
     -0.014603203097
     -0.014605954539
     -0.013861397722
     -0.013863929757
     -0.012430036179
     -0.012432161738
     -0.010139585558
     -0.010141254224
     -0.008393909980
     -0.008501897095
     -0.008216022163
     -0.008331506398
     -0.008208462167
     -0.008221244743
     -0.008168441035
     -0.007874360523
     -0.007887254042
     -0.007886522355
     -0.008054975260
     -0.008054759785
     -0.008260592121
     -0.008260954112
     -0.009778410068
     -0.009778838437
     -0.012028763279
     -0.012029306850
     -0.013435482684
     -0.013436148182
     -0.014118840468
     -0.014119568795
     -0.014425910284
     -0.014426664884
     -0.014562696766
     -0.014563462276
     -0.014621749770
     -0.014622519697
     -0.014643697383
     -0.014644468858
     -0.014649027154
     -0.014649799606
     -0.014649406694
     -0.014650172848
     -0.014649027154
     -0.014649799606
     -0.014643697383
     -0.014644468858
     -0.014621749770
     -0.014622519696
     -0.014562696766
     -0.014563462276
     -0.014425910284
     -0.014426664884
     -0.014118840468
     -0.014119568795
     -0.013435482684
     -0.013436148182
     -0.012028763279
     -0.012029306850
     -0.009778410071
     -0.009778838434
     -0.008196809896
     -0.008322683747
     -0.007991162016
     -0.008100886155
     -0.007885614275
     -0.007996406079
     -0.007875874101
     -0.006320256647
     -0.006374843703
     -0.006375607516
     -0.006520835786
     -0.006516828605
     -0.006744645817
     -0.006743012483
     -0.007869217893
     -0.007867344106
     -0.009641684751
     -0.009639229557
     -0.010754726814
     -0.010751822594
     -0.011265927139
     -0.011262827760
     -0.011482317658
     -0.011479142789
     -0.011575100747
     -0.011571895238
     -0.011614357920
     -0.011611139779
     -0.011628807603
     -0.011625584823
     -0.011632311492
     -0.011629087434
     -0.011632565846
     -0.011629328592
     -0.011632311492
     -0.011629087434
     -0.011628807603
     -0.011625584823
     -0.011614357920
     -0.011611139779
     -0.011575100747
     -0.011571895238
     -0.011482317658
     -0.011479142789
     -0.011265927139
     -0.011262827760
     -0.010754726813
     -0.010751822594
     -0.009641684751
     -0.009639229557
     -0.007869217885
     -0.007867344114
     -0.006739488614
     -0.006752149013
     -0.006512554168
     -0.006519669952
     -0.006388030858
     -0.006384604458
     -0.006327183346
     -0.003417658966
     -0.003422310547
     -0.003433895506
     -0.003541606947
     -0.003535102037
     -0.003682480571
     -0.003677599646
     -0.004295329958
     -0.004289823791
     -0.005207677456
     -0.005200716824
     -0.005721079597
     -0.005712753005
     -0.005930526272
     -0.005921440421
     -0.006012442917
     -0.006003016692
     -0.006046187302
     -0.006036613599
     -0.006060266610
     -0.006050630544
     -0.006065497841
     -0.006055839329
     -0.006066793074
     -0.006057129799
     -0.006066900867
     -0.006057206860
     -0.006066793074
     -0.006057129799
     -0.006065497841
     -0.006055839329
     -0.006060266610
     -0.006050630544
     -0.006046187302
     -0.006036613599
     -0.006012442917
     -0.006003016692
     -0.005930526272
     -0.005921440421
     -0.005721079597
     -0.005712753005
     -0.005207677456
     -0.005200716824
     -0.004295329959
     -0.004289823790
     -0.003679822241
     -0.003702663223
     -0.003513272502
     -0.003532806619
     -0.003429092471
     -0.003434849053
     -0.003387344282
      0.000702142149
      0.000710955423
      0.000712987291
      0.000711284115
      0.000720214691
      0.000729483821
      0.000735518145
      0.000788041344
      0.000795188690
      0.001049039864
      0.001058332893
      0.001330638245
      0.001341383654
      0.001485864532
      0.001497315883
      0.001554734203
      0.001566491827
      0.001584551854
      0.001596439353
      0.001597114644
      0.001609053075
      0.001601714551
      0.001613668454
      0.001602958227
      0.001614919298
      0.001603031689
      0.001615057065
      0.001602958227
      0.001614919299
      0.001601714551
      0.001613668454
      0.001597114643
      0.001609053075
      0.001584551854
      0.001596439353
      0.001554734203
      0.001566491827
      0.001485864532
      0.001497315883
      0.001330638245
      0.001341383654
      0.001049039865
      0.001058332893
      0.000788041349
      0.000795188685
      0.000729472378
      0.000726611618
      0.000721119346
      0.000723163231
      0.000709420108
      0.000708760519
      0.000708280978
      0.005410525478
      0.005462954703
      0.005481556214
      0.005639010029
      0.005639346566
      0.005877725958
      0.005897952876
      0.006788129894
      0.006815009149
      0.008404082581
      0.008440120720
      0.009437941556
      0.009477043374
      0.009904067581
      0.009944057461
      0.010100633083
      0.010140922336
      0.010185076790
      0.010225462850
      0.010220911288
      0.010261305842
      0.010234599078
      0.010274959719
      0.010239430218
      0.010279774723
      0.010239995865
      0.010280475308
      0.010239430218
      0.010279774723
      0.010234599078
      0.010274959719
      0.010220911288
      0.010261305842
      0.010185076790
      0.010225462850
      0.010100633083
      0.010140922336
      0.009904067581
      0.009944057461
      0.009437941556
      0.009477043374
      0.008404082581
      0.008440120720
      0.006788129899
      0.006815009144
      0.005846369034
      0.005897424755
      0.005609025780
      0.005640204113
      0.005470950528
      0.005477758487
      0.005422614995
      0.009873847012
      0.009989436735
      0.009987884568
      0.010282120212
      0.010270318418
      0.010760004810
      0.010746485068
      0.012817857144
      0.012817588440
      0.015637222747
      0.015636861857
      0.017123402110
      0.017123009271
      0.017774656031
      0.017774253440
      0.018054355889
      0.018053950068
      0.018176677018
      0.018176270445
      0.018229069516
      0.018228663476
      0.018248451426
      0.018248046514
      0.018253146052
      0.018252742546
      0.018253299501
      0.018253257799
      0.018253146052
      0.018252742546
      0.018248451426
      0.018248046514
      0.018229069516