# vtk DataFile Version 3.0
TriPan results file. Generated by TriPan, USU AeroLab (c) 2021.
ASCII
DATASET POLYDATA
POINTS                 242 float
  0.150662639533E-04  0.000000000000E+00 -0.449315179986E-15
  0.134830520607E-04  0.179999995232E+01 -0.326948104668E-15
  0.134835728404E-04  0.359999990463E+01 -0.237621855697E-15
  0.134840902007E-04  0.540000009537E+01 -0.148343833064E-15
  0.134846115669E-04  0.719999980927E+01 -0.594100403021E-16
  0.832848226250E-06  0.899999608995E+01 -0.411264704428E-10
  0.744176425750E-01  0.000000000000E+00  0.742815037955E-02
  0.746882474808E-01  0.179999995232E+01  0.745521270251E-02
  0.749588526955E-01  0.359999990463E+01  0.748227193765E-02
  0.752294579100E-01  0.540000009537E+01  0.750933117432E-02
  0.755000631246E-01  0.719999980927E+01  0.753639040988E-02
  0.757706686442E-01  0.000000000000E+00 -0.756344659397E-02
  0.757706683317E-01  0.179999995232E+01 -0.756344971887E-02
  0.757706683318E-01  0.359999990463E+01 -0.756344971800E-02
  0.757706683317E-01  0.540000009537E+01 -0.756344971887E-02
  0.757706683317E-01  0.719999980927E+01 -0.756344971887E-02
  0.757700128672E-01  0.899999836364E+01 -0.757000441610E-02
  0.757700128699E-01  0.899999836370E+01  0.757000439597E-02
  0.757697819292E-01  0.900378752377E+01 -0.568217875293E-02
  0.757706014943E-01  0.900378752378E+01  0.568234218702E-02
  0.757710063242E-01  0.900757639726E+01  0.163243134277E-06
  0.181354291275E+00  0.000000000000E+00  0.181216643744E-01
  0.182013756662E+00  0.179999995232E+01  0.181876134984E-01
  0.182673222635E+00  0.359999990463E+01  0.182535586049E-01
  0.183332688610E+00  0.540000009537E+01  0.183195037127E-01
  0.183992154584E+00  0.719999980927E+01  0.183854488192E-01
  0.184651621130E+00  0.000000000000E+00 -0.184513863508E-01
  0.184651620537E+00  0.179999995232E+01 -0.184513922826E-01
  0.184651620537E+00  0.359999990463E+01 -0.184513922817E-01
  0.184651620537E+00  0.540000009537E+01 -0.184513922826E-01
  0.184651620537E+00  0.719999980927E+01 -0.184513922826E-01
  0.184650973135E+00  0.899999830898E+01 -0.184578662765E-01
  0.184650973143E+00  0.899999830907E+01  0.184578662143E-01
  0.184651674013E+00  0.900923184979E+01 -0.138478769920E-01
  0.184654326422E+00  0.900923184980E+01  0.138484078205E-01
  0.184655656306E+00  0.901846409945E+01  0.530795315708E-06
  0.331840169740E+00  0.000000000000E+00  0.331700487741E-01
  0.333046865003E+00  0.179999995232E+01  0.332907223487E-01
  0.334253531497E+00  0.359999990463E+01  0.334113893334E-01
  0.335460227792E+00  0.540000009537E+01  0.335320563191E-01
  0.336666924088E+00  0.719999980927E+01  0.336527233029E-01
  0.337873591565E+00  0.000000000000E+00 -0.337733767140E-01
  0.337873590528E+00  0.179999995232E+01 -0.337733870833E-01
  0.337873590528E+00  0.359999990463E+01 -0.337733870825E-01
  0.337873590528E+00  0.540000009537E+01 -0.337733870833E-01
  0.337873590528E+00  0.719999980927E+01 -0.337733870833E-01
  0.337872953227E+00  0.899999823770E+01 -0.337797600799E-01
  0.337872953245E+00  0.899999823781E+01  0.337797599221E-01
  0.337875642765E+00  0.901689244162E+01 -0.253390172292E-01
  0.337882199281E+00  0.901689244165E+01  0.253403303438E-01
  0.337885484418E+00  0.903378542929E+01  0.131363600096E-05
  0.537489689972E+00  0.000000000000E+00  0.537347449732E-01
  0.539444184630E+00  0.179999995232E+01  0.539302085476E-01
  0.541398680896E+00  0.359999990463E+01  0.541256560254E-01
  0.543353177164E+00  0.540000009537E+01  0.543211035034E-01
  0.545307673431E+00  0.719999980927E+01  0.545165472537E-01
  0.547262230806E+00  0.000000000000E+00 -0.547119797050E-01
  0.547262229196E+00  0.179999995232E+01 -0.547119958105E-01
  0.547262229196E+00  0.359999990463E+01 -0.547119958096E-01
  0.547262229196E+00  0.540000009537E+01 -0.547119958105E-01
  0.547262229196E+00  0.719999980927E+01 -0.547119958105E-01
  0.547261603605E+00  0.899999815100E+01 -0.547182516729E-01
  0.547261603646E+00  0.899999815113E+01  0.547182513147E-01
  0.547268563685E+00  0.902736154111E+01 -0.410423508230E-01
  0.547283703277E+00  0.902736154116E+01  0.410453793825E-01
  0.547291285002E+00  0.905472379703E+01  0.302826932504E-05
  0.807540482271E+00  0.000000000000E+00  0.807395429665E-01
  0.810477022652E+00  0.179999995232E+01  0.810332092279E-01
  0.813413505555E+00  0.359999990463E+01  0.813268542219E-01
  0.816349988458E+00  0.540000009537E+01  0.816204992152E-01
  0.819286530967E+00  0.719999980927E+01  0.819141442055E-01
  0.822223015784E+00  0.000000000000E+00 -0.822077700703E-01
  0.822223013672E+00  0.179999995232E+01 -0.822077911899E-01
  0.822223013672E+00  0.359999990463E+01 -0.822077911890E-01
  0.822223013672E+00  0.540000009537E+01 -0.822077911899E-01
  0.822223013672E+00  0.719999980927E+01 -0.822077911899E-01
  0.822222400368E+00  0.899999805533E+01 -0.822139241649E-01
  0.822222400447E+00  0.899999805549E+01  0.822139234427E-01
  0.822239027127E+00  0.904110933057E+01 -0.616630160220E-01
  0.822273478637E+00  0.904110933067E+01  0.616699038926E-01
  0.822290723817E+00  0.908221954772E+01  0.689080853758E-05
  0.114418056916E+01  0.000000000000E+00  0.114403283993E+00
  0.114834121017E+01  0.179999995232E+01  0.114819362923E+00
  0.115250185338E+01  0.359999990463E+01  0.115235419834E+00
  0.115666261580E+01  0.540000009537E+01  0.115651484193E+00
  0.116082325901E+01  0.719999980927E+01  0.116067541098E+00
  0.116498390405E+01  0.000000000000E+00 -0.116483579739E+00
  0.116498390190E+01  0.179999995232E+01 -0.116483601285E+00
  0.116498390190E+01  0.359999990463E+01 -0.116483601284E+00
  0.116498390190E+01  0.540000009537E+01 -0.116483601285E+00
  0.116498390190E+01  0.719999980927E+01 -0.116483601285E+00
  0.116498329991E+01  0.899999796397E+01 -0.116489621042E+00
  0.116498330005E+01  0.899999796413E+01  0.116489619739E+00
  0.116501668770E+01  0.905824743541E+01 -0.873679685408E-01
  0.116508487546E+01  0.905824743559E+01  0.873815953352E-01
  0.116511899892E+01  0.911649494675E+01  0.136265501819E-04
  0.153763370973E+01  0.000000000000E+00  0.153748391788E+00
  0.154322510142E+01  0.179999995232E+01  0.154307536349E+00
  0.154881649461E+01  0.359999990463E+01  0.154866665907E+00
  0.155440788781E+01  0.540000009537E+01  0.155425795464E+00
  0.155999928099E+01  0.719999980927E+01  0.155984939916E+00
  0.156559067511E+01  0.000000000000E+00 -0.156544060211E+00
  0.156559067370E+01  0.179999995232E+01 -0.156544074280E+00
  0.156559067370E+01  0.359999990463E+01 -0.156544074279E+00
  0.156559067370E+01  0.540000009537E+01 -0.156544074280E+00
  0.156559067370E+01  0.719999980927E+01 -0.156544074280E+00
  0.156559008046E+01  0.899999789502E+01 -0.156550006501E+00
  0.156559008069E+01  0.899999789516E+01  0.156550004393E+00
  0.156565042212E+01  0.907827714791E+01 -0.117410438325E+00
  0.156577225408E+01  0.907827714819E+01  0.117434808701E+00
  0.156583321174E+01  0.915655540527E+01  0.243708139266E-04
  0.196428583004E+01  0.000000000000E+00  0.196416270972E+00
  0.197142861800E+01  0.179999995589E+01  0.197127865686E+00
  0.197857149553E+01  0.359999990829E+01  0.197842151941E+00
  0.198571437293E+01  0.540000009912E+01  0.198556438219E+00
  0.199285713099E+01  0.719999981311E+01  0.199270724523E+00
  0.200000000000E+01  0.000000000000E+00 -0.199987701804E+00
  0.200000000000E+01  0.179999995232E+01 -0.199985010841E+00
  0.200000000000E+01  0.359999990463E+01 -0.199985010840E+00
  0.200000000000E+01  0.540000009537E+01 -0.199985010840E+00
  0.200000000000E+01  0.719999980927E+01 -0.199985010842E+00
  0.199999999999E+01  0.899999818182E+01 -0.199988245612E+00
  0.200000000655E+01  0.899999818469E+01  0.199988245235E+00
  0.200009918213E+01  0.909999719166E+01 -0.149987047173E+00
  0.200029754624E+01  0.909999719215E+01  0.150026728699E+00
  0.200039672839E+01  0.919999459525E+01  0.396821077282E-04
  0.240541705162E+01  0.000000000000E+00  0.159443252131E+00
  0.241121557596E+01  0.179999995398E+01  0.158863441783E+00
  0.241701389260E+01  0.359999990637E+01  0.158283601226E+00
  0.242281244755E+01  0.540000009719E+01  0.157703760707E+00
  0.242861100239E+01  0.719999981118E+01  0.157123920222E+00
  0.243440932489E+01  0.000000000000E+00 -0.156544060211E+00
  0.243440932630E+01  0.179999995232E+01 -0.156544074280E+00
  0.243440932630E+01  0.359999990463E+01 -0.156544074279E+00
  0.243440932630E+01  0.540000009537E+01 -0.156544074280E+00
  0.243440932630E+01  0.719999980927E+01 -0.156544074280E+00
  0.243440991959E+01  0.899999789609E+01 -0.156550006618E+00
  0.243440991954E+01  0.899999789689E+01  0.156550008544E+00
  0.243447391330E+01  0.907827714976E+01 -0.117422851574E+00
  0.243460027492E+01  0.907827714962E+01  0.117397549852E+00
  0.243466365261E+01  0.915655445383E+01 -0.253058747630E-04
  0.281344243053E+01  0.000000000000E+00  0.118640928399E+00
  0.281775709428E+01  0.179999995232E+01  0.118209484962E+00
  0.282207199434E+01  0.359999990463E+01  0.117778013017E+00
  0.282638665596E+01  0.540000009537E+01  0.117346541071E+00
  0.283070131760E+01  0.719999980927E+01  0.116915076570E+00
  0.283501621516E+01  0.000000000000E+00 -0.116483579738E+00
  0.283501621731E+01  0.179999995232E+01 -0.116483601284E+00
  0.283501621731E+01  0.359999990463E+01 -0.116483601284E+00
  0.283501621731E+01  0.540000009537E+01 -0.116483601284E+00
  0.283501621731E+01  0.719999980927E+01 -0.116483601284E+00
  0.283501681928E+01  0.899999796493E+01 -0.116489621053E+00
  0.283501681942E+01  0.899999796474E+01  0.116489622384E+00
  0.283505269212E+01  0.905824743668E+01 -0.873749053621E-01
  0.283512326406E+01  0.905824648282E+01  0.873607719397E-01
  0.283515875875E+01  0.911649494816E+01 -0.141367008816E-04
  0.316255067745E+01  0.000000000000E+00  0.837303855876E-01
  0.316559600054E+01  0.179999995232E+01  0.834258838912E-01
  0.316864108313E+01  0.359999990463E+01  0.831213612264E-01
  0.317168640414E+01  0.540000009537E+01  0.828168385608E-01
  0.317473172514E+01  0.719999980927E+01  0.825123158919E-01
[...]
POINT_DATA                 242
SCALARS phi float 1
LOOKUP_TABLE default
  0.000000000000E+00
 -0.693889390391E-16
  0.138777878078E-16
  0.111022302463E-15
 -0.138777878078E-16
  0.208166817117E-16
 -0.277555756156E-16
 -0.416333634234E-16
  0.277555756156E-16
  0.000000000000E+00
  0.277555756156E-16
 -0.277555756156E-16
 -0.277555756156E-16
  0.832667268469E-16
  0.555111512313E-16
  0.138777878078E-16
 -0.416333634234E-16
 -0.416333634234E-16
  0.346944695195E-16
 -0.346944695195E-16
  0.000000000000E+00
 -0.555111512313E-16
 -0.832667268469E-16
 -0.555111512313E-16
  0.693889390391E-16
  0.416333634234E-16
 -0.277555756156E-16
 -0.832667268469E-16
  0.000000000000E+00
 -0.555111512313E-16
 -0.416333634234E-16
  0.138777878078E-16
  0.693889390391E-17
  0.485722573274E-16
  0.277555756156E-16
 -0.346944695195E-16
  0.971445146547E-16
 -0.693889390391E-16
  0.832667268469E-16
  0.000000000000E+00
  0.555111512313E-16
  0.693889390391E-16
  0.111022302463E-15
 -0.277555756156E-16
  0.832667268469E-16
  0.124900090270E-15
  0.138777878078E-16
  0.624500451352E-16
  0.208166817117E-16
 -0.555111512313E-16
 -0.138777878078E-16
 -0.555111512313E-16
  0.693889390391E-16
  0.111022302463E-15
  0.555111512313E-16
  0.555111512313E-16
  0.555111512313E-16
 -0.693889390391E-16
 -0.693889390391E-16
  0.138777878078E-16
  0.832667268469E-16
 -0.138777878078E-16
  0.138777878078E-16
 -0.693889390391E-17
  0.117961196366E-15
  0.485722573274E-16
 -0.416333634234E-16
  0.111022302463E-15
 -0.555111512313E-16
 -0.277555756156E-16
  0.277555756156E-16
 -0.693889390391E-16
  0.277555756156E-16
  0.138777878078E-16
 -0.277555756156E-16
  0.000000000000E+00
  0.138777878078E-15
  0.277555756156E-16
 -0.693889390391E-16
 -0.138777878078E-16
  0.000000000000E+00
 -0.138777878078E-15
 -0.416333634234E-16
 -0.111022302463E-15
  0.555111512313E-16
  0.277555756156E-16
 -0.693889390391E-16
  0.000000000000E+00
  0.277555756156E-16
  0.000000000000E+00
 -0.277555756156E-16
 -0.693889390391E-17
  0.832667268469E-16
 -0.208166817117E-16
 -0.485722573274E-16
  0.277555756156E-16
  0.277555756156E-16
  0.832667268469E-16
  0.693889390391E-16
 -0.138777878078E-16
  0.416333634234E-16
  0.138777878078E-16
  0.000000000000E+00
  0.693889390391E-16
  0.277555756156E-16
 -0.555111512313E-16
  0.277555756156E-16
  0.555111512313E-16
  0.208166817117E-16
 -0.277555756156E-16
  0.138777878078E-16
 -0.112757025938E-16
 -0.242861286637E-16
 -0.277555756156E-16
  0.520417042793E-17
 -0.867361737988E-17
  0.173472347598E-17
 -0.260208521397E-16
 -0.398986399475E-16
 -0.433680868994E-16
 -0.208166817117E-16
 -0.607153216592E-17
 -0.867361737988E-17
 -0.433680868994E-17
 -0.173472347598E-17
 -0.242590236094E-17
  0.693889390391E-16
  0.971445146547E-16
  0.104083408559E-15
 -0.624500451352E-16
  0.346944695195E-16
  0.624500451352E-16
 -0.693889390391E-16
  0.277555756156E-16
  0.693889390391E-17
 -0.416333634234E-16
  0.485722573274E-16
  0.763278329430E-16
 -0.346944695195E-16
 -0.138777878078E-16
  0.346944695195E-16
 -0.138777878078E-15
  0.555111512313E-16
  0.138777878078E-16
  0.416333634234E-16
 -0.555111512313E-16
  0.832667268469E-16
 -0.555111512313E-16
 -0.832667268469E-16
 -0.111022302463E-15
 -0.832667268469E-16
  0.346944695195E-16
  0.346944695195E-16
  0.693889390391E-17
 -0.416333634234E-16
 -0.485722573274E-16
  0.416333634234E-16
 -0.138777878078E-15
 -0.277555756156E-16
 -0.277555756156E-16
  0.416333634234E-16
  0.416333634234E-16
 -0.138777878078E-15
 -0.832667268469E-16
 -0.416333634234E-16
  0.138777878078E-16
  0.555111512313E-16
  0.000000000000E+00
  0.693889390391E-17
  0.000000000000E+00
 -0.138777878078E-16
  0.416333634234E-16
 -0.138777878078E-15
  0.208166817117E-15
 -0.138777878078E-16
  0.111022302463E-15
 -0.693889390391E-16
  0.111022302463E-15
 -0.111022302463E-15
 -0.693889390391E-16
  0.693889390391E-16
 -0.971445146547E-16
 -0.277555756156E-16
  0.138777878078E-16
 -0.208166817117E-16
  0.208166817117E-16
  0.832667268469E-16
  0.693889390391E-16
  0.138777878078E-16
  0.971445146547E-16
 -0.277555756156E-16
  0.000000000000E+00
 -0.166533453694E-15
 -0.138777878078E-16
  0.138777878078E-16
 -0.693889390391E-16
  0.000000000000E+00
  0.277555756156E-16
 -0.208166817117E-16
  0.485722573274E-16
  0.138777878078E-16
 -0.832667268469E-16
 -0.138777878078E-15
 -0.124900090270E-15
  0.416333634234E-16
  0.000000000000E+00
 -0.416333634234E-16
 -0.277555756156E-16
 -0.138777878078E-16
  0.194289029309E-15
  0.000000000000E+00
  0.277555756156E-16
 -0.485722573274E-16
 -0.138777878078E-16
 -0.693889390391E-17
  0.485722573274E-16
 -0.138777878078E-15
  0.138777878078E-16
  0.124900090270E-15
 -0.138777878078E-16
 -0.416333634234E-16
 -0.693889390391E-16
  0.000000000000E+00
  0.416333634234E-16
  0.555111512313E-16
 -0.111022302463E-15
  0.624500451352E-16
 -0.693889390391E-17
 -0.277555756156E-16
 -0.117961196366E-15
 -0.693889390391E-17
  0.693889390391E-16
  0.416333634234E-16
  0.832667268469E-16
  0.832667268469E-16
  0.124900090270E-15
 -0.277555756156E-16
 -0.416333634234E-16
 -0.555111512313E-16
 -0.416333634234E-16
 -0.166533453694E-15
  0.971445146547E-16
SCALARS phi_mu float 1
LOOKUP_TABLE default
  0.863595493155E-01
  0.862047173603E-01
  0.856089770382E-01
  0.839561419860E-01
  0.785653783569E-01
  0.461754555311E-01
  0.936668360181E-01
  0.935356853788E-01
  0.929754021450E-01
  0.913774304367E-01
  0.860402668673E-01
  0.945635368903E-01
  0.944145258895E-01
  0.938363203158E-01
  0.922200180939E-01
  0.868624186163E-01
  0.513965073717E-01
  0.508227666431E-01
  0.509079873143E-01
  0.504967009994E-01
  0.502811888856E-01
  0.988826203338E-01
  0.987649185441E-01
  0.982366865241E-01
  0.967019630434E-01
  0.914444909693E-01
  0.100912460872E+00
  0.100771366898E+00
  0.100219601744E+00
  0.986603525863E-01
  0.933730045803E-01
  0.558255456150E-01
  0.544572812697E-01
  0.547802347492E-01
  0.538006123553E-01
  0.534052351354E-01
  0.102368580344E+00
  0.102254438691E+00
  0.101757702510E+00
  0.100305035997E+00
  0.951922029616E-01
  0.105867146390E+00
  0.105737870519E+00
  0.105225770009E+00
  0.103755935855E+00
  0.986156106007E-01
  0.597951208127E-01
  0.573333272816E-01
  0.580815853322E-01
  0.563203980214E-01
  0.557745043739E-01
  0.102667817342E+00
  0.102538999288E+00
  0.102068967742E+00
  0.100724648192E+00
  0.958865234351E-01
  0.108008962748E+00
  0.107897181491E+00
  0.107443868757E+00
  0.106113397553E+00
  0.101271300025E+00
  0.625571478095E-01
  0.586336213777E-01
  0.600799048945E-01
  0.572747379050E-01
  0.566557881751E-01
  0.972372033296E-01
  0.970597487219E-01
  0.966006245513E-01
  0.953956994526E-01
  0.910656154809E-01
  0.104744003336E+00
  0.104657815385E+00
  0.104289566893E+00
  0.103171353117E+00
  0.988993205879E-01
  0.626206392754E-01
  0.568296182527E-01
  0.593687839724E-01
  0.552305128706E-01
  0.547170108760E-01
  0.823293679645E-01
  0.820411551603E-01
  0.815525923287E-01
  0.805088942892E-01
  0.770349058597E-01
  0.920895106785E-01
  0.920403400014E-01
  0.917902821516E-01
  0.909795735204E-01
  0.876954280346E-01
  0.574863872304E-01
  0.494648418078E-01
  0.536643783092E-01
  0.479338809728E-01
  0.478989003647E-01
  0.526842397199E-01
  0.521712502913E-01
  0.515602439784E-01
  0.506503807525E-01
  0.483998218274E-01
  0.641922376747E-01
  0.641944543775E-01
  0.640968548509E-01
  0.636938093141E-01
  0.618899441204E-01
  0.428968995566E-01
  0.324992254211E-01
  0.391874276607E-01
  0.317575548870E-01
  0.329740583910E-01
 -0.334607069934E-02
 -0.433657463025E-02
 -0.531025519112E-02
 -0.628103849541E-02
 -0.721590292285E-02
  0.807361146612E-02
  0.809604469892E-02
  0.812465105387E-02
  0.814821681814E-02
  0.813001677820E-02
  0.605179007324E-02
 -0.604526008406E-02
  0.430403284996E-02
 -0.433740433336E-02
 -0.323916228047E-04
 -0.607772851074E-01
 -0.614632635766E-01
 -0.620601850716E-01
 -0.623533417950E-01
 -0.612496448838E-01
 -0.501045259474E-01
 -0.501100984514E-01
 -0.500169846683E-01
 -0.496300957945E-01
 -0.479098874821E-01
 -0.325012310120E-01
 -0.429007979799E-01
 -0.317717312704E-01
 -0.392054634363E-01
 -0.330003687252E-01
 -0.908653583388E-01
 -0.910620165734E-01
 -0.910630435802E-01
 -0.905049200518E-01
 -0.874751439485E-01
 -0.810815712590E-01
 -0.810405259217E-01
 -0.808039048963E-01
 -0.800162543950E-01
 -0.768028322127E-01
 -0.494678778761E-01
 -0.574891652493E-01
 -0.479409749123E-01
 -0.536711047620E-01
 -0.479088128290E-01
 -0.104338208535E+00
 -0.104333448161E+00
 -0.104050095998E+00
 -0.103017759350E+00
 -0.988316300982E-01
 -0.967469310420E-01
 -0.966657738642E-01
 -0.963067092562E-01
 -0.952041186656E-01
 -0.909778418222E-01
 -0.568318838636E-01
 -0.626227574390E-01
 -0.552337502719E-01
 -0.593717353880E-01
 -0.547206379460E-01
 -0.107977116496E+00
 -0.107871447969E+00
 -0.107426746142E+00
 -0.106105469386E+00
 -0.101271916742E+00
 -0.102558999090E+00
 -0.102450583199E+00
 -0.102003704678E+00
 -0.100683789734E+00
 -0.958701982997E-01
 -0.586351550987E-01
 -0.625586032607E-01
 -0.572763125534E-01
 -0.600813321078E-01
 -0.566571483033E-01
 -0.105981027194E+00
 -0.105828385570E+00
 -0.105294831237E+00
 -0.103803915300E+00
 -0.986418881711E-01
 -0.102426020744E+00
 -0.102299215339E+00
 -0.101791879988E+00
 -0.100329340108E+00
 -0.952064283883E-01
 -0.573343341011E-01
 -0.597960817531E-01
 -0.563212538521E-01
 -0.580823603196E-01
 -0.557750936448E-01
 -0.101049482049E+00
 -0.100880191648E+00
 -0.100301766616E+00
 -0.987161579964E-01
 -0.934021297635E-01
 -0.989843935266E-01
 -0.988452585159E-01
 -0.982972066575E-01
 -0.967431410154E-01
 -0.914662023660E-01
 -0.544579716538E-01
 -0.558262113856E-01
 -0.538011738193E-01
 -0.547807548765E-01
 -0.534056083589E-01
 -0.946560827208E-01
 -0.944876485121E-01
 -0.938913150421E-01
 -0.922571801793E-01
 -0.868817398773E-01
 -0.937427748358E-01
 -0.935954111757E-01
 -0.930202456697E-01
 -0.914077498154E-01
 -0.860561344092E-01
 -0.508232802125E-01
 -0.513970113291E-01
 -0.504971416572E-01
 -0.509084083754E-01
 -0.502815472800E-01
 -0.863472302066E-01
 -0.861938553022E-01
 -0.856007189680E-01
 -0.839507857170E-01
 -0.785631958049E-01
 -0.461758494050E-01
 -0.863472801170E-01
 -0.861938598675E-01
 -0.856007234621E-01
 -0.839507900466E-01
 -0.785631998424E-01
SCALARS phi_sigma float 1
LOOKUP_TABLE default
 -0.863595493155E-01
 -0.862047173603E-01
 -0.856089770382E-01
 -0.839561419860E-01
 -0.785653783569E-01
 -0.461754555311E-01
 -0.936668360181E-01
 -0.935356853788E-01
 -0.929754021450E-01
 -0.913774304367E-01
 -0.860402668673E-01
 -0.945635368903E-01
 -0.944145258895E-01
 -0.938363203158E-01
 -0.922200180939E-01
 -0.868624186163E-01
 -0.513965073717E-01
 -0.508227666431E-01
 -0.509079873143E-01
 -0.504967009994E-01
 -0.502811888856E-01
 -0.988826203338E-01
 -0.987649185441E-01
 -0.982366865241E-01
 -0.967019630434E-01
 -0.914444909693E-01
 -0.100912460872E+00
 -0.100771366898E+00
 -0.100219601744E+00
 -0.986603525863E-01
 -0.933730045803E-01
 -0.558255456150E-01
 -0.544572812697E-01
 -0.547802347492E-01
 -0.538006123553E-01
 -0.534052351354E-01
 -0.102368580344E+00
 -0.102254438691E+00
 -0.101757702510E+00
 -0.100305035997E+00
 -0.951922029616E-01
 -0.105867146390E+00
 -0.105737870519E+00
 -0.105225770009E+00
 -0.103755935855E+00
 -0.986156106007E-01
 -0.597951208127E-01
 -0.573333272816E-01
 -0.580815853322E-01
 -0.563203980214E-01
 -0.557745043739E-01
 -0.102667817342E+00
 -0.102538999288E+00
 -0.102068967742E+00
 -0.100724648192E+00
 -0.958865234351E-01
 -0.108008962748E+00
 -0.107897181491E+00
 -0.107443868757E+00
 -0.106113397553E+00
 -0.101271300025E+00
 -0.625571478095E-01
 -0.586336213777E-01
 -0.600799048945E-01
 -0.572747379050E-01
 -0.566557881751E-01
 -0.972372033296E-01
 -0.970597487219E-01
 -0.966006245513E-01
 -0.953956994526E-01
 -0.910656154809E-01
 -0.104744003336E+00
 -0.104657815385E+00
 -0.104289566893E+00
 -0.103171353117E+00
 -0.988993205879E-01
 -0.626206392754E-01
 -0.568296182527E-01
 -0.593687839724E-01
 -0.552305128706E-01
 -0.547170108760E-01
 -0.823293679645E-01
 -0.820411551603E-01
 -0.815525923287E-01
 -0.805088942892E-01
 -0.770349058597E-01
 -0.920895106785E-01
 -0.920403400014E-01
 -0.917902821516E-01
 -0.909795735204E-01
 -0.876954280346E-01
 -0.574863872304E-01
 -0.494648418078E-01
 -0.536643783092E-01
 -0.479338809728E-01
 -0.478989003647E-01
 -0.526842397199E-01
 -0.521712502913E-01
 -0.515602439784E-01
 -0.506503807525E-01
 -0.483998218274E-01
 -0.641922376747E-01
 -0.641944543775E-01
 -0.640968548509E-01
 -0.636938093141E-01
 -0.618899441204E-01
 -0.428968995566E-01
 -0.324992254211E-01
 -0.391874276607E-01
 -0.317575548870E-01
 -0.329740583910E-01
  0.334607069934E-02
  0.433657463025E-02
  0.531025519112E-02
  0.628103849541E-02
  0.721590292285E-02
 -0.807361146612E-02
 -0.809604469892E-02
 -0.812465105387E-02
 -0.814821681814E-02
 -0.813001677820E-02
 -0.605179007324E-02
  0.604526008406E-02
 -0.430403284996E-02
  0.433740433336E-02
  0.323916228047E-04
  0.607772851074E-01
  0.614632635766E-01
  0.620601850716E-01
  0.623533417950E-01
  0.612496448838E-01
  0.501045259474E-01
  0.501100984514E-01
  0.500169846683E-01
  0.496300957945E-01
  0.479098874821E-01
  0.325012310120E-01
  0.429007979799E-01
  0.317717312704E-01
  0.392054634363E-01
  0.330003687252E-01
  0.908653583388E-01
  0.910620165734E-01
  0.910630435802E-01
  0.905049200518E-01
  0.874751439485E-01
  0.810815712590E-01
  0.810405259217E-01
  0.808039048963E-01
  0.800162543950E-01
  0.768028322127E-01
  0.494678778761E-01
  0.574891652493E-01
  0.479409749123E-01
  0.536711047620E-01
  0.479088128290E-01
  0.104338208535E+00
  0.104333448161E+00
  0.104050095998E+00
  0.103017759350E+00
  0.988316300982E-01
  0.967469310420E-01
  0.966657738642E-01
  0.963067092562E-01
  0.952041186656E-01
  0.909778418222E-01
  0.568318838636E-01
  0.626227574390E-01
  0.552337502719E-01
  0.593717353880E-01
  0.547206379460E-01
  0.107977116496E+00
  0.107871447969E+00
  0.107426746142E+00
  0.106105469386E+00
  0.101271916742E+00
  0.102558999090E+00
  0.102450583199E+00
  0.102003704678E+00
  0.100683789734E+00
  0.958701982997E-01
  0.586351550987E-01
  0.625586032607E-01
  0.572763125534E-01
  0.600813321078E-01
  0.566571483033E-01
  0.105981027194E+00
  0.105828385570E+00
  0.105294831237E+00
  0.103803915300E+00
  0.986418881711E-01
  0.102426020744E+00
  0.102299215339E+00
  0.101791879988E+00
  0.100329340108E+00
  0.952064283883E-01
  0.573343341011E-01
  0.597960817531E-01
  0.563212538521E-01
  0.580823603196E-01
  0.557750936448E-01
  0.101049482049E+00
  0.100880191648E+00
  0.100301766616E+00
  0.987161579964E-01
  0.934021297635E-01
  0.989843935266E-01
  0.988452585159E-01
  0.982972066575E-01
  0.967431410154E-01
  0.914662023660E-01
  0.544579716538E-01
  0.558262113856E-01
  0.538011738193E-01
  0.547807548765E-01
  0.534056083589E-01
  0.946560827208E-01
  0.944876485121E-01
  0.938913150421E-01
  0.922571801793E-01
  0.868817398773E-01
  0.937427748358E-01
  0.935954111757E-01
  0.930202456697E-01
  0.914077498154E-01
  0.860561344092E-01
  0.508232802125E-01
  0.513970113291E-01
  0.504971416572E-01
  0.509084083754E-01
  0.502815472800E-01
  0.863472302066E-01
  0.861938553022E-01
  0.856007189680E-01
  0.839507857170E-01
  0.785631958049E-01
  0.461758494050E-01
  0.863472801170E-01
  0.861938598675E-01
  0.856007234621E-01
  0.839507900466E-01
  0.785631998424E-01
