# vtk DataFile Version 3.0
TriPan results file. Generated by TriPan, USU AeroLab (c) 2021.
ASCII
DATASET POLYDATA
POINTS                 247 float
  0.000000000000E+00  0.000000000000E+00  0.000000000000E+00
  0.000000000000E+00  0.179999995232E+01  0.000000000000E+00
  0.000000000000E+00  0.359999990463E+01  0.000000000000E+00
  0.000000000000E+00  0.540000009537E+01  0.000000000000E+00
  0.000000000000E+00  0.719999980927E+01  0.000000000000E+00
  0.000000000000E+00  0.900000000000E+01  0.000000000000E+00
  0.744162946939E-01  0.000000000000E+00  0.744162919000E-02
  0.746868997812E-01  0.179999995232E+01  0.746868969873E-02
  0.749575048685E-01  0.359999990463E+01  0.749575020745E-02
  0.752281099558E-01  0.540000009537E+01  0.752281071618E-02
  0.754987150431E-01  0.719999980927E+01  0.754987122491E-02
  0.757693201303E-01  0.000000000000E+00 -0.757693173364E-02
  0.757693201303E-01  0.179999995232E+01 -0.757693173364E-02
  0.757693201303E-01  0.359999990463E+01 -0.757693173364E-02
  0.757693201303E-01  0.540000009537E+01 -0.757693173364E-02
  0.757693201303E-01  0.719999980927E+01 -0.757693173364E-02
  0.757693201303E-01  0.900000000000E+01 -0.757693173364E-02
  0.757693201303E-01  0.900000000000E+01  0.757693173364E-02
  0.757697224617E-01  0.900378799438E+01 -0.568265793845E-02
  0.757705420256E-01  0.900378799438E+01  0.568282138556E-02
  0.757709518075E-01  0.900757694244E+01  0.163249438856E-06
  0.181352928281E+00  0.000000000000E+00  0.181352943182E-01
  0.182012394071E+00  0.179999995232E+01  0.182012394071E-01
  0.182671859860E+00  0.359999990463E+01  0.182671863586E-01
  0.183331325650E+00  0.540000009537E+01  0.183331333101E-01
  0.183990791440E+00  0.719999980927E+01  0.183990802616E-01
  0.184650257230E+00  0.000000000000E+00 -0.184650253505E-01
  0.184650257230E+00  0.179999995232E+01 -0.184650253505E-01
  0.184650257230E+00  0.359999990463E+01 -0.184650253505E-01
  0.184650257230E+00  0.540000009537E+01 -0.184650253505E-01
  0.184650257230E+00  0.719999980927E+01 -0.184650253505E-01
  0.184650257230E+00  0.900000000000E+01 -0.184650253505E-01
  0.184650257230E+00  0.900000000000E+01  0.184650253505E-01
  0.184651583433E+00  0.900923252106E+01 -0.138486372307E-01
  0.184654235840E+00  0.900923252106E+01  0.138491680846E-01
  0.184655562043E+00  0.901846504211E+01  0.530808620169E-06
  0.331838786602E+00  0.000000000000E+00  0.331838801503E-01
  0.333045482635E+00  0.179999995232E+01  0.333045460284E-01
  0.334252148867E+00  0.359999990463E+01  0.334252156317E-01
  0.335458844900E+00  0.540000009537E+01  0.335458852351E-01
  0.336665540934E+00  0.719999980927E+01  0.336665548384E-01
  0.337872207165E+00  0.000000000000E+00 -0.337872207165E-01
  0.337872207165E+00  0.179999995232E+01 -0.337872207165E-01
  0.337872207165E+00  0.359999990463E+01 -0.337872207165E-01
  0.337872207165E+00  0.540000009537E+01 -0.337872207165E-01
  0.337872207165E+00  0.719999980927E+01 -0.337872207165E-01
  0.337872207165E+00  0.900000000000E+01 -0.337872207165E-01
  0.337872207165E+00  0.900000000000E+01  0.337872207165E-01
  0.337875515223E+00  0.901689338684E+01 -0.253400877118E-01
  0.337882071733E+00  0.901689338684E+01  0.253414008766E-01
  0.337885349989E+00  0.903378677368E+01  0.131366152800E-05
  0.537488281727E+00  0.000000000000E+00  0.537488274276E-01
  0.539442777634E+00  0.179999995232E+01  0.539442785084E-01
  0.541397273540E+00  0.359999990463E+01  0.541397295892E-01
  0.543351769447E+00  0.540000009537E+01  0.543351806700E-01
  0.545306265354E+00  0.719999980927E+01  0.545306280255E-01
  0.547260820866E+00  0.000000000000E+00 -0.547260791063E-01
  0.547260820866E+00  0.179999995232E+01 -0.547260791063E-01
  0.547260820866E+00  0.359999990463E+01 -0.547260791063E-01
  0.547260820866E+00  0.540000009537E+01 -0.547260791063E-01
  0.547260820866E+00  0.719999980927E+01 -0.547260791063E-01
  0.547260820866E+00  0.900000000000E+01 -0.547260791063E-01
  0.547260820866E+00  0.900000000000E+01  0.547260791063E-01
  0.547268390656E+00  0.902736282349E+01 -0.410438030958E-01
  0.547283530235E+00  0.902736282349E+01  0.410468317568E-01
  0.547291100025E+00  0.905472564697E+01  0.302831858789E-05
  0.807539045811E+00  0.000000000000E+00  0.807539075613E-01
  0.810475587845E+00  0.179999995232E+01  0.810475572944E-01
  0.813412070274E+00  0.359999990463E+01  0.813412070274E-01
  0.816348552704E+00  0.540000009537E+01  0.816348567605E-01
  0.819285094738E+00  0.719999980927E+01  0.819285064936E-01
  0.822221577168E+00  0.000000000000E+00 -0.822221562266E-01
  0.822221577168E+00  0.179999995232E+01 -0.822221562266E-01
  0.822221577168E+00  0.359999990463E+01 -0.822221562266E-01
  0.822221577168E+00  0.540000009537E+01 -0.822221562266E-01
  0.822221577168E+00  0.719999980927E+01 -0.822221562266E-01
  0.822221577168E+00  0.900000000000E+01 -0.822221562266E-01
  0.822221577168E+00  0.900000000000E+01  0.822221562266E-01
  0.822238802910E+00  0.904111099243E+01 -0.616648979485E-01
  0.822273254395E+00  0.904111099243E+01  0.616717860103E-01
  0.822290480137E+00  0.908222198486E+01  0.689090529704E-05
  0.114417910576E+01  0.000000000000E+00  0.114417918026E+00
  0.114833974838E+01  0.179999995232E+01  0.114833980799E+00
  0.115250039101E+01  0.359999990463E+01  0.115250043571E+00
  0.115666115284E+01  0.540000009537E+01  0.115666113794E+00
  0.116082179546E+01  0.719999980927E+01  0.116082176566E+00
  0.116498243809E+01  0.000000000000E+00 -0.116498239338E+00
  0.116498243809E+01  0.179999995232E+01 -0.116498239338E+00
  0.116498243809E+01  0.359999990463E+01 -0.116498239338E+00
  0.116498243809E+01  0.540000009537E+01 -0.116498239338E+00
  0.116498243809E+01  0.719999980927E+01 -0.116498239338E+00
  0.116498243809E+01  0.900000000000E+01 -0.116498239338E+00
  0.116498243809E+01  0.900000000000E+01  0.116498239338E+00
  0.116501641273E+01  0.905824947357E+01 -0.873702764511E-01
  0.116508460045E+01  0.905824947357E+01  0.873839035630E-01
  0.116511869431E+01  0.911649799347E+01  0.136267226480E-04
  0.153763222694E+01  0.000000000000E+00  0.153763219714E+00
  0.154322361946E+01  0.179999995232E+01  0.154322355986E+00
  0.154881501198E+01  0.359999990463E+01  0.154881492257E+00
  0.155440640450E+01  0.540000009537E+01  0.155440628529E+00
  0.155999779701E+01  0.719999980927E+01  0.155999779701E+00
  0.156558918953E+01  0.000000000000E+00 -0.156558915973E+00
  0.156558918953E+01  0.179999995232E+01 -0.156558915973E+00
  0.156558918953E+01  0.359999990463E+01 -0.156558915973E+00
  0.156558918953E+01  0.540000009537E+01 -0.156558915973E+00
  0.156558918953E+01  0.719999980927E+01 -0.156558915973E+00
  0.156558918953E+01  0.900000000000E+01 -0.156558915973E+00
  0.156558918953E+01  0.900000000000E+01  0.156558915973E+00
  0.156565010548E+01  0.907827949524E+01 -0.117413096130E+00
  0.156577193737E+01  0.907827949524E+01  0.117437466979E+00
  0.156583285332E+01  0.915655899048E+01  0.243710874201E-04
  0.196428573132E+01  0.000000000000E+00  0.196428567171E+00
  0.197142851353E+01  0.179999995232E+01  0.197142854333E+00
  0.197857141495E+01  0.359999990463E+01  0.197857141495E+00
  0.198571431637E+01  0.540000009537E+01  0.198571428657E+00
  0.199285709858E+01  0.719999980927E+01  0.199285715818E+00
  0.200000000000E+01  0.000000000000E+00 -0.200000002980E+00
  0.200000000000E+01  0.179999995232E+01 -0.200000002980E+00
  0.200000000000E+01  0.359999990463E+01 -0.200000002980E+00
  0.200000000000E+01  0.540000009537E+01 -0.200000002980E+00
  0.200000000000E+01  0.719999980927E+01 -0.200000002980E+00
  0.200000000000E+01  0.900000000000E+01 -0.200000002980E+00
  0.200000000000E+01  0.900000000000E+01  0.200000002980E+00
  0.200009918213E+01  0.909999942780E+01 -0.149990081787E+00
  0.200029754639E+01  0.909999942780E+01  0.150029763579E+00
  0.200039672852E+01  0.919999885559E+01  0.396822251787E-04
  0.240541839600E+01  0.000000000000E+00  0.159458145499E+00
  0.241121697426E+01  0.179999995232E+01  0.158878311515E+00
  0.241701531410E+01  0.359999990463E+01  0.158298462629E+00
  0.242281389236E+01  0.540000009537E+01  0.157718613744E+00
  0.242861247063E+01  0.719999980927E+01  0.157138764858E+00
  0.243441081047E+01  0.000000000000E+00 -0.156558915973E+00
  0.243441081047E+01  0.179999995232E+01 -0.156558915973E+00
  0.243441081047E+01  0.359999990463E+01 -0.156558915973E+00
  0.243441081047E+01  0.540000009537E+01 -0.156558915973E+00
  0.243441081047E+01  0.719999980927E+01 -0.156558915973E+00
  0.243441081047E+01  0.900000000000E+01 -0.156558915973E+00
  0.243441081047E+01  0.900000000000E+01  0.156558915973E+00
  0.243447422981E+01  0.907827949524E+01 -0.117425508797E+00
  0.243460059166E+01  0.907827949524E+01  0.117400206625E+00
  0.243466401100E+01  0.915655803680E+01 -0.253061607509E-04
  0.281344389915E+01  0.000000000000E+00  0.118655614555E+00
  0.281775856018E+01  0.179999995232E+01  0.118224143982E+00
  0.282207345963E+01  0.359999990463E+01  0.117792665958E+00
  0.282638812065E+01  0.540000009537E+01  0.117361187935E+00
  0.283070278168E+01  0.719999980927E+01  0.116929717362E+00
  0.283501768112E+01  0.000000000000E+00 -0.116498239338E+00
  0.283501768112E+01  0.179999995232E+01 -0.116498239338E+00
  0.283501768112E+01  0.359999990463E+01 -0.116498239338E+00
  0.283501768112E+01  0.540000009537E+01 -0.116498239338E+00
  0.283501768112E+01  0.719999980927E+01 -0.116498239338E+00
  0.283501768112E+01  0.900000000000E+01 -0.116498239338E+00
  0.283501768112E+01  0.900000000000E+01  0.116498239338E+00
  0.283505296707E+01  0.905824947357E+01 -0.873772129416E-01
  0.283512353897E+01  0.905824851990E+01  0.873630791903E-01
  0.283515906334E+01  0.911649799347E+01 -0.141368718687E-04
  0.316255211830E+01  0.000000000000E+00  0.837447941303E-01
  0.316559743881E+01  0.179999995232E+01  0.834402665496E-01
  0.316864252090E+01  0.359999990463E+01  0.831357389688E-01
  0.317168784142E+01  0.540000009537E+01  0.828312113881E-01
  0.317473316193E+01  0.719999980927E+01  0.825266838074E-01
[...]
CELL_DATA                 440
SCALARS sigma float 1
LOOKUP_TABLE default
  0.139955094541E-06
  0.139955094541E-06
 -0.161761661926E-06
 -0.161761661122E-06
  0.842561378861E-07
  0.842561384551E-07
 -0.422768081793E-07
 -0.422768077490E-07
 -0.536638244952E-08
 -0.536638217197E-08
 -0.860629630062E-08
 -0.860629630062E-08
  0.257777224150E-07
  0.257777223456E-07
 -0.135838932186E-07
 -0.135838932186E-07
  0.198019815295E+00
  0.198019815295E+00
  0.198019805592E+00
  0.198019805592E+00
  0.198019793540E+00
  0.198019793540E+00
  0.198019807240E+00
  0.198019807240E+00
  0.198019788167E+00
  0.198019788167E+00
  0.198019804340E+00
  0.198019804340E+00
  0.198019801150E+00
  0.198019801150E+00
  0.198019798402E+00
  0.198019798402E+00
 -0.370377889469E-08
 -0.371724720449E-08
  0.257742828469E-08
  0.163832564598E-07
 -0.146522217692E-07
 -0.138777878078E-16
  0.142957011923E-07
 -0.107613651185E-07
 -0.816495356049E-08
  0.136582314764E-07
  0.218351857567E-07
  0.131462207370E-07
 -0.298897250561E-07
 -0.262464119466E-07
  0.206711443240E-07
 -0.691775682571E-08
 -0.182256746972E+00
 -0.185378272303E+00
 -0.198019755906E+00
 -0.198019823324E+00
 -0.198019797837E+00
 -0.198019772878E+00
 -0.198019809724E+00
 -0.198019858988E+00
 -0.198019815543E+00
 -0.198019727119E+00
 -0.198019871478E+00
 -0.198019848481E+00
 -0.198019767756E+00
 -0.198019891962E+00
 -0.198019719992E+00
 -0.198019710292E+00
  0.139955094555E-06
  0.139955094555E-06
 -0.161761661899E-06
 -0.161761661135E-06
  0.842561378722E-07
  0.842561384412E-07
 -0.422768081931E-07
 -0.422768077352E-07
 -0.536638243565E-08
 -0.536638217197E-08
 -0.860629628674E-08
 -0.860629628674E-08
  0.257777224150E-07
  0.257777223456E-07
 -0.135838932186E-07
 -0.135838932325E-07
  0.198019815295E+00
  0.198019815295E+00
  0.198019805592E+00
  0.198019805592E+00
  0.198019793540E+00
  0.198019793540E+00
  0.198019807240E+00
  0.198019807240E+00
  0.198019788167E+00
  0.198019788167E+00
  0.198019804340E+00
  0.198019804340E+00
  0.198019801150E+00
  0.198019801150E+00
  0.198019798402E+00
  0.198019798402E+00
 -0.369053994309E-08
 -0.370377889469E-08
  0.599311532345E-08
  0.257742828469E-08
  0.243245923404E-08
 -0.146522217831E-07
  0.712276258807E-08
  0.142957011645E-07
 -0.813584166703E-08
 -0.816495356049E-08
  0.130518874042E-07
  0.218351857012E-07
 -0.335042342342E-07
 -0.298897250145E-07
  0.205988209823E-07
  0.206711443240E-07
 -0.185378221803E+00
 -0.188515369368E+00
 -0.198019823324E+00
 -0.198019759136E+00
 -0.198019772878E+00
 -0.198019860400E+00
 -0.198019858988E+00
 -0.198019742158E+00
 -0.198019727119E+00
 -0.198019856628E+00
 -0.198019848481E+00
 -0.198019825317E+00
 -0.198019891962E+00
 -0.198019806901E+00
 -0.198019710292E+00
 -0.198019700521E+00
  0.139955094541E-06
  0.139955094541E-06
 -0.161761661913E-06
 -0.161761661122E-06
  0.842561378722E-07
  0.842561384690E-07
 -0.422768081793E-07
 -0.422768077490E-07
 -0.536638246340E-08
 -0.536638217197E-08
 -0.860629628674E-08
 -0.860629627286E-08
  0.257777224011E-07
  0.257777223317E-07
 -0.135838932325E-07
 -0.135838932186E-07
  0.198019815295E+00
  0.198019815295E+00
  0.198019805592E+00
  0.198019805592E+00
  0.198019793540E+00
  0.198019793540E+00
  0.198019807240E+00
  0.198019807240E+00
  0.198019788167E+00
  0.198019788167E+00
  0.198019804340E+00
  0.198019804340E+00
  0.198019801150E+00
  0.198019801150E+00
  0.198019798402E+00
  0.198019798402E+00
 -0.367726457617E-08
 -0.369053992921E-08
  0.938322165800E-08
  0.599311537897E-08
 -0.416333634234E-16
  0.243245915077E-08
  0.141933307884E-07
  0.712276260195E-08
 -0.810657643791E-08
 -0.813584166703E-08
 -0.867024634033E-08
  0.130518872654E-07
 -0.259656721818E-07
 -0.335042341371E-07
  0.205247226576E-07
  0.205988209823E-07
 -0.188515316184E+00
 -0.191667954730E+00
 -0.198019759136E+00
 -0.198019809146E+00
 -0.198019860400E+00
 -0.198019814543E+00
 -0.198019742158E+00
 -0.198019791540E+00
 -0.198019856628E+00
 -0.198019784839E+00
 -0.198019825317E+00
 -0.198019778559E+00
 -0.198019806901E+00
 -0.198019936294E+00
 -0.198019700521E+00
 -0.198019684758E+00
  0.139955094541E-06
  0.139955094541E-06
 -0.161761661926E-06
 -0.161761661122E-06
  0.842561378583E-07
  0.842561384551E-07
 -0.422768081654E-07
 -0.422768077490E-07
 -0.536638244952E-08
 -0.536638217197E-08
 -0.860629627286E-08
 -0.860629627286E-08
  0.257777224150E-07
  0.257777223456E-07
 -0.135838932186E-07
 -0.135838932186E-07
  0.198019815295E+00
  0.198019815295E+00
  0.198019805592E+00
  0.198019805592E+00
  0.198019793540E+00
  0.198019793540E+00
  0.198019807240E+00
  0.198019807240E+00
  0.198019788167E+00
  0.198019788167E+00
  0.198019804340E+00
  0.198019804340E+00
  0.198019801150E+00
  0.198019801150E+00
  0.198019798402E+00
  0.198019798402E+00
 -0.366408439700E-08
 -0.367726456230E-08
  0.127490260987E-07
  0.938322171351E-08
 -0.241631906150E-08
 -0.000000000000E+00
  0.353585230539E-08
  0.141933308023E-07
 -0.161546775401E-07
 -0.810657634076E-08
  0.579772341247E-12
 -0.867024634033E-08
  0.739146399642E-08
 -0.259656721818E-07
  0.136325824240E-07
  0.205247224216E-07
 -0.191667898779E+00
 -0.194836064261E+00
 -0.198019809146E+00
 -0.198019841542E+00
 -0.198019814543E+00
 -0.198019789369E+00
 -0.198019791540E+00
 -0.198019841282E+00
 -0.198019784839E+00
 -0.198019695323E+00
 -0.198019778559E+00
 -0.198019917175E+00
 -0.198019936294E+00
 -0.198019834237E+00
 -0.198019684758E+00
 -0.198019674808E+00
  0.139955094541E-06
  0.139955094541E-06
 -0.161761661899E-06
 -0.161761661135E-06
  0.842561378722E-07
  0.842561384551E-07
 -0.422768081793E-07
 -0.422768077490E-07
 -0.536638246340E-08
 -0.536638217197E-08
 -0.860629627286E-08
 -0.860629627286E-08
  0.257777223872E-07
  0.257777223317E-07
 -0.135838932325E-07
 -0.135838932325E-07
  0.198019815295E+00
  0.198019815295E+00
  0.198019805592E+00
  0.198019805592E+00
  0.198019793540E+00
  0.198019793540E+00
  0.198019807240E+00
  0.198019807240E+00
  0.198019788167E+00
  0.198019788167E+00
  0.198019804340E+00
  0.198019804340E+00
  0.198019801150E+00
  0.198019801150E+00
  0.198019798402E+00
  0.198019798402E+00
 -0.365086769150E-08
 -0.366408438313E-08
 -0.846687442380E-09
  0.127490261265E-07
  0.240704334242E-08
 -0.241631901987E-08
 -0.140924189956E-07
  0.353585224988E-08
  0.536566209519E-08
 -0.161546773597E-07
 -0.861033869204E-08
  0.579758463459E-12
  0.368500432946E-08
  0.739146396866E-08
  0.135838932325E-07
  0.136325824102E-07
 -0.194836005454E+00
 -0.198019815295E+00
 -0.198019841542E+00
 -0.198019776713E+00
 -0.198019789369E+00
 -0.198019810416E+00
 -0.198019841282E+00
 -0.198019807240E+00
 -0.198019695323E+00
 -0.198019843420E+00
 -0.198019917175E+00
 -0.198019719392E+00
 -0.198019834237E+00
 -0.198019960539E+00
 -0.198019674808E+00
 -0.198019664796E+00
  0.125301842221E-06
 -0.516725428720E-05
 -0.144829110704E-06
 -0.419690310019E-06
  0.754367005251E-07
 -0.240780487511E-05
 -0.378518273531E-07
 -0.420052668394E-05
 -0.480476047837E-08
 -0.587601300950E-05
 -0.770571820241E-08
 -0.651435023571E-05
  0.230806414259E-07
  0.336414566639E-04
 -0.121618369125E-07
  0.177275768610E+00
  0.177269786669E+00
  0.177278987217E+00
  0.177274815858E+00
  0.177281908971E+00
  0.177279654418E+00
  0.177283958075E+00
  0.177282425615E+00
  0.177285735870E+00
  0.177285140309E+00
  0.177286710545E+00
  0.177286260687E+00
  0.177287933196E+00
  0.177288133593E+00
  0.177284028856E+00
 -0.326859264654E-08
  0.471313498668E-05
 -0.758051357796E-09
 -0.708066458063E-06
  0.215505406576E-08
  0.310342730084E-06
 -0.126171216808E-07
  0.386322431170E-06
  0.480395088986E-08
  0.622992761462E-06
 -0.770896724234E-08
 -0.493344283398E-06
  0.329923673104E-08
 -0.621545002424E-06
  0.121618375232E-07
 -0.177331588574E+00
 -0.177408880529E+00
 -0.177289908817E+00
 -0.177290470409E+00
 -0.177289544636E+00
 -0.177289218629E+00
 -0.177289836104E+00
 -0.177290003677E+00
 -0.177289672462E+00
 -0.177289755732E+00
 -0.177289426781E+00
 -0.177289270966E+00
 -0.177290067859E+00
 -0.177290276435E+00
 -0.177285747545E+00
 -0.274938877969E-01
 -0.274958340733E-01
 -0.275054010217E-01
 -0.275021398355E-01
 -0.275009473062E-01
 -0.275086279946E-01
 -0.275023327900E-01
 -0.275143626022E-01
 -0.275028545741E-01
 -0.275165733531E-01
 -0.275039034045E-01
 -0.275206984855E-01
 -0.275025272778E-01
 -0.274220137379E-01
 -0.274853626469E-01
  0.137471570123E+00
  0.137456436640E+00
  0.137480983308E+00
  0.137471931973E+00
  0.137489749370E+00
  0.137482010968E+00
  0.137495894672E+00
  0.137491436768E+00
  0.137501032739E+00
  0.137499137225E+00
  0.137502734387E+00
  0.137501311658E+00
  0.137510280928E+00
  0.137508059558E+00
  0.137509786195E+00
  0.274940149095E-01
  0.274936126733E-01
  0.275053544524E-01
  0.274986835740E-01
  0.275004616899E-01
  0.275013819139E-01
  0.275010527726E-01
  0.275003485715E-01
  0.275001908244E-01
  0.274977719297E-01
  0.275000130500E-01
  0.274975355510E-01
  0.274967269004E-01
  0.274919814786E-01
  0.274947989696E-01
 -0.137600368317E+00
 -0.137619686672E+00
 -0.137519469798E+00
 -0.137518291804E+00
 -0.137516012562E+00
 -0.137517209661E+00
 -0.137515648719E+00
 -0.137516390039E+00
 -0.137513499835E+00
 -0.137513946013E+00
 -0.137511132305E+00
 -0.137510648089E+00
 -0.137516281015E+00
 -0.137514438174E+00
 -0.137513887210E+00
SCALARS C_p float 1
LOOKUP_TABLE default
 -0.875060775069E+00
 -0.876869136161E+00
 -0.453729837296E+00
 -0.457568878454E+00
 -0.295167524804E+00
 -0.297654772206E+00
 -0.223645506272E+00
 -0.225403843280E+00
 -0.190279714581E+00
 -0.191549697436E+00
 -0.182187597343E+00
 -0.183072824697E+00
 -0.204899157680E+00
 -0.205642477666E+00
 -0.373493321365E+00
 -0.373613711362E+00
 -0.309487496463E+00
 -0.309233832347E+00
 -0.395897356758E-01
 -0.397018609233E-01
  0.803554344024E-01
  0.799184264774E-01
  0.182303405667E+00
  0.181566387725E+00
  0.286052775621E+00
  0.284998235632E+00
  0.407701086079E+00
  0.406290683310E+00
  0.574447039973E+00
  0.572612343540E+00
  0.847876161438E+00
  0.847160715615E+00
 -0.880440574920E+00
 -0.888748294055E+00
 -0.458288707885E+00
 -0.463187377038E+00
 -0.297957572413E+00
 -0.301091749190E+00
 -0.225535660625E+00
 -0.227726404035E+00
 -0.191565416623E+00
 -0.193118717522E+00
 -0.182928969312E+00
 -0.183960716976E+00
 -0.203610342129E+00
 -0.204055459317E+00
 -0.365136262733E+00
 -0.363150853658E+00
 -0.315962212709E+00
 -0.314075001133E+00
 -0.571599013556E-01
 -0.538194824228E-01
  0.732109915540E-01
  0.741577749806E-01
  0.176970048772E+00
  0.177257393701E+00
  0.281372723027E+00
  0.281211362375E+00
  0.403153700836E+00
  0.402603837777E+00
  0.569736725987E+00
  0.568781655619E+00
  0.843592929916E+00
  0.842367223408E+00
 -0.848504496257E+00
 -0.866529424328E+00
 -0.439415920879E+00
 -0.453729993401E+00
 -0.285849788269E+00
 -0.295168071775E+00
 -0.217018201396E+00
 -0.223646672542E+00
 -0.185470059856E+00
 -0.190281694707E+00
 -0.178785231170E+00
 -0.182190469442E+00
 -0.202428738890E+00
 -0.204902904137E+00
 -0.372302250046E+00
 -0.373497500618E+00
 -0.309237968621E+00
 -0.308526592949E+00
 -0.397063351747E-01
 -0.402477705653E-01
  0.799141620948E-01
  0.782122770151E-01
  0.181562756832E+00
  0.178698473342E+00
  0.284995436624E+00
  0.280892798086E+00
  0.406288722796E+00
  0.400792628947E+00
  0.572611118466E+00
  0.565467578076E+00
  0.844566953168E+00
  0.839355994682E+00
 -0.851348972876E+00
 -0.880440570340E+00
 -0.442722954174E+00
 -0.458288893300E+00
 -0.287873659843E+00
 -0.297958171643E+00
 -0.218385364652E+00
 -0.225536906340E+00
 -0.186392399367E+00
 -0.191567511533E+00
 -0.179302137100E+00
 -0.182932005273E+00
 -0.201408061551E+00
 -0.203614211566E+00
 -0.366003795689E+00
 -0.365140353545E+00
 -0.314078624298E+00
 -0.312239927059E+00
 -0.538223937422E-01
 -0.508069806584E-01
  0.741541253167E-01
  0.739142114941E-01
  0.177254129307E+00
  0.175488086937E+00
  0.281208797761E+00
  0.278073034352E+00
  0.402602034607E+00
  0.398047514829E+00
  0.568780539789E+00
  0.562612116227E+00
  0.842366673590E+00
  0.835421277250E+00
 -0.775422753324E+00
 -0.840204482194E+00
 -0.401182299521E+00
 -0.439417080336E+00
 -0.261063523319E+00
 -0.285853699851E+00
 -0.199558686106E+00
 -0.217026320886E+00
 -0.172961379196E+00
 -0.185483527732E+00
 -0.170004696082E+00
 -0.178804391536E+00
 -0.196332270365E+00
 -0.202453091427E+00
 -0.368611936583E+00
 -0.372329836982E+00
 -0.308553348882E+00
 -0.306432004864E+00
 -0.402773634897E-01
 -0.413454458546E-01
  0.781833464967E-01
  0.739675125527E-01
  0.178673284104E+00
  0.171140920372E+00
  0.280873069457E+00
  0.269771676263E+00
  0.400778658629E+00
  0.385676880676E+00
  0.565458760812E+00
  0.545664011805E+00
  0.836748633656E+00
  0.817297870114E+00
 -0.775772423522E+00
 -0.851348847211E+00
 -0.403161042514E+00
 -0.442724186054E+00
 -0.262270743900E+00
 -0.287877696035E+00
 -0.200366708381E+00
 -0.218393668679E+00
 -0.173494165197E+00
 -0.186406127880E+00
 -0.170279461886E+00
 -0.179321658285E+00
 -0.195585623075E+00
 -0.201432589578E+00
 -0.364357851321E+00
 -0.366030869225E+00
 -0.312265338295E+00
 -0.309025387772E+00
 -0.508321340740E-01
 -0.483213728198E-01
  0.738869590177E-01
  0.711590613630E-01
  0.175463882503E+00
  0.169058934047E+00
  0.278053925392E+00
  0.267952250341E+00
  0.398033956253E+00
  0.383910708681E+00
  0.562603586089E+00
  0.543824514204E+00
  0.835416904900E+00
  0.814244007446E+00
 -0.563739894610E+00
 -0.767761398629E+00
 -0.291650511309E+00
 -0.401191162196E+00
 -0.191225463714E+00
 -0.261094592200E+00
 -0.151776403635E+00
 -0.199622758653E+00
 -0.140025456400E+00
 -0.173065273578E+00
 -0.147950964078E+00
 -0.170148253390E+00
 -0.182157984084E+00
 -0.196508355496E+00
 -0.358251847797E+00
 -0.368813799977E+00
 -0.306627114596E+00
 -0.298137486010E+00
 -0.415701417798E-01
 -0.413471454301E-01
  0.737373958343E-01
  0.654194136268E-01
  0.170930372947E+00
  0.152506094865E+00
  0.269599401850E+00
  0.239571752850E+00
  0.385550450931E+00
  0.341938474848E+00
  0.545581959030E+00
  0.485295618239E+00
  0.814637745106E+00
  0.743798579264E+00
 -0.562233590725E+00
 -0.775771350552E+00
 -0.292317357053E+00
 -0.403170070373E+00
 -0.191627260282E+00
 -0.262302095824E+00
 -0.152038829246E+00
 -0.200431195068E+00
 -0.140187266962E+00
 -0.173598642824E+00
 -0.148006790063E+00
 -0.170423833701E+00
 -0.181721404171E+00
 -0.195761963401E+00
 -0.356054074289E+00
 -0.364558347082E+00
 -0.309216599727E+00
 -0.299622140697E+00
 -0.485333204629E-01
 -0.447110913253E-01
  0.709337775971E-01
  0.641176452799E-01
  0.168851198837E+00
  0.151565423782E+00
  0.267781719032E+00
  0.238765863753E+00
  0.383785426139E+00
  0.341168618747E+00
  0.543743265256E+00
  0.484498467408E+00
  0.814201062855E+00
  0.741726982139E+00
  0.541017387086E-01
 -0.557963831956E+00
  0.324638057355E-02
 -0.291651406314E+00
 -0.215235478150E-01
 -0.191278340842E+00
 -0.417049544281E-01
 -0.151940331037E+00
 -0.607452614443E-01
 -0.140350049790E+00
 -0.818991886378E-01
 -0.148505576887E+00
 -0.112117405019E+00
 -0.183101904257E+00
 -0.232895570071E+00
 -0.360231540132E+00
 -0.300057026881E+00
 -0.158188948908E+00
 -0.449814758068E-01
  0.403141309846E-02
  0.610402291340E-01
  0.564815166261E-01
  0.148143936244E+00
  0.930122515527E-01
  0.235753967355E+00
  0.123009420986E+00
  0.338942022883E+00
  0.150745722292E+00
  0.483207464380E+00
  0.180284544676E+00
  0.740065802172E+00
  0.232834769313E+00
  0.541098719183E-01
 -0.562277474666E+00
  0.325011218689E-02
 -0.292318299729E+00
 -0.215228495294E-01
 -0.191680547430E+00
 -0.417122234633E-01
 -0.152203552951E+00
 -0.607616099339E-01
 -0.140513093267E+00
 -0.819225356579E-01
 -0.148563139588E+00
 -0.112129063246E+00
 -0.182665867970E+00
 -0.232825051054E+00
 -0.358031151428E+00
 -0.301529841551E+00
 -0.158227989640E+00
 -0.482999123520E-01
  0.405956995609E-02
  0.597561350545E-01
  0.564813615150E-01
  0.147214268176E+00
  0.930103292078E-01
  0.234955369583E+00
  0.123010236689E+00
  0.338177196387E+00
  0.150750676014E+00
  0.482413923311E+00
  0.180294615589E+00
  0.740530188777E+00
  0.232836919310E+00
  0.527578575468E-01
  0.598106516023E-02
 -0.684020123554E-03
 -0.218898250047E-01
 -0.274460707813E-01
 -0.443778087581E-01
 -0.492281202752E-01
 -0.652796087751E-01
 -0.695446855645E-01
 -0.876235535621E-01
 -0.918152885235E-01
 -0.117047820831E+00
 -0.123759204863E+00
 -0.226788309308E+00
 -0.250886535894E+00
 -0.209758675098E+00
 -0.209688280813E+00
 -0.885476591439E-01
 -0.985332494108E-01
 -0.643130846040E-01
 -0.757857821156E-01
 -0.507945888827E-01
 -0.626333440773E-01
 -0.409901619322E-01
 -0.532506870371E-01
 -0.319413850147E-01
 -0.457978960890E-01
 -0.214524250746E-01
 -0.418643759158E-01
  0.635451387901E-02
  0.527662051789E-01
  0.598464288356E-02
 -0.677114153784E-03
 -0.218875138777E-01
 -0.274423498663E-01
 -0.443822781887E-01
 -0.492341196238E-01
 -0.652937199318E-01
 -0.695630544646E-01
 -0.876501586412E-01
 -0.918445784262E-01
 -0.117069362430E+00
 -0.123784034146E+00
 -0.226902450910E+00
 -0.250798196391E+00
 -0.209742835030E+00
 -0.209636242155E+00
 -0.884474106062E-01
 -0.984337795137E-01
 -0.642534078850E-01
 -0.757371480137E-01
 -0.507515649700E-01
 -0.626058744100E-01
 -0.409645252618E-01
 -0.532393621590E-01
 -0.319283111923E-01
 -0.457944905166E-01
 -0.214434205994E-01
 -0.418554746931E-01
  0.636636733928E-02
 -0.141259660676E-02
 -0.464776627248E-01
 -0.498314986665E-01
 -0.727325871509E-01
 -0.723496645711E-01
 -0.926329434501E-01
 -0.893104037033E-01
 -0.110495680078E+00
 -0.104029123325E+00
 -0.129284537600E+00
 -0.119535019327E+00
 -0.154636676978E+00
 -0.141352989828E+00
 -0.247246812507E+00
 -0.246629269934E+00
 -0.231872891248E+00
 -0.216897617136E+00
 -0.138449025025E+00
 -0.140028140525E+00
 -0.121636591451E+00
 -0.127419025367E+00
 -0.113193316851E+00
 -0.120907334163E+00
 -0.106986602209E+00
 -0.115885446648E+00
 -0.100313648116E+00
 -0.110757269685E+00
 -0.908738657419E-01
 -0.106052212963E+00
 -0.629206854689E-01
 -0.139833164753E-02
 -0.464706587574E-01
 -0.498203184587E-01
 -0.727255432996E-01
 -0.723439029237E-01
 -0.926327713328E-01
 -0.893163275110E-01
 -0.110507136927E+00
 -0.104048035485E+00
 -0.129315275499E+00
 -0.119563551593E+00
 -0.154689354589E+00
 -0.141355936982E+00
 -0.247361831590E+00
 -0.246684086644E+00
 -0.231841730931E+00
 -0.216813422356E+00
 -0.138391680700E+00
 -0.139950733261E+00
 -0.121584824288E+00
 -0.127361348023E+00
 -0.113157031550E+00
 -0.120873812933E+00
 -0.106967755460E+00
 -0.115872844428E+00
 -0.100308868483E+00
 -0.110758178481E+00
 -0.908755355106E-01
 -0.106052936004E+00
 -0.629230601688E-01
VECTORS v float
  0.136932860089E+03 -0.102225345445E-01  0.136932666528E+02
  0.136998875495E+03  0.586882254822E-04  0.136998681841E+02
  0.120570717434E+03  0.586882254822E-04  0.120570914422E+02
  0.120729814952E+03  0.977862486940E-02  0.120730012199E+02
  0.113805427690E+03  0.977862486940E-02  0.113805330843E+02
  0.113914650405E+03  0.191690057456E-01  0.113914553465E+02
  0.110618509281E+03  0.191690057456E-01  0.110618556514E+02
  0.110697956281E+03  0.285032509054E-01  0.110698003549E+02
  0.109099937345E+03  0.285032509054E-01  0.109099943258E+02
  0.109158121872E+03  0.374801657824E-01  0.109158127789E+02
  0.108728444127E+03  0.374801657824E-01  0.108728453578E+02
  0.108769141737E+03  0.453074109451E-01  0.108769151191E+02
  0.109767889688E+03  0.453074109451E-01  0.109767861109E+02
  0.109801739815E+03  0.529164108374E-01  0.109801711228E+02
  0.117196119406E+03  0.529164108374E-01  0.117196135485E+02
  0.117201254990E+03  0.541682233381E-01  0.117201271069E+02
  0.114432827562E+03  0.541682233381E-01 -0.114432843262E+02
  0.114421742190E+03  0.568703133197E-01 -0.114421757888E+02
  0.101960257684E+03  0.568703133197E-01 -0.101960261478E+02
  0.101965756688E+03  0.556342200105E-01 -0.101965760483E+02
  0.958980844819E+02  0.556342200105E-01 -0.958980761421E+01
  0.959208692116E+02  0.512521028472E-01 -0.959208608699E+01