# vtk DataFile Version 3.0
MFTran results file. Generated by MFTran, USU AeroLab (c) 2021.
ASCII
DATASET POLYDATA
POINTS                  42 float
     -0.750000000000      -0.048943482339       0.000000000000
    -99.511144763573      -0.048943482339      -9.876114476357
     -0.750000000000       0.000000000000       0.000000000000
    -99.511144763573       0.000000000000      -9.876114476357
     -0.750000000000      -0.190983012319       0.000000000000
    -99.511144763573      -0.190983012319      -9.876114476357
     -0.750000000000      -0.412214756012       0.000000000000
    -99.511144763573      -0.412214756012      -9.876114476357
     -0.750000000000      -0.690982997417       0.000000000000
    -99.511144763573      -0.690982997417      -9.876114476357
     -0.750000000000      -1.000000000000       0.000000000000
    -99.511144763573      -1.000000000000      -9.876114476357
     -0.750000000000      -1.309016942980       0.000000000000
    -99.511144763573      -1.309016942980      -9.876114476357
     -0.750000000000      -1.587785243990       0.000000000000
    -99.511144763573      -1.587785243990      -9.876114476357
     -0.750000000000      -1.809016942980       0.000000000000
    -99.511144763573      -1.809016942980      -9.876114476357
     -0.750000000000      -1.951056480410       0.000000000000
    -99.511144763573      -1.951056480410      -9.876114476357
     -0.750000000000      -2.000000000000       0.000000000000
    -99.511144763573      -2.000000000000      -9.876114476357
     -0.750000000000       0.048943482339       0.000000000000
    -99.511144763573       0.048943482339      -9.876114476357
     -0.750000000000       0.190983012319       0.000000000000
    -99.511144763573       0.190983012319      -9.876114476357
     -0.750000000000       0.412214756012       0.000000000000
    -99.511144763573       0.412214756012      -9.876114476357
     -0.750000000000       0.690982997417       0.000000000000
    -99.511144763573       0.690982997417      -9.876114476357
     -0.750000000000       1.000000000000       0.000000000000
    -99.511144763573       1.000000000000      -9.876114476357
     -0.750000000000       1.309016942980       0.000000000000
    -99.511144763573       1.309016942980      -9.876114476357
     -0.750000000000       1.587785243990       0.000000000000
    -99.511144763573       1.587785243990      -9.876114476357
     -0.750000000000       1.809016942980       0.000000000000
    -99.511144763573       1.809016942980      -9.876114476357
     -0.750000000000       1.951056480410       0.000000000000
    -99.511144763573       1.951056480410      -9.876114476357
     -0.750000000000       2.000000000000       0.000000000000
    -99.511144763573       2.000000000000      -9.876114476357
POLYGONS                  40                 160
3                   0                   1                   3
3                   0                   3                   2
3                   4                   5                   1
3                   4                   1                   0
3                   6                   7                   5
3                   6                   5                   4
3                   8                   9                   7
3                   8                   7                   6
3                  10                  11                   9
3                  10                   9                   8
3                  12                  13                  11
3                  12                  11                  10
3                  14                  15                  13
3                  14                  13                  12
3                  16                  17                  15
3                  16                  15                  14
3                  18                  19                  17
3                  18                  17                  16
3                  20                  21                  19
3                  20                  19                  18
3                   2                   3                  23
3                   2                  23                  22
3                  22                  23                  25
3                  22                  25                  24
3                  24                  25                  27
3                  24                  27                  26
3                  26                  27                  29
3                  26                  29                  28
3                  28                  29                  31
3                  28                  31                  30
3                  30                  31                  33
3                  30                  33                  32
3                  32                  33                  35
3                  32                  35                  34
3                  34                  35                  37
3                  34                  37                  36
3                  36                  37                  39
3                  36                  39                  38
3                  38                  39                  41
3                  38                  41                  40
CELL_DATA                  40
NORMALS panel_normals float
      0.099503719021       0.000000000000      -0.995037190210
      0.099503719021       0.000000000000      -0.995037190210
      0.099503719021       0.000000000000      -0.995037190210
      0.099503719021       0.000000000000      -0.995037190210
      0.099503719021       0.000000000000      -0.995037190210
      0.099503719021       0.000000000000      -0.995037190210
      0.099503719021       0.000000000000      -0.995037190210
      0.099503719021       0.000000000000      -0.995037190210
      0.099503719021       0.000000000000      -0.995037190210
      0.099503719021       0.000000000000      -0.995037190210
      0.099503719021       0.000000000000      -0.995037190210
      0.099503719021       0.000000000000      -0.995037190210
      0.099503719021       0.000000000000      -0.995037190210
      0.099503719021       0.000000000000      -0.995037190210
      0.099503719021       0.000000000000      -0.995037190210
      0.099503719021       0.000000000000      -0.995037190210
      0.099503719021       0.000000000000      -0.995037190210
      0.099503719021       0.000000000000      -0.995037190210
      0.099503719021       0.000000000000      -0.995037190210
      0.099503719021       0.000000000000      -0.995037190210
      0.099503719021       0.000000000000      -0.995037190210
      0.099503719021       0.000000000000      -0.995037190210
      0.099503719021       0.000000000000      -0.995037190210
      0.099503719021       0.000000000000      -0.995037190210
      0.099503719021       0.000000000000      -0.995037190210
      0.099503719021       0.000000000000      -0.995037190210
      0.099503719021       0.000000000000      -0.995037190210
      0.099503719021       0.000000000000      -0.995037190210
      0.099503719021       0.000000000000      -0.995037190210
      0.099503719021       0.000000000000      -0.995037190210
      0.099503719021       0.000000000000      -0.995037190210
      0.099503719021       0.000000000000      -0.995037190210
      0.099503719021       0.000000000000      -0.995037190210
      0.099503719021       0.000000000000      -0.995037190210
      0.099503719021       0.000000000000      -0.995037190210
      0.099503719021       0.000000000000      -0.995037190210
      0.099503719021       0.000000000000      -0.995037190210
      0.099503719021       0.000000000000      -0.995037190210
      0.099503719021       0.000000000000      -0.995037190210
      0.099503719021       0.000000000000      -0.995037190210
SCALARS index integer 1
LOOKUP_TABLE default
                   1
                   2
                   3
                   4
                   5
                   6
                   7
                   8
                   9
                  10
                  11
                  12
                  13
                  14
                  15
                  16
                  17
                  18
                  19
                  20
                  21
                  22
                  23
                  24
                  25
                  26
                  27
                  28
                  29
                  30
                  31
                  32
                  33
                  34
                  35
                  36
                  37
                  38
                  39
                  40
SCALARS sigma float 1
LOOKUP_TABLE default
      0.000000000000
      0.000000000000
      0.000000000000
      0.000000000000
      0.000000000000
      0.000000000000
      0.000000000000
      0.000000000000
      0.000000000000
      0.000000000000
      0.000000000000
      0.000000000000
      0.000000000000
      0.000000000000
      0.000000000000
      0.000000000000
      0.000000000000
      0.000000000000
      0.000000000000
      0.000000000000
      0.000000000000
      0.000000000000
      0.000000000000
      0.000000000000
      0.000000000000
      0.000000000000
      0.000000000000
      0.000000000000
      0.000000000000
      0.000000000000
      0.000000000000
      0.000000000000
      0.000000000000
      0.000000000000
      0.000000000000
      0.000000000000
      0.000000000000
      0.000000000000
      0.000000000000
      0.000000000000
POINT_DATA                  42
SCALARS mu float 1
LOOKUP_TABLE default
      0.189106105738
      0.189106105738
      0.186330457705
      0.186330457705
      0.191549163670
      0.191549163670
      0.189099901580
      0.189099901580
      0.181822632283
      0.181822632283
      0.167116373089
      0.167116373089
      0.144567677621
      0.144567677621
      0.112097368151
      0.112097368151
      0.072370808069
      0.072370808069
      0.027335980315
      0.027335980315
      0.000000000000
      0.000000000000
      0.188757036950
      0.188757036950
      0.190282284156
      0.190282284156
      0.189058541060
      0.189058541060
      0.181707973788
      0.181707973788
      0.168325508454
      0.168325508454
      0.145796266632
      0.145796266632
      0.113286817199
      0.113286817199
      0.071286070998
      0.071286070998
      0.024146949872
      0.024146949872
      0.000000000000
      0.000000000000
