# vtk DataFile Version 3.0
MFTran results file. Generated by MFTran, USU AeroLab (c) 2021.
ASCII
DATASET POLYDATA
POINTS                 541 float
     -0.749989529748      -4.999900854324       0.000007778743
     -0.749900171569      -4.877641201020      -0.000002923872
     -0.749900171569      -4.522542476650      -0.000002923872
     -0.749900171569      -3.969463109970      -0.000002923872
     -0.749900171569      -3.272542476650      -0.000002923872
     -0.749900171569      -2.500000000000      -0.000002923872
     -0.749900171569      -1.727457523350      -0.000002923872
     -0.749900171569      -1.030536890030      -0.000002923872
     -0.749900171569      -0.477457523346      -0.000002923872
     -0.749900171569      -0.122358709574      -0.000002923872
     -0.749900171569       0.000000000000      -0.000002923872
     -0.749900171569       0.122358709574      -0.000002923872
     -0.749900171569       0.477457523346      -0.000002923872
     -0.749900171569       1.030536890030      -0.000002923872
     -0.749900171569       1.727457523350      -0.000002923872
     -0.749900171569       2.500000000000      -0.000002923872
     -0.749900171569       3.272542476650      -0.000002923872
     -0.749900171569       3.969463109970      -0.000002923872
     -0.749900171569       4.522542476650      -0.000002923872
     -0.749900171569       4.877641201020      -0.000002923872
     -0.749989529748       4.999900854324      -0.000007778743
     -0.700478916485      -5.002805522273       0.000000000000
     -0.700478981012      -5.002770750120      -0.000440467021
     -0.700478981012      -5.002770750120       0.000440467021
     -0.700479022795      -5.002668304624      -0.000867001125
     -0.700478980886      -5.002667832616       0.000868501555
     -0.700478981028      -5.002500497795      -0.001272365510
     -0.700479022958      -5.002499772928       0.001273756487
     -0.700478916192      -5.002270015011      -0.001649149297
     -0.700478916192      -5.002270015011       0.001649149297
     -0.700478980881      -5.001982985054      -0.001985021994
     -0.700478980881      -5.001982985054       0.001985021994
     -0.700479022744      -5.001649348726      -0.002269819692
     -0.700478980850      -5.001648086628       0.002270754521
     -0.700478980988      -5.001275014543      -0.002499157175
     -0.700479022964      -5.001273607046       0.002499857718
     -0.700478980875      -5.000868524830      -0.002667870357
     -0.700478916304      -5.000867026236       0.002668348064
     -0.700478980926      -5.000440362119      -0.002770886130
     -0.700478980924      -5.000437257661       0.002771377759
     -0.700478983014      -4.999996863451      -0.002805711542
     -0.700478920424      -4.999996079313       0.002805742723
     -0.700478916334      -4.877641201020      -0.002805665943
     -0.700478916334      -4.877641201020       0.002805665943
     -0.700478916334      -4.522542476650      -0.002805665943
     -0.700478916334      -4.522542476650       0.002805665943
     -0.700478916334      -3.969463109970      -0.002805665943
     -0.700478916334      -3.969463109970       0.002805665943
     -0.700478916334      -3.272542476650      -0.002805665943
     -0.700478916334      -3.272542476650       0.002805665943
     -0.700478916334      -2.500000000000      -0.002805665943
     -0.700478916334      -2.500000000000       0.002805665943
     -0.700478916334      -1.727457523350      -0.002805665943
     -0.700478916334      -1.727457523350       0.002805665943
     -0.700478916334      -1.030536890030      -0.002805665943
     -0.700478916334      -1.030536890030       0.002805665943
     -0.700478916334      -0.477457523346      -0.002805665943
     -0.700478916334      -0.477457523346       0.002805665943
     -0.700478916334      -0.122358709574      -0.002805665943
     -0.700478916334      -0.122358709574       0.002805665943
     -0.700478916334       0.000000000000      -0.002805665943
     -0.700478916334       0.000000000000       0.002805665943
     -0.700478916334       0.122358709574      -0.002805665943
     -0.700478916334       0.122358709574       0.002805665943
     -0.700478916334       0.477457523346      -0.002805665943
     -0.700478916334       0.477457523346       0.002805665943
     -0.700478916334       1.030536890030      -0.002805665943
     -0.700478916334       1.030536890030       0.002805665943
     -0.700478916334       1.727457523350      -0.002805665943
     -0.700478916334       1.727457523350       0.002805665943
     -0.700478916334       2.500000000000      -0.002805665943
     -0.700478916334       2.500000000000       0.002805665943
     -0.700478916334       3.272542476650      -0.002805665943
     -0.700478916334       3.272542476650       0.002805665943
     -0.700478916334       3.969463109970      -0.002805665943
     -0.700478916334       3.969463109970       0.002805665943
     -0.700478916334       4.522542476650      -0.002805665943
     -0.700478916334       4.522542476650       0.002805665943
     -0.700478916334       4.877641201020      -0.002805665943
     -0.700478916334       4.877641201020       0.002805665943
     -0.700478855106       4.999996863451      -0.002805718637
     -0.700479027021       4.999996079315       0.002805736867
     -0.700478980926       5.000440362119      -0.002770886130
     -0.700478980924       5.000437257661       0.002771377759
     -0.700478980875       5.000868524830      -0.002667870357
     -0.700478916304       5.000867026236       0.002668348064
     -0.700478980988       5.001275014543      -0.002499157175
     -0.700479022964       5.001273607046       0.002499857718
     -0.700479022744       5.001649348726      -0.002269819692
     -0.700478980850       5.001648086628       0.002270754521
     -0.700478980881       5.001982985054      -0.001985021994
     -0.700478980881       5.001982985054       0.001985021994
     -0.700478916192       5.002270015011      -0.001649149297
     -0.700478916192       5.002270015011       0.001649149297
     -0.700478981028       5.002500497795      -0.001272365510
     -0.700479022958       5.002499772928       0.001273756487
     -0.700479022795       5.002668304624      -0.000867001125
     -0.700478980886       5.002667832616       0.000868501555
     -0.700478981012       5.002770750120      -0.000440467021
     -0.700478981012       5.002770750120       0.000440467021
     -0.700478916485       5.002805522273       0.000000000000
     -0.561740227063      -5.010055788372      -0.000000000000
     -0.561740228657      -5.009932529040      -0.001570523431
     -0.561740228657      -5.009932529040       0.001570523431
     -0.561740227047      -5.009563812251      -0.003107462479
     -0.561740124130      -5.009564315086       0.003105970776
     -0.561740301271      -5.008959429440      -0.004566308637
     -0.561740331103      -5.008959228273       0.004566713874
     -0.561740153452      -5.008136233861      -0.005909842244
     -0.561740153455      -5.008134913495       0.005911659773
     -0.561740228771      -5.007112412031      -0.007108804002
     -0.561740301386      -5.007111331656       0.007109839916
     -0.561740331171      -5.005912086983      -0.008134518713
     -0.561740124200      -5.005912099002       0.008134522171
     -0.561740227085      -5.004565195660      -0.008959916781
     -0.561740331144      -5.004563791067       0.008960640931
     -0.561740124145      -5.003106180053      -0.009564283323
     -0.561740153410      -5.003106606550       0.009564136854
     -0.561740301283      -5.001572088290      -0.009932325562
     -0.561740227063      -5.001573195018       0.009932147411
     -0.561740230944      -4.999996078534      -0.010056030033
     -0.561740230416      -4.999996078180       0.010056030072
     -0.561740227064      -4.877641201020      -0.010055953212
     -0.561740227064      -4.877641201020       0.010055953212
     -0.561740227064      -4.522542476650      -0.010055953212
     -0.561740227064      -4.522542476650       0.010055953212
     -0.561740227064      -3.969463109970      -0.010055953212
     -0.561740227064      -3.969463109970       0.010055953212
     -0.561740227064      -3.272542476650      -0.010055953212
     -0.561740227064      -3.272542476650       0.010055953212
     -0.561740227064      -2.500000000000      -0.010055953212
     -0.561740227064      -2.500000000000       0.010055953212
     -0.561740227064      -1.727457523350      -0.010055953212
     -0.561740227064      -1.727457523350       0.010055953212
     -0.561740227064      -1.030536890030      -0.010055953212
     -0.561740227064      -1.030536890030       0.010055953212
     -0.561740227064      -0.477457523346      -0.010055953212
     -0.561740227064      -0.477457523346       0.010055953212
     -0.561740227064      -0.122358709574      -0.010055953212
     -0.561740227064      -0.122358709574       0.010055953212
     -0.561740227064       0.000000000000      -0.010055953212
     -0.561740227064       0.000000000000       0.010055953212
     -0.561740227064       0.122358709574      -0.010055953212
     -0.561740227064       0.122358709574       0.010055953212
     -0.561740227064       0.477457523346      -0.010055953212
     -0.561740227064       0.477457523346       0.010055953212
     -0.561740227064       1.030536890030      -0.010055953212
     -0.561740227064       1.030536890030       0.010055953212
     -0.561740227064       1.727457523350      -0.010055953212
     -0.561740227064       1.727457523350       0.010055953212
     -0.561740227064       2.500000000000      -0.010055953212
     -0.561740227064       2.500000000000       0.010055953212
     -0.561740227064       3.272542476650      -0.010055953212
     -0.561740227064       3.272542476650       0.010055953212
     -0.561740227064       3.969463109970      -0.010055953212
     -0.561740227064       3.969463109970       0.010055953212
[...]
POINT_DATA                 541
SCALARS phi float 1
LOOKUP_TABLE default
                 NaN
                 NaN
                 NaN
                 NaN
                 NaN
                 NaN
                 NaN
                 NaN
                 NaN
                 NaN
                 NaN
                 NaN
                 NaN
                 NaN
                 NaN
                 NaN
                 NaN
                 NaN
                 NaN
                 NaN
                 NaN
                 NaN
                 NaN
                 NaN
                 NaN
                 NaN
                 NaN
                 NaN
                 NaN
                 NaN
                 NaN
                 NaN
                 NaN
                 NaN
                 NaN
                 NaN
                 NaN
                 NaN
                 NaN
                 NaN
                 NaN
                 NaN
                 NaN
                 NaN
                 NaN
                 NaN
                 NaN
                 NaN
                 NaN
                 NaN
                 NaN
                 NaN
                 NaN
                 NaN
                 NaN
                 NaN
                 NaN
                 NaN
                 NaN
                 NaN
                 NaN
                 NaN
                 NaN
                 NaN
                 NaN
                 NaN
                 NaN
                 NaN
                 NaN
                 NaN
                 NaN
                 NaN
                 NaN
                 NaN
                 NaN
                 NaN
                 NaN
                 NaN
                 NaN
                 NaN
                 NaN
                 NaN
                 NaN
                 NaN
                 NaN
                 NaN
                 NaN
                 NaN
                 NaN
                 NaN
                 NaN
                 NaN
                 NaN
                 NaN
                 NaN
                 NaN
                 NaN
                 NaN
                 NaN
                 NaN
                 NaN
                 NaN
                 NaN
                 NaN
                 NaN
                 NaN
                 NaN
                 NaN
                 NaN
                 NaN
                 NaN
                 NaN
                 NaN
                 NaN
                 NaN
                 NaN
                 NaN
                 NaN
                 NaN
                 NaN
                 NaN
                 NaN
                 NaN
                 NaN
                 NaN
                 NaN
                 NaN
                 NaN
                 NaN
                 NaN
                 NaN
                 NaN
                 NaN
                 NaN
                 NaN
                 NaN
                 NaN
                 NaN
                 NaN
                 NaN
                 NaN
                 NaN
                 NaN
                 NaN
                 NaN
                 NaN
                 NaN
                 NaN
                 NaN
                 NaN
                 NaN
                 NaN
                 NaN
                 NaN
                 NaN
                 NaN
                 NaN
                 NaN
                 NaN
                 NaN
                 NaN
                 NaN
                 NaN
                 NaN
                 NaN
                 NaN
                 NaN
                 NaN
                 NaN
                 NaN
                 NaN
                 NaN
                 NaN
                 NaN
                 NaN
                 NaN
                 NaN
                 NaN
                 NaN
                 NaN
                 NaN
                 NaN
                 NaN
                 NaN
                 NaN
                 NaN
                 NaN
                 NaN
                 NaN
                 NaN
                 NaN
                 NaN
                 NaN
                 NaN
                 NaN
                 NaN
                 NaN
                 NaN
                 NaN
                 NaN
                 NaN
                 NaN
                 NaN
                 NaN
                 NaN
                 NaN
                 NaN
                 NaN
                 NaN
                 NaN
                 NaN
                 NaN
                 NaN
                 NaN
                 NaN
                 NaN
                 NaN
                 NaN
                 NaN
                 NaN
                 NaN
                 NaN
                 NaN
                 NaN
                 NaN
                 NaN
                 NaN
                 NaN
                 NaN
                 NaN
                 NaN
                 NaN
                 NaN
                 NaN
                 NaN
                 NaN
                 NaN
                 NaN
                 NaN
                 NaN
                 NaN
                 NaN
                 NaN
                 NaN
                 NaN
                 NaN
                 NaN
                 NaN
                 NaN
                 NaN
                 NaN
                 NaN
                 NaN
                 NaN
                 NaN
                 NaN
                 NaN
                 NaN
                 NaN
                 NaN
                 NaN
                 NaN
                 NaN
                 NaN
                 NaN
                 NaN
                 NaN
                 NaN
                 NaN
                 NaN
                 NaN
                 NaN
                 NaN
                 NaN
                 NaN
                 NaN
                 NaN
                 NaN
                 NaN
                 NaN
                 NaN
                 NaN
                 NaN
                 NaN
                 NaN
                 NaN
                 NaN
                 NaN
                 NaN
                 NaN
                 NaN
                 NaN
                 NaN
                 NaN
                 NaN
                 NaN
                 NaN
                 NaN
                 NaN
                 NaN
                 NaN
                 NaN
                 NaN
                 NaN
                 NaN
                 NaN
                 NaN
                 NaN
                 NaN
                 NaN
                 NaN
                 NaN
                 NaN
                 NaN
                 NaN
                 NaN
                 NaN
                 NaN
                 NaN
                 NaN
                 NaN
                 NaN
                 NaN
                 NaN
                 NaN
                 NaN
                 NaN
                 NaN
                 NaN
                 NaN
                 NaN
                 NaN
                 NaN
                 NaN
                 NaN
                 NaN
                 NaN
                 NaN
                 NaN
                 NaN
                 NaN
                 NaN
                 NaN
                 NaN
                 NaN
                 NaN
                 NaN
                 NaN
                 NaN
                 NaN
                 NaN
                 NaN
                 NaN
                 NaN
                 NaN
                 NaN
                 NaN
                 NaN
                 NaN
                 NaN
                 NaN
                 NaN
                 NaN
                 NaN
                 NaN
                 NaN
                 NaN
                 NaN
                 NaN
                 NaN
                 NaN
                 NaN
                 NaN
                 NaN
                 NaN
                 NaN
                 NaN
                 NaN
                 NaN
                 NaN
                 NaN
                 NaN
                 NaN
                 NaN
                 NaN
                 NaN
                 NaN
                 NaN
                 NaN
                 NaN
                 NaN
                 NaN
                 NaN
                 NaN
                 NaN
                 NaN
                 NaN
                 NaN
                 NaN
                 NaN
                 NaN
                 NaN
                 NaN
                 NaN
                 NaN
                 NaN
                 NaN
                 NaN
                 NaN
                 NaN
                 NaN
                 NaN
                 NaN
                 NaN
                 NaN
                 NaN
                 NaN
                 NaN
                 NaN
                 NaN
                 NaN
                 NaN
                 NaN
                 NaN
                 NaN
                 NaN
                 NaN
                 NaN
                 NaN
                 NaN
                 NaN
                 NaN
                 NaN
                 NaN
                 NaN
                 NaN
                 NaN
                 NaN
                 NaN
                 NaN
                 NaN
                 NaN
                 NaN
                 NaN
                 NaN
                 NaN
                 NaN
                 NaN
                 NaN
                 NaN
                 NaN
                 NaN
                 NaN
                 NaN
                 NaN
                 NaN
                 NaN
                 NaN
                 NaN
                 NaN
                 NaN
                 NaN
                 NaN
                 NaN
                 NaN
                 NaN
                 NaN
                 NaN
                 NaN
                 NaN
                 NaN
                 NaN
                 NaN
                 NaN
                 NaN
                 NaN
                 NaN
                 NaN
                 NaN
                 NaN
                 NaN
                 NaN
                 NaN
                 NaN
                 NaN
                 NaN
                 NaN
                 NaN
                 NaN
                 NaN
                 NaN
                 NaN
                 NaN
                 NaN
                 NaN
                 NaN
                 NaN
                 NaN
                 NaN
                 NaN
                 NaN
                 NaN
                 NaN
                 NaN
                 NaN
                 NaN
                 NaN
                 NaN
                 NaN
                 NaN
                 NaN
                 NaN
                 NaN
                 NaN
                 NaN
                 NaN
                 NaN
                 NaN
                 NaN
                 NaN
                 NaN
                 NaN
                 NaN
                 NaN
                 NaN
                 NaN
                 NaN
                 NaN
                 NaN
                 NaN
                 NaN
                 NaN
                 NaN
                 NaN
                 NaN
                 NaN
                 NaN
                 NaN
                 NaN
                 NaN
                 NaN
