# vtk DataFile Version 3.0
MFTran results file. Generated by MFTran, USU AeroLab (c) 2021.
ASCII
DATASET POLYDATA
POINTS                  42 float
     -0.750000000000      -0.048943482339       0.000000000000
    -95.401092520285     -28.444271238425      -9.465109252028
     -0.750000000000       0.000000000000       0.000000000000
    -95.414440742741     -28.399332222822      -9.466444074274
     -0.750000000000      -0.190983012319       0.000000000000
    -95.362354466654     -28.574689352315      -9.461235446665
     -0.750000000000      -0.412214756012       0.000000000000
    -95.302018536556     -28.777820316979      -9.455201853656
     -0.750000000000      -0.690982997417       0.000000000000
    -95.225990834355     -29.033780247723      -9.447599083435
     -0.750000000000      -1.000000000000       0.000000000000
    -95.141713470014     -29.317514041004      -9.439171347001
     -0.750000000000      -1.309016942980       0.000000000000
    -95.057436121928     -29.601247779558      -9.430743612193
     -0.750000000000      -1.587785243990       0.000000000000
    -94.981408403471     -29.857207765031      -9.423140840347
     -0.750000000000      -1.809016942980       0.000000000000
    -94.921072485565     -30.060338688649      -9.417107248556
     -0.750000000000      -1.951056480410       0.000000000000
    -94.882334429902     -30.190756809381      -9.413233442990
     -0.750000000000      -2.000000000000       0.000000000000
    -94.868986197286     -30.235695859186      -9.411898619729
     -0.750000000000       0.048943482339       0.000000000000
    -95.427788965197     -28.354393207220      -9.467778896520
     -0.750000000000       0.190983012319       0.000000000000
    -95.466527018828     -28.223975093329      -9.471652701883
     -0.750000000000       0.412214756012       0.000000000000
    -95.526862948926     -28.020844128666      -9.477686294893
     -0.750000000000       0.690982997417       0.000000000000
    -95.602890651127     -27.764884197921      -9.485289065113
     -0.750000000000       1.000000000000       0.000000000000
    -95.687168015468     -27.481150404640      -9.493716801547
     -0.750000000000       1.309016942980       0.000000000000
    -95.771445363554     -27.197416666086      -9.502144536355
     -0.750000000000       1.587785243990       0.000000000000
    -95.847473082011     -26.941456680613      -9.509747308201
     -0.750000000000       1.809016942980       0.000000000000
    -95.907808999917     -26.738325756995      -9.515780899992
     -0.750000000000       1.951056480410       0.000000000000
    -95.946547055580     -26.607907636264      -9.519654705558
     -0.750000000000       2.000000000000       0.000000000000
    -95.959895288196     -26.562968586459      -9.520989528820
POLYGONS                  40                 160
3                   0                   1                   3
3                   0                   3                   2
3                   4                   5                   1
3                   4                   1                   0
3                   6                   7                   5
3                   6                   5                   4
3                   8                   9                   7
3                   8                   7                   6
3                  10                  11                   9
3                  10                   9                   8
3                  12                  13                  11
3                  12                  11                  10
3                  14                  15                  13
3                  14                  13                  12
3                  16                  17                  15
3                  16                  15                  14
3                  18                  19                  17
3                  18                  17                  16
3                  20                  21                  19
3                  20                  19                  18
3                   2                   3                  23
3                   2                  23                  22
3                  22                  23                  25
3                  22                  25                  24
3                  24                  25                  27
3                  24                  27                  26
3                  26                  27                  29
3                  26                  29                  28
3                  28                  29                  31
3                  28                  31                  30
3                  30                  31                  33
3                  30                  33                  32
3                  32                  33                  35
3                  32                  35                  34
3                  34                  35                  37
3                  34                  37                  36
3                  36                  37                  39
3                  36                  39                  38
3                  38                  39                  41
3                  38                  41                  40
CELL_DATA                  40
NORMALS panel_normals float
      0.099503719021       0.000000000000      -0.995037190210
      0.099503719021       0.000000000000      -0.995037190210
      0.099503719021       0.000000000000      -0.995037190210
      0.099503719021       0.000000000000      -0.995037190210
      0.099503719021       0.000000000000      -0.995037190210
      0.099503719021       0.000000000000      -0.995037190210
      0.099503719021       0.000000000000      -0.995037190210
      0.099503719021       0.000000000000      -0.995037190210
      0.099503719021       0.000000000000      -0.995037190210
      0.099503719021       0.000000000000      -0.995037190210
      0.099503719021      -0.000000000000      -0.995037190210
      0.099503719021       0.000000000000      -0.995037190210
      0.099503719021       0.000000000000      -0.995037190210
      0.099503719021       0.000000000000      -0.995037190210
      0.099503719021       0.000000000000      -0.995037190210
      0.099503719021       0.000000000000      -0.995037190210
      0.099503719021      -0.000000000000      -0.995037190210
      0.099503719021       0.000000000000      -0.995037190210
      0.099503719021       0.000000000000      -0.995037190210
      0.099503719021       0.000000000000      -0.995037190210
      0.099503719021      -0.000000000000      -0.995037190210
      0.099503719021       0.000000000000      -0.995037190210
      0.099503719021       0.000000000000      -0.995037190210
      0.099503719021       0.000000000000      -0.995037190210
      0.099503719021       0.000000000000      -0.995037190210
      0.099503719021       0.000000000000      -0.995037190210
      0.099503719021       0.000000000000      -0.995037190210
      0.099503719021       0.000000000000      -0.995037190210
      0.099503719021      -0.000000000000      -0.995037190210
      0.099503719021       0.000000000000      -0.995037190210
      0.099503719021       0.000000000000      -0.995037190210
      0.099503719021       0.000000000000      -0.995037190210
      0.099503719021       0.000000000000      -0.995037190210
      0.099503719021       0.000000000000      -0.995037190210
      0.099503719021      -0.000000000000      -0.995037190210
      0.099503719021       0.000000000000      -0.995037190210
      0.099503719021       0.000000000000      -0.995037190210
      0.099503719021       0.000000000000      -0.995037190210
      0.099503719021       0.000000000000      -0.995037190210
      0.099503719021       0.000000000000      -0.995037190210
SCALARS index integer 1
LOOKUP_TABLE default
                   1
                   2
                   3
                   4
                   5
                   6
                   7
                   8
                   9
                  10
                  11
                  12
                  13
                  14
                  15
                  16
                  17
                  18
                  19
                  20
                  21
                  22
                  23
                  24
                  25
                  26
                  27
                  28
                  29
                  30
                  31
                  32
                  33
                  34
                  35
                  36
                  37
                  38
                  39
                  40
SCALARS sigma float 1
LOOKUP_TABLE default
      0.000000000000
      0.000000000000
      0.000000000000
      0.000000000000
      0.000000000000
      0.000000000000
      0.000000000000
      0.000000000000
      0.000000000000
      0.000000000000
      0.000000000000
      0.000000000000
      0.000000000000
      0.000000000000
      0.000000000000
      0.000000000000
      0.000000000000
      0.000000000000
      0.000000000000
      0.000000000000
      0.000000000000
      0.000000000000
      0.000000000000
      0.000000000000
      0.000000000000
      0.000000000000
      0.000000000000
      0.000000000000
      0.000000000000
      0.000000000000
      0.000000000000
      0.000000000000
      0.000000000000
      0.000000000000
      0.000000000000
      0.000000000000
      0.000000000000
      0.000000000000
      0.000000000000
      0.000000000000
POINT_DATA                  42
SCALARS mu float 1
LOOKUP_TABLE default
      0.193504385366
      0.193504385366
      0.193531303661
      0.193531303661
      0.193854754107
      0.193854754107
      0.192654619674
      0.192654619674
      0.187398839358
      0.187398839358
      0.176323141546
      0.176323141546
      0.156062678104
      0.156062678104
      0.125220141863
      0.125220141863
      0.080683293010
      0.080683293010
      0.030134777331
      0.030134777331
     -0.017044074296
     -0.017044074296
      0.193845117453
      0.193845117453
      0.191048765699
      0.191048765699
      0.185653968327
      0.185653968327
      0.175499361203
      0.175499361203
      0.158939021000
      0.158939021000
      0.135110647129
      0.135110647129
      0.104841207836
      0.104841207836
      0.070897911690
      0.070897911690
      0.042547510751
      0.042547510751
      0.086271854667
      0.086271854667
