# vtk DataFile Version 3.0
MachLine results file. Generated by MachLine, USU AeroLab (c) 2022.
ASCII
DATASET POLYDATA
POINTS                 118 float
  0.100000000000E+01  0.000000000000E+00  0.000000000000E+00
  0.199775405431E+02  0.000000000000E+00  0.948877027157E+00
  0.103452564577E+01  0.347068965517E-01  0.000000000000E+00
  0.199776266420E+02  0.347068965517E-01  0.947155049812E+00
  0.106905129153E+01  0.694137931034E-01  0.000000000000E+00
  0.199777127409E+02  0.694137931034E-01  0.945433072467E+00
  0.110357693730E+01  0.104120689655E+00  0.000000000000E+00
  0.199777988397E+02  0.104120689655E+00  0.943711095122E+00
  0.113810258306E+01  0.138827586207E+00  0.000000000000E+00
  0.199778849386E+02  0.138827586207E+00  0.941989117778E+00
  0.117262822883E+01  0.173534482759E+00  0.000000000000E+00
  0.199779710375E+02  0.173534482759E+00  0.940267140432E+00
  0.120715387459E+01  0.208241379310E+00  0.000000000000E+00
  0.199780571363E+02  0.208241379310E+00  0.938545163088E+00
  0.124167952036E+01  0.242948275862E+00  0.000000000000E+00
  0.199781432352E+02  0.242948275862E+00  0.936823185743E+00
  0.127620516613E+01  0.277655172414E+00  0.000000000000E+00
  0.199782293341E+02  0.277655172414E+00  0.935101208398E+00
  0.131073081189E+01  0.312362068966E+00  0.000000000000E+00
  0.199783154329E+02  0.312362068966E+00  0.933379231053E+00
  0.134525645766E+01  0.347068965517E+00  0.000000000000E+00
  0.199784015318E+02  0.347068965517E+00  0.931657253708E+00
  0.137978210342E+01  0.381775862069E+00  0.000000000000E+00
  0.199784876307E+02  0.381775862069E+00  0.929935276363E+00
  0.141430774919E+01  0.416482758621E+00  0.000000000000E+00
  0.199785737295E+02  0.416482758621E+00  0.928213299018E+00
  0.144883339495E+01  0.451189655172E+00  0.000000000000E+00
  0.199786598284E+02  0.451189655172E+00  0.926491321673E+00
  0.148335904072E+01  0.485896551724E+00  0.000000000000E+00
  0.199787459273E+02  0.485896551724E+00  0.924769344328E+00
  0.151788468649E+01  0.520603448276E+00  0.000000000000E+00
  0.199788320262E+02  0.520603448276E+00  0.923047366983E+00
  0.155241033225E+01  0.555310344828E+00  0.000000000000E+00
  0.199789181250E+02  0.555310344828E+00  0.921325389638E+00
  0.158693597802E+01  0.590017241379E+00  0.000000000000E+00
  0.199790042239E+02  0.590017241379E+00  0.919603412293E+00
  0.162146162378E+01  0.624724137931E+00  0.000000000000E+00
  0.199790903228E+02  0.624724137931E+00  0.917881434949E+00
  0.165598726955E+01  0.659431034483E+00  0.000000000000E+00
  0.199791764216E+02  0.659431034483E+00  0.916159457604E+00
  0.169051291531E+01  0.694137931034E+00  0.000000000000E+00
  0.199792625205E+02  0.694137931034E+00  0.914437480259E+00
  0.172503856108E+01  0.728844827586E+00  0.000000000000E+00
  0.199793486194E+02  0.728844827586E+00  0.912715502914E+00
  0.175956420685E+01  0.763551724138E+00  0.000000000000E+00
  0.199794347182E+02  0.763551724138E+00  0.910993525569E+00
  0.179408985261E+01  0.798258620690E+00  0.000000000000E+00
  0.199795208171E+02  0.798258620690E+00  0.909271548224E+00
  0.182861549838E+01  0.832965517241E+00  0.000000000000E+00
  0.199796069160E+02  0.832965517241E+00  0.907549570879E+00
  0.186314114414E+01  0.867672413793E+00  0.000000000000E+00
  0.199796930148E+02  0.867672413793E+00  0.905827593534E+00
  0.189766678991E+01  0.902379310345E+00  0.000000000000E+00
  0.199797791137E+02  0.902379310345E+00  0.904105616189E+00
  0.193219243567E+01  0.937086206897E+00  0.000000000000E+00
  0.199798652126E+02  0.937086206897E+00  0.902383638844E+00
  0.196671808144E+01  0.971793103448E+00  0.000000000000E+00
  0.199799513114E+02  0.971793103448E+00  0.900661661499E+00
  0.200124372720E+01  0.100650000000E+01  0.000000000000E+00
  0.199800374103E+02  0.100650000000E+01  0.898939684155E+00
  0.103452564577E+01 -0.347068965517E-01  0.000000000000E+00
  0.199776266420E+02 -0.347068965517E-01  0.947155049812E+00
  0.106905129153E+01 -0.694137931034E-01  0.000000000000E+00
  0.199777127409E+02 -0.694137931034E-01  0.945433072467E+00
  0.110357693730E+01 -0.104120689655E+00  0.000000000000E+00
  0.199777988397E+02 -0.104120689655E+00  0.943711095122E+00
  0.113810258306E+01 -0.138827586207E+00  0.000000000000E+00
  0.199778849386E+02 -0.138827586207E+00  0.941989117778E+00
  0.117262822883E+01 -0.173534482759E+00  0.000000000000E+00
  0.199779710375E+02 -0.173534482759E+00  0.940267140432E+00
  0.120715387459E+01 -0.208241379310E+00  0.000000000000E+00
  0.199780571363E+02 -0.208241379310E+00  0.938545163088E+00
  0.124167952036E+01 -0.242948275862E+00  0.000000000000E+00
  0.199781432352E+02 -0.242948275862E+00  0.936823185743E+00
  0.127620516613E+01 -0.277655172414E+00  0.000000000000E+00
  0.199782293341E+02 -0.277655172414E+00  0.935101208398E+00
  0.131073081189E+01 -0.312362068966E+00  0.000000000000E+00
  0.199783154329E+02 -0.312362068966E+00  0.933379231053E+00
  0.134525645766E+01 -0.347068965517E+00  0.000000000000E+00
  0.199784015318E+02 -0.347068965517E+00  0.931657253708E+00
  0.137978210342E+01 -0.381775862069E+00  0.000000000000E+00
  0.199784876307E+02 -0.381775862069E+00  0.929935276363E+00
  0.141430774919E+01 -0.416482758621E+00  0.000000000000E+00
  0.199785737295E+02 -0.416482758621E+00  0.928213299018E+00
  0.144883339495E+01 -0.451189655172E+00  0.000000000000E+00
  0.199786598284E+02 -0.451189655172E+00  0.926491321673E+00
  0.148335904072E+01 -0.485896551724E+00  0.000000000000E+00
  0.199787459273E+02 -0.485896551724E+00  0.924769344328E+00
  0.151788468649E+01 -0.520603448276E+00  0.000000000000E+00
  0.199788320262E+02 -0.520603448276E+00  0.923047366983E+00
  0.155241033225E+01 -0.555310344828E+00  0.000000000000E+00
  0.199789181250E+02 -0.555310344828E+00  0.921325389638E+00
  0.158693597802E+01 -0.590017241379E+00  0.000000000000E+00
  0.199790042239E+02 -0.590017241379E+00  0.919603412293E+00
  0.162146162378E+01 -0.624724137931E+00  0.000000000000E+00
  0.199790903228E+02 -0.624724137931E+00  0.917881434949E+00
  0.165598726955E+01 -0.659431034483E+00  0.000000000000E+00
  0.199791764216E+02 -0.659431034483E+00  0.916159457604E+00
  0.169051291531E+01 -0.694137931034E+00  0.000000000000E+00
  0.199792625205E+02 -0.694137931034E+00  0.914437480259E+00
  0.172503856108E+01 -0.728844827586E+00  0.000000000000E+00
  0.199793486194E+02 -0.728844827586E+00  0.912715502914E+00
  0.175956420685E+01 -0.763551724138E+00  0.000000000000E+00
  0.199794347182E+02 -0.763551724138E+00  0.910993525569E+00
  0.179408985261E+01 -0.798258620690E+00  0.000000000000E+00
  0.199795208171E+02 -0.798258620690E+00  0.909271548224E+00
  0.182861549838E+01 -0.832965517241E+00  0.000000000000E+00
  0.199796069160E+02 -0.832965517241E+00  0.907549570879E+00
  0.186314114414E+01 -0.867672413793E+00  0.000000000000E+00
  0.199796930148E+02 -0.867672413793E+00  0.905827593534E+00
  0.189766678991E+01 -0.902379310345E+00  0.000000000000E+00
  0.199797791137E+02 -0.902379310345E+00  0.904105616189E+00
  0.193219243567E+01 -0.937086206897E+00  0.000000000000E+00
  0.199798652126E+02 -0.937086206897E+00  0.902383638844E+00
  0.196671808144E+01 -0.971793103448E+00  0.000000000000E+00
  0.199799513114E+02 -0.971793103448E+00  0.900661661499E+00
  0.200124372720E+01 -0.100650000000E+01  0.000000000000E+00
  0.199800374103E+02 -0.100650000000E+01  0.898939684155E+00
POLYGONS                 116                 464
3                   0                   1                   3
3                   0                   3                   2
3                   2                   3                   5
3                   2                   5                   4
3                   4                   5                   7
3                   4                   7                   6
3                   6                   7                   9
3                   6                   9                   8
3                   8                   9                  11
3                   8                  11                  10
3                  10                  11                  13
3                  10                  13                  12
3                  12                  13                  15
3                  12                  15                  14
3                  14                  15                  17
3                  14                  17                  16
3                  16                  17                  19
3                  16                  19                  18
3                  18                  19                  21
3                  18                  21                  20
3                  20                  21                  23
3                  20                  23                  22
3                  22                  23                  25
3                  22                  25                  24
3                  24                  25                  27
3                  24                  27                  26
3                  26                  27                  29
3                  26                  29                  28
3                  28                  29                  31
3                  28                  31                  30
3                  30                  31                  33
3                  30                  33                  32
3                  32                  33                  35
3                  32                  35                  34
3                  34                  35                  37
3                  34                  37                  36
3                  36                  37                  39
3                  36                  39                  38
3                  38                  39                  41
3                  38                  41                  40
3                  40                  41                  43
3                  40                  43                  42
3                  42                  43                  45
3                  42                  45                  44
3                  44                  45                  47
3                  44                  47                  46
3                  46                  47                  49
3                  46                  49                  48
3                  48                  49                  51
3                  48                  51                  50
3                  50                  51                  53
3                  50                  53                  52
3                  52                  53                  55
3                  52                  55                  54
3                  54                  55                  57
3                  54                  57                  56
3                  56                  57                  59
3                  56                  59                  58
3                  60                  61                   1
3                  60                   1                   0
3                  62                  63                  61
3                  62                  61                  60
3                  64                  65                  63
3                  64                  63                  62
3                  66                  67                  65
3                  66                  65                  64
3                  68                  69                  67
3                  68                  67                  66
3                  70                  71                  69
3                  70                  69                  68
3                  72                  73                  71
3                  72                  71                  70
3                  74                  75                  73
3                  74                  73                  72
3                  76                  77                  75
3                  76                  75                  74
3                  78                  79                  77
3                  78                  77                  76
3                  80                  81                  79
3                  80                  79                  78
3                  82                  83                  81
3                  82                  81                  80
3                  84                  85                  83
3                  84                  83                  82
3                  86                  87                  85
3                  86                  85                  84
3                  88                  89                  87
3                  88                  87                  86
3                  90                  91                  89
3                  90                  89                  88
3                  92                  93                  91
3                  92                  91                  90
3                  94                  95                  93
3                  94                  93                  92
3                  96                  97                  95
3                  96                  95                  94
3                  98                  99                  97
3                  98                  97                  96
3                 100                 101                  99
3                 100                  99                  98
3                 102                 103                 101
3                 102                 101                 100
3                 104                 105                 103
3                 104                 103                 102
3                 106                 107                 105
3                 106                 105                 104
3                 108                 109                 107
3                 108                 107                 106
3                 110                 111                 109
3                 110                 109                 108
3                 112                 113                 111
3                 112                 111                 110
3                 114                 115                 113
3                 114                 113                 112
3                 116                 117                 115
3                 116                 115                 114
CELL_DATA                 116
NORMALS normals float
 -0.498761130515E-01  0.496156436527E-01  0.997522261031E+00
 -0.498761130515E-01  0.496156436527E-01  0.997522261031E+00
 -0.498761130516E-01  0.496156436384E-01  0.997522261031E+00
 -0.498761130516E-01  0.496156436384E-01  0.997522261031E+00
 -0.498761130515E-01  0.496156436529E-01  0.997522261031E+00
 -0.498761130515E-01  0.496156436529E-01  0.997522261031E+00
 -0.498761130516E-01  0.496156436380E-01  0.997522261031E+00
 -0.498761130516E-01  0.496156436380E-01  0.997522261031E+00
 -0.498761130515E-01  0.496156436523E-01  0.997522261031E+00
 -0.498761130515E-01  0.496156436523E-01  0.997522261031E+00
 -0.498761130516E-01  0.496156436394E-01  0.997522261031E+00
 -0.498761130516E-01  0.496156436394E-01  0.997522261031E+00
 -0.498761130515E-01  0.496156436523E-01  0.997522261031E+00
 -0.498761130515E-01  0.496156436523E-01  0.997522261031E+00
 -0.498761130515E-01  0.496156436523E-01  0.997522261031E+00
 -0.498761130515E-01  0.496156436523E-01  0.997522261031E+00
 -0.498761130516E-01  0.496156436380E-01  0.997522261031E+00
 -0.498761130516E-01  0.496156436380E-01  0.997522261031E+00
 -0.498761130515E-01  0.496156436537E-01  0.997522261031E+00
 -0.498761130515E-01  0.496156436537E-01  0.997522261031E+00
 -0.498761130516E-01  0.496156436380E-01  0.997522261031E+00
 -0.498761130516E-01  0.496156436380E-01  0.997522261031E+00
 -0.498761130515E-01  0.496156436523E-01  0.997522261031E+00
 -0.498761130515E-01  0.496156436523E-01  0.997522261031E+00
 -0.498761130516E-01  0.496156436394E-01  0.997522261031E+00
 -0.498761130516E-01  0.496156436394E-01  0.997522261031E+00
 -0.498761130515E-01  0.496156436523E-01  0.997522261031E+00
 -0.498761130515E-01  0.496156436523E-01  0.997522261031E+00
 -0.498761130515E-01  0.496156436523E-01  0.997522261031E+00
 -0.498761130515E-01  0.496156436523E-01  0.997522261031E+00
 -0.498761130516E-01  0.496156436380E-01  0.997522261031E+00
 -0.498761130516E-01  0.496156436380E-01  0.997522261031E+00
 -0.498761130515E-01  0.496156436537E-01  0.997522261031E+00
 -0.498761130515E-01  0.496156436537E-01  0.997522261031E+00
 -0.498761130516E-01  0.496156436380E-01  0.997522261031E+00
 -0.498761130516E-01  0.496156436380E-01  0.997522261031E+00
 -0.498761130515E-01  0.496156436523E-01  0.997522261031E+00
 -0.498761130515E-01  0.496156436523E-01  0.997522261031E+00
 -0.498761130516E-01  0.496156436394E-01  0.997522261031E+00
 -0.498761130516E-01  0.496156436394E-01  0.997522261031E+00
 -0.498761130515E-01  0.496156436523E-01  0.997522261031E+00
 -0.498761130515E-01  0.496156436523E-01  0.997522261031E+00
 -0.498761130515E-01  0.496156436523E-01  0.997522261031E+00
 -0.498761130515E-01  0.496156436523E-01  0.997522261031E+00
 -0.498761130516E-01  0.496156436380E-01  0.997522261031E+00
 -0.498761130516E-01  0.496156436380E-01  0.997522261031E+00
 -0.498761130515E-01  0.496156436537E-01  0.997522261031E+00
 -0.498761130515E-01  0.496156436537E-01  0.997522261031E+00
 -0.498761130516E-01  0.496156436380E-01  0.997522261031E+00
 -0.498761130516E-01  0.496156436380E-01  0.997522261031E+00
 -0.498761130515E-01  0.496156436523E-01  0.997522261031E+00
 -0.498761130515E-01  0.496156436523E-01  0.997522261031E+00
 -0.498761130516E-01  0.496156436380E-01  0.997522261031E+00
 -0.498761130516E-01  0.496156436380E-01  0.997522261031E+00
 -0.498761130515E-01  0.496156436537E-01  0.997522261031E+00
 -0.498761130515E-01  0.496156436537E-01  0.997522261031E+00
 -0.498761130516E-01  0.496156436380E-01  0.997522261031E+00
 -0.498761130516E-01  0.496156436380E-01  0.997522261031E+00
 -0.498761130515E-01 -0.496156436527E-01  0.997522261031E+00
 -0.498761130515E-01 -0.496156436527E-01  0.997522261031E+00
 -0.498761130516E-01 -0.496156436384E-01  0.997522261031E+00
 -0.498761130516E-01 -0.496156436384E-01  0.997522261031E+00
 -0.498761130515E-01 -0.496156436529E-01  0.997522261031E+00
 -0.498761130515E-01 -0.496156436529E-01  0.997522261031E+00
 -0.498761130516E-01 -0.496156436380E-01  0.997522261031E+00
 -0.498761130516E-01 -0.496156436380E-01  0.997522261031E+00
 -0.498761130515E-01 -0.496156436523E-01  0.997522261031E+00
 -0.498761130515E-01 -0.496156436523E-01  0.997522261031E+00
 -0.498761130516E-01 -0.496156436394E-01  0.997522261031E+00
 -0.498761130516E-01 -0.496156436394E-01  0.997522261031E+00
 -0.498761130515E-01 -0.496156436523E-01  0.997522261031E+00
 -0.498761130515E-01 -0.496156436523E-01  0.997522261031E+00
 -0.498761130515E-01 -0.496156436523E-01  0.997522261031E+00
 -0.498761130515E-01 -0.496156436523E-01  0.997522261031E+00
 -0.498761130516E-01 -0.496156436380E-01  0.997522261031E+00
 -0.498761130516E-01 -0.496156436380E-01  0.997522261031E+00
 -0.498761130515E-01 -0.496156436537E-01  0.997522261031E+00
 -0.498761130515E-01 -0.496156436537E-01  0.997522261031E+00
 -0.498761130516E-01 -0.496156436380E-01  0.997522261031E+00
 -0.498761130516E-01 -0.496156436380E-01  0.997522261031E+00
 -0.498761130515E-01 -0.496156436523E-01  0.997522261031E+00
 -0.498761130515E-01 -0.496156436523E-01  0.997522261031E+00
 -0.498761130516E-01 -0.496156436394E-01  0.997522261031E+00
 -0.498761130516E-01 -0.496156436394E-01  0.997522261031E+00
 -0.498761130515E-01 -0.496156436523E-01  0.997522261031E+00
 -0.498761130515E-01 -0.496156436523E-01  0.997522261031E+00
 -0.498761130515E-01 -0.496156436523E-01  0.997522261031E+00
 -0.498761130515E-01 -0.496156436523E-01  0.997522261031E+00
 -0.498761130516E-01 -0.496156436380E-01  0.997522261031E+00
 -0.498761130516E-01 -0.496156436380E-01  0.997522261031E+00
 -0.498761130515E-01 -0.496156436537E-01  0.997522261031E+00
 -0.498761130515E-01 -0.496156436537E-01  0.997522261031E+00
 -0.498761130516E-01 -0.496156436380E-01  0.997522261031E+00
 -0.498761130516E-01 -0.496156436380E-01  0.997522261031E+00
 -0.498761130515E-01 -0.496156436523E-01  0.997522261031E+00
 -0.498761130515E-01 -0.496156436523E-01  0.997522261031E+00
 -0.498761130516E-01 -0.496156436394E-01  0.997522261031E+00
 -0.498761130516E-01 -0.496156436394E-01  0.997522261031E+00
 -0.498761130515E-01 -0.496156436523E-01  0.997522261031E+00
 -0.498761130515E-01 -0.496156436523E-01  0.997522261031E+00
 -0.498761130515E-01 -0.496156436523E-01  0.997522261031E+00
 -0.498761130515E-01 -0.496156436523E-01  0.997522261031E+00
 -0.498761130516E-01 -0.496156436380E-01  0.997522261031E+00
 -0.498761130516E-01 -0.496156436380E-01  0.997522261031E+00
 -0.498761130515E-01 -0.496156436537E-01  0.997522261031E+00
 -0.498761130515E-01 -0.496156436537E-01  0.997522261031E+00
 -0.498761130516E-01 -0.496156436380E-01  0.997522261031E+00
 -0.498761130516E-01 -0.496156436380E-01  0.997522261031E+00
 -0.498761130515E-01 -0.496156436523E-01  0.997522261031E+00
 -0.498761130515E-01 -0.496156436523E-01  0.997522261031E+00
 -0.498761130516E-01 -0.496156436380E-01  0.997522261031E+00
 -0.498761130516E-01 -0.496156436380E-01  0.997522261031E+00
 -0.498761130515E-01 -0.496156436537E-01  0.997522261031E+00
 -0.498761130515E-01 -0.496156436537E-01  0.997522261031E+00
 -0.498761130516E-01 -0.496156436380E-01  0.997522261031E+00
 -0.498761130516E-01 -0.496156436380E-01  0.997522261031E+00
POINT_DATA                 118
SCALARS mu float 1
LOOKUP_TABLE default
  0.697509788017E-01
  0.697509788017E-01
  0.708477388405E-01
  0.708477388405E-01
  0.721251263436E-01
  0.721251263436E-01
  0.734821684860E-01
  0.734821684860E-01
  0.748517457770E-01
  0.748517457770E-01
  0.762874741533E-01
  0.762874741533E-01
  0.776977097046E-01
  0.776977097046E-01
  0.791576835537E-01
  0.791576835537E-01
  0.806696586091E-01
  0.806696586091E-01
  0.820601708603E-01
  0.820601708603E-01
  0.834287022091E-01
  0.834287022091E-01
  0.848284391957E-01
  0.848284391957E-01
  0.861647222261E-01
  0.861647222261E-01
  0.872159370125E-01
  0.872159370125E-01
  0.875146660520E-01
  0.875146660520E-01
  0.870930948517E-01
  0.870930948517E-01
  0.862953264368E-01
  0.862953264368E-01
  0.846499093850E-01
  0.846499093850E-01
  0.823979305648E-01
  0.823979305648E-01
  0.796702682231E-01
  0.796702682231E-01
  0.764035115765E-01
  0.764035115765E-01
  0.726720993402E-01
  0.726720993402E-01
  0.683586059202E-01
  0.683586059202E-01
  0.633198205433E-01
  0.633198205433E-01
  0.574146521772E-01
  0.574146521772E-01
  0.503785365461E-01
  0.503785365461E-01
  0.418064801318E-01
  0.418064801318E-01
  0.308905966400E-01
  0.308905966400E-01
  0.154008779979E-01
  0.154008779979E-01
  0.000000000000E+00
  0.000000000000E+00
  0.708480939195E-01
  0.708480939195E-01
  0.721334700555E-01
  0.721334700555E-01
  0.734881905033E-01
  0.734881905033E-01
  0.748804396572E-01
  0.748804396572E-01
  0.763015665498E-01
  0.763015665498E-01
  0.777833709379E-01
  0.777833709379E-01
  0.792503106840E-01
  0.792503106840E-01
  0.806596718642E-01
  0.806596718642E-01
  0.820843076391E-01
  0.820843076391E-01
  0.834943303418E-01
  0.834943303418E-01
  0.848467981055E-01
  0.848467981055E-01
  0.862013592053E-01
  0.862013592053E-01
  0.872569827247E-01
  0.872569827247E-01
  0.875319965856E-01
  0.875319965856E-01
  0.871658614216E-01
  0.871658614216E-01
  0.863363997639E-01
  0.863363997639E-01
  0.846967784761E-01
  0.846967784761E-01
  0.824127763800E-01
  0.824127763800E-01
  0.796448914519E-01
  0.796448914519E-01
  0.764372452398E-01
  0.764372452398E-01
  0.726929440313E-01
  0.726929440313E-01
  0.684005913358E-01
  0.684005913358E-01
  0.633763047818E-01
  0.633763047818E-01
  0.574810944123E-01
  0.574810944123E-01
  0.504400784572E-01
  0.504400784572E-01
  0.418824135416E-01
  0.418824135416E-01
  0.309438140340E-01
  0.309438140340E-01
  0.154293198146E-01
  0.154293198146E-01
  0.000000000000E+00
  0.000000000000E+00
