# vtk DataFile Version 3.0
MachLine results file. Generated by MachLine, USU AeroLab (c) 2022.
ASCII
DATASET POLYDATA
POINTS                3539 float
  0.999999954047E+00 -0.817642334523E-24  0.157795275727E-08
  0.999999954047E+00 -0.817642334523E-24 -0.157795275727E-08
  0.945333330996E+00 -0.166616413689E-24  0.266661875604E-02
  0.890666664330E+00 -0.555388045628E-25  0.533328542270E-02
  0.835999997663E+00  0.555388045632E-25  0.799995208937E-02
  0.781333330996E+00 -0.111077609126E-24  0.106666187561E-01
  0.726666664330E+00  0.555388045628E-25  0.133332854227E-01
  0.671999997663E+00 -0.555388045632E-25  0.159999520894E-01
  0.617333330996E+00  0.555388045630E-25  0.186666187561E-01
  0.562666664330E+00  0.166616413688E-24  0.213332854227E-01
  0.507999997663E+00  0.000000000000E+00  0.239999520894E-01
  0.453333330996E+00 -0.166616413689E-24  0.266666187561E-01
  0.398666664330E+00  0.555388045628E-25  0.293332854227E-01
  0.343999997663E+00  0.000000000000E+00  0.319999520894E-01
  0.289333330996E+00  0.111077609126E-24  0.346666187561E-01
  0.234666664330E+00 -0.111077609126E-24  0.373332854227E-01
  0.180000006427E+00 -0.223115881929E-24  0.399999612980E-01
  0.167142863319E+00 -0.134731324801E-24  0.371428293510E-01
  0.154285720462E+00 -0.134731324801E-24  0.342856864938E-01
  0.141428577605E+00  0.404193974406E-24  0.314285436367E-01
  0.128571434747E+00 -0.269462649605E-24  0.285714007795E-01
  0.115714291890E+00  0.404193974405E-24  0.257142579224E-01
  0.102857149033E+00  0.134731324802E-24  0.228571150652E-01
  0.900000061760E-01  0.269462649603E-24  0.199999722081E-01
  0.771428633189E-01  0.000000000000E+00  0.171428293510E-01
  0.642857204617E-01  0.269462649603E-24  0.142856864938E-01
  0.514285776046E-01 -0.134731324802E-24  0.114285436367E-01
  0.385714347474E-01  0.000000000000E+00  0.857140077949E-02
  0.257142910759E-01  0.000000000000E+00  0.571426158695E-02
  0.128571487344E-01 -0.192323310447E-24  0.285711640926E-02
  0.310628728567E-07  0.000000000000E+00 -0.000000000000E+00
  0.128571487344E-01 -0.192323310447E-24 -0.285711640926E-02
  0.257142910759E-01  0.000000000000E+00 -0.571426158695E-02
  0.385714347474E-01 -0.134731324802E-24 -0.857140077949E-02
  0.514285776046E-01  0.000000000000E+00 -0.114285436367E-01
  0.642857204617E-01 -0.269462649603E-24 -0.142856864938E-01
  0.771428633189E-01  0.269462649603E-24 -0.171428293510E-01
  0.900000061760E-01  0.134731324802E-24 -0.199999722081E-01
  0.102857149033E+00 -0.404193974405E-24 -0.228571150652E-01
  0.115714291890E+00 -0.269462649603E-24 -0.257142579224E-01
  0.128571434747E+00  0.000000000000E+00 -0.285714007795E-01
  0.141428577605E+00 -0.404193974406E-24 -0.314285436367E-01
  0.154285720462E+00 -0.134731324801E-24 -0.342856864938E-01
  0.167142863319E+00 -0.134731324801E-24 -0.371428293510E-01
  0.180000006427E+00  0.278894852411E-24 -0.399999612980E-01
  0.234666664330E+00  0.555388045628E-25 -0.373332854227E-01
  0.289333330996E+00  0.166616413689E-24 -0.346666187561E-01
  0.343999997663E+00  0.000000000000E+00 -0.319999520894E-01
  0.398666664330E+00 -0.555388045628E-25 -0.293332854227E-01
  0.453333330996E+00  0.111077609126E-24 -0.266666187561E-01
  0.507999997663E+00 -0.555388045632E-25 -0.239999520894E-01
  0.562666664330E+00 -0.111077609126E-24 -0.213332854227E-01
  0.617333330996E+00 -0.555388045630E-25 -0.186666187561E-01
  0.671999997663E+00  0.111077609126E-24 -0.159999520894E-01
  0.726666664330E+00 -0.555388045628E-25 -0.133332854227E-01
  0.781333330996E+00 -0.555388045630E-25 -0.106666187561E-01
  0.835999997663E+00  0.000000000000E+00 -0.799995208937E-02
  0.890666664330E+00 -0.111077609126E-24 -0.533328542270E-02
  0.945333330996E+00  0.111077609126E-24 -0.266661875604E-02
  0.103452561184E+01  0.347069303013E-01  0.164245669103E-08
  0.103452561184E+01  0.347069303013E-01 -0.164245669103E-08
  0.979858976765E+00  0.347068988739E-01  0.266661881221E-02
  0.925192310098E+00  0.347068988739E-01  0.533328547887E-02
  0.870525643432E+00  0.347068988739E-01  0.799995214554E-02
  0.815858976765E+00  0.347068988739E-01  0.106666188122E-01
  0.761192310098E+00  0.347068988739E-01  0.133332854788E-01
  0.706525643432E+00  0.347068988739E-01  0.159999521455E-01
  0.651858976765E+00  0.347068988739E-01  0.186666188122E-01
  0.597192310098E+00  0.347068988739E-01  0.213332854788E-01
  0.542525643432E+00  0.347068988739E-01  0.239999521455E-01
  0.487858976765E+00  0.347068988739E-01  0.266666188122E-01
  0.433192310098E+00  0.347068988739E-01  0.293332854788E-01
  0.378525643432E+00  0.347068988739E-01  0.319999521455E-01
  0.323858976765E+00  0.347068988739E-01  0.346666188122E-01
  0.269192310098E+00  0.347068988739E-01  0.373332854788E-01
  0.214525650402E+00  0.347068919398E-01  0.399999606290E-01
  0.201668508829E+00  0.347068906624E-01  0.371428305018E-01
  0.188811365770E+00  0.347068908630E-01  0.342856885520E-01
  0.175954223231E+00  0.347068905462E-01  0.314285442620E-01
  0.163097080374E+00  0.347068905462E-01  0.285714014048E-01
  0.150239937517E+00  0.347068905462E-01  0.257142585477E-01
  0.137382794660E+00  0.347068905462E-01  0.228571156905E-01
  0.124525651803E+00  0.347068905462E-01  0.199999728334E-01
  0.111668508946E+00  0.347068905462E-01  0.171428299763E-01
  0.988113660884E-01  0.347068905462E-01  0.142856871191E-01
  0.859542232313E-01  0.347068905462E-01  0.114285442620E-01
  0.730970803741E-01  0.347068905462E-01  0.857140140485E-02
  0.602399371986E-01  0.347068908630E-01  0.571425998057E-02
  0.473827945430E-01  0.347068906624E-01  0.285711621609E-02
  0.345256706330E-01  0.347068718142E-01 -0.000000000000E+00
  0.473827945430E-01  0.347068906624E-01 -0.285711621609E-02
  0.602399371986E-01  0.347068908630E-01 -0.571425998057E-02
  0.730970803741E-01  0.347068905462E-01 -0.857140140485E-02
  0.859542232313E-01  0.347068905462E-01 -0.114285442620E-01
  0.988113660884E-01  0.347068905462E-01 -0.142856871191E-01
  0.111668508946E+00  0.347068905462E-01 -0.171428299763E-01
  0.124525651803E+00  0.347068905462E-01 -0.199999728334E-01
  0.137382794660E+00  0.347068905462E-01 -0.228571156905E-01
  0.150239937517E+00  0.347068905462E-01 -0.257142585477E-01
  0.163097080374E+00  0.347068905462E-01 -0.285714014048E-01
  0.175954223231E+00  0.347068905462E-01 -0.314285442620E-01
  0.188811365770E+00  0.347068908630E-01 -0.342856885520E-01
  0.201668508829E+00  0.347068906624E-01 -0.371428305018E-01
  0.214525650402E+00  0.347068919398E-01 -0.399999606290E-01
  0.269192310098E+00  0.347068988739E-01 -0.373332854788E-01
  0.323858976765E+00  0.347068988739E-01 -0.346666188122E-01
  0.378525643432E+00  0.347068988739E-01 -0.319999521455E-01
  0.433192310098E+00  0.347068988739E-01 -0.293332854788E-01
  0.487858976765E+00  0.347068988739E-01 -0.266666188122E-01
  0.542525643432E+00  0.347068988739E-01 -0.239999521455E-01
  0.597192310098E+00  0.347068988739E-01 -0.213332854788E-01
  0.651858976765E+00  0.347068988739E-01 -0.186666188122E-01
  0.706525643432E+00  0.347068988739E-01 -0.159999521455E-01
  0.761192310098E+00  0.347068988739E-01 -0.133332854788E-01
  0.815858976765E+00  0.347068988739E-01 -0.106666188122E-01
  0.870525643432E+00  0.347068988739E-01 -0.799995214554E-02
  0.925192310098E+00  0.347068988739E-01 -0.533328547887E-02
  0.979858976765E+00  0.347068988739E-01 -0.266661881221E-02
  0.106905125760E+01  0.694138268530E-01  0.164245669096E-08
  0.106905125760E+01  0.694138268530E-01 -0.164245669096E-08
  0.101438462253E+01  0.694137954256E-01  0.266661881221E-02
  0.959717955864E+00  0.694137954256E-01  0.533328547887E-02
  0.905051289197E+00  0.694137954256E-01  0.799995214554E-02
  0.850384622531E+00  0.694137954256E-01  0.106666188122E-01
  0.795717955864E+00  0.694137954256E-01  0.133332854788E-01
  0.741051289197E+00  0.694137954256E-01  0.159999521455E-01
  0.686384622531E+00  0.694137954256E-01  0.186666188122E-01
  0.631717955864E+00  0.694137954256E-01  0.213332854788E-01
  0.577051289197E+00  0.694137954256E-01  0.239999521455E-01
  0.522384622531E+00  0.694137954256E-01  0.266666188122E-01
  0.467717955864E+00  0.694137954256E-01  0.293332854788E-01
  0.413051289197E+00  0.694137954256E-01  0.319999521455E-01
  0.358384622531E+00  0.694137954256E-01  0.346666188122E-01
  0.303717955864E+00  0.694137954256E-01  0.373332854788E-01
  0.249051296167E+00  0.694137884915E-01  0.399999606290E-01
  0.236194154594E+00  0.694137872141E-01  0.371428305018E-01
  0.223337011536E+00  0.694137874147E-01  0.342856885520E-01
  0.210479868997E+00  0.694137870979E-01  0.314285442620E-01
  0.197622726140E+00  0.694137870979E-01  0.285714014048E-01
  0.184765583283E+00  0.694137870979E-01  0.257142585477E-01
  0.171908440426E+00  0.694137870979E-01  0.228571156905E-01
  0.159051297568E+00  0.694137870979E-01  0.199999728334E-01
  0.146194154711E+00  0.694137870979E-01  0.171428299763E-01
  0.133337011854E+00  0.694137870979E-01  0.142856871191E-01
  0.120479868997E+00  0.694137870979E-01  0.114285442620E-01
  0.107622726140E+00  0.694137870979E-01  0.857140140485E-02
  0.947655829643E-01  0.694137874147E-01  0.571425998057E-02
  0.819084403087E-01  0.694137872141E-01  0.285711621609E-02
  0.690513163987E-01  0.694137683659E-01 -0.260394898575E-23
  0.819084403087E-01  0.694137872141E-01 -0.285711621609E-02
  0.947655829643E-01  0.694137874147E-01 -0.571425998057E-02
  0.107622726140E+00  0.694137870979E-01 -0.857140140485E-02
  0.120479868997E+00  0.694137870979E-01 -0.114285442620E-01
  0.133337011854E+00  0.694137870979E-01 -0.142856871191E-01
  0.146194154711E+00  0.694137870979E-01 -0.171428299763E-01
  0.159051297568E+00  0.694137870979E-01 -0.199999728334E-01
  0.171908440426E+00  0.694137870979E-01 -0.228571156905E-01
  0.184765583283E+00  0.694137870979E-01 -0.257142585477E-01
  0.197622726140E+00  0.694137870979E-01 -0.285714014048E-01
  0.210479868997E+00  0.694137870979E-01 -0.314285442620E-01
  0.223337011536E+00  0.694137874147E-01 -0.342856885520E-01
[...]
POINT_DATA                3539
SCALARS phi float 1
LOOKUP_TABLE default
 -0.326732795008E-14
  0.168279358005E-14
 -0.264892274782E-14
 -0.230371277610E-14
 -0.202268757299E-14
 -0.178503045678E-14
 -0.160808866223E-14
 -0.139645239816E-14
 -0.119522447495E-14
 -0.933281230076E-15
 -0.714706072102E-15
 -0.430211422042E-15
 -0.145716771982E-15
  0.555111512313E-16
  0.659194920871E-16
 -0.104083408559E-16
 -0.275127143290E-14
  0.346944695195E-17
 -0.346944695195E-17
  0.173472347598E-16
 -0.693889390391E-17
 -0.173472347598E-17
 -0.346944695195E-17
 -0.122622398346E-12
 -0.422994972382E-13
  0.000000000000E+00
 -0.157746645607E-11
 -0.139638474395E-11
 -0.885632712999E-12
  0.241274238002E-10
 -0.112451033632E-15
 -0.170750872209E-10
 -0.860856091273E-12
 -0.115654447824E-11
 -0.162910396978E-11
  0.173472347598E-17
 -0.423480694955E-13
 -0.122908627720E-12
  0.520417042793E-17
 -0.104083408559E-16
  0.000000000000E+00
  0.173472347598E-16
 -0.173472347598E-16
  0.173472347598E-16
 -0.273392419814E-14
  0.346944695195E-17
  0.555111512313E-16
  0.451028103754E-16
  0.197758476261E-15
  0.437150315946E-15
  0.742461647718E-15
  0.846545056277E-15
  0.102695629778E-14
  0.114838694110E-14
  0.124553145575E-14
  0.126808286094E-14
  0.126808286094E-14
  0.129236898960E-14
  0.136392633299E-14
 -0.289969871031E-14
  0.146822658198E-14
 -0.545136852326E-15
 -0.210248485288E-14
 -0.199753408259E-14
 -0.188044024796E-14
 -0.170523317689E-14
 -0.151441359453E-14
 -0.131492039479E-14
 -0.105124242644E-14
 -0.808381139805E-15
 -0.537764277553E-15
 -0.176941794550E-15
  0.451028103754E-16
  0.381639164715E-16
  0.520417042793E-16
 -0.242861286637E-16
  0.171390679427E-14
  0.693889390391E-17
  0.173472347598E-16
 -0.346944695195E-17
 -0.104083408559E-16
  0.138777878078E-16
 -0.146375966903E-13
 -0.538458166943E-14
  0.173472347598E-17
 -0.357465793077E-12
 -0.330669519544E-12
 -0.507892339296E-12
  0.279264458780E-13
  0.178057069956E-11
 -0.179583778404E-12
  0.498030436336E-13
 -0.241444017557E-12
 -0.366283392506E-12
 -0.867361737988E-17
 -0.538805111638E-14
 -0.147208634171E-13
  0.104083408559E-16
 -0.346944695195E-17
 -0.242861286637E-16
  0.104083408559E-16
  0.104083408559E-16
  0.173125402902E-14
 -0.381639164715E-16
  0.451028103754E-16
  0.451028103754E-16
  0.555111512313E-16
  0.260208521397E-15
  0.534294830601E-15
  0.825728374565E-15
  0.959302082215E-15
  0.109461051334E-14
  0.119695919842E-14
  0.124206200880E-14
  0.125073562618E-14
  0.121343907145E-14
  0.115749423935E-14
 -0.707116656895E-15
 -0.272416637859E-14
  0.136349265212E-14
  0.979061666809E-15
 -0.212720466242E-15
 -0.181365339413E-14
 -0.173645819945E-14
 -0.159247615095E-14
 -0.142941214420E-14
 -0.120216336885E-14
 -0.959302082215E-15
 -0.742461647718E-15
 -0.523886489745E-15
 -0.170002900646E-15
 -0.312250225676E-16
  0.208166817117E-16
 -0.693889390391E-16
 -0.104083408559E-16
  0.138777878078E-16
  0.173472347598E-16
  0.693889390391E-17
 -0.104083408559E-16
  0.000000000000E+00
  0.346944695195E-17
 -0.113450915329E-14
 -0.732053306862E-15
 -0.346944695195E-17
 -0.871022004523E-13
 -0.105568331854E-12
 -0.289298099365E-12
 -0.145244059835E-12
 -0.448475891840E-12
  0.441469777401E-13
  0.130971622436E-12
 -0.463327293199E-13
 -0.919438136737E-13
  0.000000000000E+00
 -0.738992200766E-15
 -0.117614251671E-14
 -0.173472347598E-16
 -0.693889390391E-17
  0.693889390391E-17
 -0.208166817117E-16
 -0.693889390391E-17
  0.242861286637E-16
  0.485722573274E-16
 -0.346944695195E-16
  0.346944695195E-17
  0.346944695195E-17
  0.163064006742E-15
  0.499600361081E-15
  0.652256026967E-15
  0.865627014512E-15
  0.966240976119E-15
  0.106858966120E-14
  0.112410081243E-14
  0.114665221762E-14
  0.111802928027E-14
 -0.884925813183E-15
 -0.247268568468E-14
 -0.257259491487E-14
  0.128803218091E-14
  0.929594942689E-15
  0.102934154256E-14
 -0.103216046821E-15
 -0.161069074744E-14
 -0.146237189025E-14
 -0.128889954265E-14
 -0.109114106639E-14
 -0.888178419700E-15
 -0.683481049535E-15
 -0.451028103754E-15
 -0.145716771982E-15
 -0.346944695195E-16
  0.346944695195E-17
 -0.381639164715E-16
  0.208166817117E-16
  0.763278329430E-16
 -0.138777878078E-16
 -0.173472347598E-16
  0.000000000000E+00
 -0.104083408559E-16
 -0.104083408559E-16
  0.462477278695E-14
  0.128022592527E-14
 -0.346944695195E-17
 -0.838218383592E-14
 -0.343960970817E-13
 -0.214103040852E-12
 -0.278719755609E-12
 -0.323413171244E-12
  0.162300728412E-12
  0.148010076417E-12
  0.787217513398E-14
 -0.113277442981E-13
 -0.242861286637E-16
  0.127675647832E-14
  0.461783389305E-14
  0.346944695195E-17
  0.104083408559E-16
 -0.104083408559E-16
 -0.346944695195E-16
  0.138777878078E-16
  0.693889390391E-16
  0.000000000000E+00
 -0.520417042793E-16
 -0.346944695195E-17
 -0.104083408559E-16
  0.176941794550E-15
  0.398986399475E-15
  0.593275428784E-15
  0.768482499858E-15
  0.893382590128E-15
  0.100613961607E-14
  0.105124242644E-14
  0.106772229946E-14
 -0.820524204137E-15
 -0.258181063334E-14
 -0.231628952130E-14
 -0.244292433504E-14
  0.122298005056E-14
  0.870397504071E-15
  0.960616677349E-15
  0.107075806555E-14
 -0.122818422099E-14
 -0.136089056690E-14
 -0.117093834628E-14
 -0.102522157430E-14
 -0.810115863281E-15
 -0.608887940068E-15
 -0.350414142147E-15
 -0.163064006742E-15
 -0.416333634234E-16
  0.138777878078E-16
 -0.346944695195E-17
 -0.138777878078E-16
  0.416333634234E-16
  0.693889390391E-17
  0.624500451352E-16
 -0.208166817117E-16
  0.312250225676E-16
  0.000000000000E+00
  0.718522463750E-14
  0.215105711021E-14
 -0.173472347598E-16
  0.253755350066E-13
  0.000000000000E+00
 -0.163277377729E-12
 -0.324686458275E-12
 -0.254957513435E-12
  0.206753017484E-12
  0.142106812429E-12
  0.284876289225E-13
  0.233146835171E-13
 -0.693889390391E-17
  0.214411821631E-14
  0.712971348626E-14
  0.242861286637E-16
  0.208166817117E-16
  0.693889390391E-17
  0.138777878078E-16
 -0.485722573274E-16
  0.208166817117E-16
 -0.763278329430E-16
 -0.416333634234E-16
  0.104083408559E-16
 -0.104083408559E-16
  0.763278329430E-16
  0.326128013484E-15
  0.563785129692E-15
  0.680011602583E-15
  0.820524204137E-15
  0.919403442268E-15
  0.980118763927E-15
  0.713838710364E-15
 -0.270963806948E-14
 -0.243210941837E-14
 -0.217490955801E-14
 -0.230804958479E-14
  0.114838694110E-14
  0.824861012827E-15
  0.912898229233E-15
  0.100462173303E-14
 -0.111933032287E-14
 -0.127502175484E-14
 -0.112757025938E-14
 -0.947159017883E-15
 -0.763278329430E-15
 -0.558580959265E-15
 -0.353883589099E-15
 -0.163064006742E-15
  0.138777878078E-16
  0.000000000000E+00
 -0.451028103754E-16
  0.000000000000E+00
 -0.277555756156E-16
  0.555111512313E-16
  0.693889390391E-17
  0.138777878078E-16
 -0.138777878078E-16
  0.173472347598E-16
  0.797625854254E-14
  0.243208231332E-14
  0.000000000000E+00
  0.401068067646E-13
  0.175588710238E-13
 -0.120115722924E-12
 -0.323215412767E-12
 -0.202731928467E-12
  0.213410886185E-12
  0.124063953555E-12
  0.358948981649E-13
  0.385629028710E-13
 -0.693889390391E-17
  0.243902120722E-14
  0.794850296693E-14
  0.104083408559E-16
 -0.416333634234E-16
 -0.138777878078E-16
  0.208166817117E-16
  0.208166817117E-16
  0.971445146547E-16
  0.138777878078E-16
  0.346944695195E-17
 -0.242861286637E-16
 -0.104083408559E-16
  0.111022302463E-15
  0.336536354340E-15
  0.534294830601E-15
  0.629704621780E-15
  0.777156117238E-15
  0.834401991945E-15
  0.915933995316E-15
  0.640112962635E-15
 -0.254288777535E-14
 -0.229222023307E-14
 -0.205651468077E-14
 -0.219789464406E-14
  0.109981468377E-14
  0.783227649404E-15
  0.865410174078E-15
  0.948731111033E-15
 -0.103259414908E-14
 -0.117874460193E-14
 -0.102869102125E-14
 -0.858688120609E-15
 -0.692154666915E-15
 -0.513478148889E-15
 -0.312250225676E-15
 -0.124900090270E-15
  0.277555756156E-16
 -0.346944695195E-17
  0.242861286637E-16
  0.416333634234E-16
 -0.693889390391E-17
  0.208166817117E-16
  0.416333634234E-16
  0.000000000000E+00
  0.000000000000E+00
 -0.346944695195E-16
  0.772992780895E-14
  0.241473507856E-14
  0.173472347598E-16
  0.448703574296E-13
  0.244179676478E-13
 -0.802032051883E-13
 -0.294307980764E-12
 -0.158852098142E-12
  0.198457569822E-12
  0.985010684129E-13
  0.378065634354E-13
  0.436664593373E-13
  0.346944695195E-17
  0.242514341942E-14
  0.773686670286E-14
 -0.138777878078E-16
  0.138777878078E-16
  0.624500451352E-16
 -0.693889390391E-17
  0.346944695195E-16
  0.346944695195E-16
  0.138777878078E-16
 -0.138777878078E-16
 -0.485722573274E-16
 -0.693889390391E-17
  0.121430643318E-15
  0.301841884820E-15
  0.437150315946E-15
  0.565519853168E-15
  0.712971348626E-15
  0.810983225019E-15
  0.844810332801E-15
  0.595443833129E-15
 -0.239646627195E-14
 -0.216688646193E-14
 -0.195590071916E-14
 -0.209728068246E-14
  0.104777297949E-14
  0.752869988574E-15
  0.823126289351E-15
  0.893382590128E-15
 -0.995948115645E-15
 -0.111716191853E-14
 -0.986190296093E-15
 -0.820524204137E-15
 -0.641847686111E-15
 -0.496130914129E-15
 -0.315719672628E-15
 -0.114491749414E-15
  0.104083408559E-16
  0.381639164715E-16
 -0.242861286637E-16
  0.277555756156E-16
  0.124900090270E-15
  0.346944695195E-16
  0.000000000000E+00
 -0.346944695195E-16
  0.138777878078E-16
 -0.138777878078E-16
  0.689032164658E-14
  0.219269047363E-14
  0.000000000000E+00
  0.437636038519E-13
  0.256843157853E-13
 -0.457897608719E-13
 -0.248228521071E-12
 -0.125663368600E-12
  0.170113922948E-12
  0.715191794676E-13
  0.359608176570E-13
  0.427817503645E-13
  0.104083408559E-16
  0.215105711021E-14
  0.686950496487E-14
  0.346944695195E-16
  0.000000000000E+00
  0.208166817117E-16
  0.485722573274E-16
 -0.208166817117E-16
  0.166533453694E-15
 -0.346944695195E-16
  0.381639164715E-16
 -0.242861286637E-16
  0.104083408559E-16
  0.124900090270E-15
  0.267147415300E-15
  0.445823933326E-15
  0.579397640976E-15
  0.674807432155E-15
  0.738992200766E-15
  0.815320033709E-15
  0.560315682741E-15
 -0.227113250081E-14
 -0.204654002078E-14
 -0.183447007585E-14
 -0.201661604082E-14
  0.993129189997E-15
  0.715573433840E-15
  0.776288755500E-15
  0.858254439740E-15
 -0.940436964414E-15
 -0.105904868208E-14
 -0.935883315289E-15
 -0.799707522425E-15
 -0.596744875736E-15
 -0.425007251614E-15
 -0.263677968348E-15
 -0.902056207508E-16
 -0.346944695195E-17
 -0.451028103754E-16
  0.624500451352E-16
 -0.416333634234E-16
  0.902056207508E-16
 -0.693889390391E-17
 -0.693889390391E-16
  0.624500451352E-16
  0.485722573274E-16
  0.000000000000E+00
  0.555111512313E-14
  0.174166236988E-14
 -0.138777878078E-16
  0.388716836497E-13
  0.233840724562E-13
 -0.304652136851E-13
 -0.190833460145E-12
 -0.973457425779E-13
  0.132841654343E-12
  0.557748291996E-13
  0.315823756036E-13
  0.380598330629E-13
 -0.277555756156E-16
  0.169309011255E-14
  0.553029844141E-14
 -0.416333634234E-16
  0.138777878078E-16
 -0.693889390391E-17
 -0.416333634234E-16
  0.693889390391E-16
  0.485722573274E-16
 -0.416333634234E-16
 -0.208166817117E-16
  0.000000000000E+00
  0.346944695195E-17
  0.111022302463E-15
  0.294902990916E-15
  0.392047505571E-15
  0.558580959265E-15
  0.643582409587E-15
  0.718175519054E-15
  0.764579372037E-15
  0.533427468863E-15
 -0.214498557805E-14
 -0.194462501657E-14
 -0.176161168985E-14
 -0.191860416443E-14
  0.975781955237E-15
  0.662664367823E-15
  0.748533179884E-15
  0.813585310233E-15
 -0.888341050026E-15
 -0.100353753085E-14
 -0.857820758871E-15
 -0.735522753814E-15
 -0.581132364452E-15
 -0.404190569903E-15
 -0.194289029309E-15
 -0.867361737988E-16
 -0.346944695195E-17
  0.104083408559E-16
 -0.277555756156E-16
 -0.485722573274E-16
  0.902056207508E-16
 -0.416333634234E-16
  0.693889390391E-17
 -0.832667268469E-16
 -0.208166817117E-16
  0.000000000000E+00
  0.378169717763E-14
  0.118655085757E-14
 -0.555111512313E-16
  0.313707393396E-13
  0.188078719265E-13
 -0.232348862372E-13
 -0.127033800146E-12
 -0.771570307645E-13
  0.904484820374E-13
  0.439093206239E-13
  0.255351295664E-13
  0.307046055248E-13
 -0.138777878078E-16
  0.121430643318E-14
  0.387190279838E-14
  0.416333634234E-16
  0.555111512313E-16
 -0.346944695195E-16
 -0.555111512313E-16
 -0.624500451352E-16
  0.416333634234E-16
 -0.624500451352E-16
 -0.485722573274E-16
 -0.104083408559E-16
  0.416333634234E-16
  0.520417042793E-16
  0.289698820488E-15
  0.366026653431E-15
  0.482253126322E-15
  0.596744875736E-15
  0.659194920871E-15
  0.724680732089E-15
  0.506701885311E-15
 -0.204393793557E-14
 -0.184748050192E-14
 -0.172171304991E-14
 -0.184140896975E-14
  0.928944421386E-15
  0.646184494801E-15
  0.714706072102E-15
  0.779758202452E-15
 -0.852725008660E-15
 -0.964506252643E-15
 -0.813585310233E-15
 -0.706032454723E-15
 -0.560315682741E-15
 -0.345209971719E-15
 -0.244596010113E-15
 -0.832667268469E-16
  0.346944695195E-17
 -0.728583859910E-16
 -0.104083408559E-15
 -0.555111512313E-16
  0.277555756156E-16
 -0.208166817117E-16
 -0.693889390391E-16
  0.208166817117E-16
  0.138777878078E-16
 -0.832667268469E-16
  0.279637424327E-14
  0.895117313604E-15
  0.346944695195E-16
  0.220379270388E-13
  0.125836840947E-13
 -0.203066730098E-13
 -0.928389309873E-13
 -0.606736882958E-13
  0.656245890962E-13
  0.336987382443E-13
  0.182388826264E-13
  0.215036322082E-13
  0.693889390391E-17
  0.756339435526E-15
  0.278249645547E-14
 -0.693889390391E-17
  0.117961196366E-15
  0.485722573274E-16
 -0.277555756156E-16
 -0.416333634234E-16
 -0.277555756156E-16
 -0.208166817117E-16
 -0.208166817117E-16
  0.520417042793E-16
 -0.138777878078E-16
  0.520417042793E-16
  0.272351585728E-15
  0.340005801291E-15
  0.456232274182E-15
  0.563785129692E-15
  0.644449771325E-15
  0.684782092142E-15
  0.486535724903E-15
 -0.195373231482E-14
 -0.176768322202E-14
 -0.161242547092E-14
 -0.177028530723E-14
  0.915066633578E-15
  0.596744875736E-15
  0.691287305177E-15
  0.730318583386E-15
 -0.816512656099E-15
 -0.907694058805E-15
 -0.796238075473E-15
 -0.656592835657E-15
 -0.510008701937E-15
 -0.364291929955E-15
 -0.246330733589E-15
 -0.902056207508E-16
 -0.346944695195E-17
  0.346944695195E-16
 -0.693889390391E-17
  0.485722573274E-16
  0.277555756156E-16
  0.485722573274E-16
 -0.693889390391E-17
 -0.208166817117E-16
  0.000000000000E+00
 -0.346944695195E-16
  0.204003480775E-14
  0.596744875736E-15
  0.346944695195E-16
  0.155084278752E-13
  0.826422263955E-14
 -0.181105130892E-13
 -0.727994053928E-13
 -0.487596074628E-13
  0.506296393699E-13
  0.264371857739E-13
  0.130312427515E-13
  0.150573997715E-13
  0.693889390391E-17
  0.673072708679E-15
  0.213024042850E-14
  0.763278329430E-16
  0.138777878078E-16
 -0.485722573274E-16
  0.485722573274E-16
 -0.693889390391E-17
  0.346944695195E-16
 -0.208166817117E-16
 -0.485722573274E-16
 -0.312250225676E-16
 -0.485722573274E-16
  0.763278329430E-16
  0.242861286637E-15
  0.348679418671E-15
  0.419803081186E-15
  0.523886489745E-15
  0.594142790522E-15
  0.664832772168E-15
  0.459051199830E-15
 -0.187350135405E-14
 -0.170610053862E-14
 -0.155778168143E-14
 -0.170349845341E-14
  0.868229099726E-15
  0.622765727876E-15
  0.655725473919E-15
  0.706899816461E-15
 -0.780408723755E-15
 -0.872999589285E-15
 -0.744630052063E-15
 -0.630571983518E-15
 -0.504804531509E-15
 -0.340005801291E-15
 -0.255004350969E-15
  0.346944695195E-17
  0.173472347598E-16
 -0.208166817117E-16
  0.138777878078E-16
 -0.763278329430E-16
 -0.208166817117E-16
 -0.693889390391E-17
  0.485722573274E-16
 -0.346944695195E-16
  0.346944695195E-16
  0.000000000000E+00
  0.170696790036E-14
  0.527355936697E-15
  0.416333634234E-16
  0.119904086660E-13
  0.609928774153E-14
 -0.157721058436E-13
 -0.589667203954E-13
 -0.403253819226E-13
  0.407000821934E-13
  0.216320017454E-13
  0.102071129326E-13
  0.115948917134E-13
  0.000000000000E+00
  0.520417042793E-15
  0.176941794550E-14
  0.208166817117E-16
  0.485722573274E-16
 -0.346944695195E-16
  0.693889390391E-16
  0.832667268469E-16
 -0.416333634234E-16
  0.277555756156E-16
 -0.111022302463E-15
  0.520417042793E-16
 -0.277555756156E-16
  0.589805981832E-16
  0.239391839685E-15
  0.326128013484E-15
  0.430211422042E-15
  0.503069808033E-15
  0.575928194024E-15
  0.624717291786E-15
  0.443872369416E-15
 -0.178936726547E-14
 -0.162023172656E-14
 -0.150573997715E-14
 -0.162890534394E-14
  0.843075609325E-15
  0.522151766269E-15
  0.625367813090E-15
  0.669603261727E-15
 -0.736390115552E-15
 -0.841449306066E-15
 -0.712537667757E-15
 -0.588938620094E-15
 -0.461436444610E-15
 -0.317454396104E-15
 -0.222044604925E-15
 -0.763278329430E-16
 -0.485722573274E-16
 -0.346944695195E-16
 -0.124900090270E-15
 -0.693889390391E-16
  0.555111512313E-16
 -0.138777878078E-16
  0.624500451352E-16
 -0.111022302463E-15
  0.693889390391E-17
  0.138777878078E-16
  0.145716771982E-14
  0.402455846427E-15
  0.000000000000E+00
  0.966587920814E-14
  0.468375338514E-14
 -0.137043154602E-13
 -0.488359352957E-13
 -0.340942551968E-13
  0.336050631766E-13
  0.181868409221E-13
  0.831973379078E-14
  0.928424004343E-14
 -0.624500451352E-16
  0.457966997658E-15
  0.142941214420E-14
 -0.208166817117E-16
  0.000000000000E+00
  0.000000000000E+00
  0.555111512313E-16
 -0.138777878078E-16
 -0.624500451352E-16
  0.346944695195E-16
 -0.208166817117E-16
 -0.346944695195E-17
 -0.936750677027E-16
  0.138777878078E-16
  0.166533453694E-15
  0.300107161344E-15
  0.407660016855E-15
  0.489192020225E-15
  0.553376788837E-15
  0.599726431710E-15
  0.422838847269E-15
 -0.172171304991E-14
 -0.157946572488E-14
 -0.143808576158E-14
 -0.157339419271E-14
  0.806646416329E-15
  0.572458747072E-15
  0.613224748758E-15
  0.649653941753E-15
 -0.724247051220E-15
 -0.799084106176E-15
 -0.691720986046E-15
 -0.561183044478E-15
 -0.442354486374E-15
 -0.307046055248E-15
 -0.173472347598E-15
 -0.971445146547E-16
 -0.173472347598E-16
 -0.451028103754E-16
 -0.138777878078E-15
  0.000000000000E+00
 -0.277555756156E-16
  0.485722573274E-16
 -0.138777878078E-16
  0.693889390391E-17
  0.208166817117E-16
 -0.485722573274E-16
  0.122818422099E-14
  0.360822483003E-15
 -0.971445146547E-16
  0.801442245901E-14
  0.370536934469E-14
 -0.120806142867E-13
 -0.412066214484E-13
 -0.293133572971E-13
  0.282378287420E-13
  0.154945500874E-13
  0.686950496487E-14
  0.764666108211E-14
 -0.346944695195E-16
  0.381639164715E-15
  0.130451205393E-14
 -0.624500451352E-16
  0.138777878078E-16
 -0.111022302463E-15
  0.624500451352E-16
  0.693889390391E-17
 -0.763278329430E-16
  0.624500451352E-16
 -0.624500451352E-16
 -0.173472347598E-16
  0.485722573274E-16
  0.107552855511E-15
  0.171737624122E-15
  0.265412691824E-15
  0.390312782095E-15
  0.467507976776E-15
  0.520850723662E-15
  0.575440303047E-15
  0.406358974248E-15
 -0.166359981346E-14
 -0.149966844498E-14
 -0.135481903474E-14
 -0.150400525367E-14
  0.837871438897E-15
  0.588071258356E-15
  0.584601811404E-15
  0.628837260042E-15
 -0.692154666915E-15
 -0.770976164854E-15
 -0.655942314354E-15
 -0.542968447981E-15
 -0.401588484689E-15
 -0.298372437868E-15
 -0.173472347598E-15
 -0.485722573274E-16
 -0.485722573274E-16
  0.763278329430E-16
  0.693889390391E-16
  0.763278329430E-16
 -0.624500451352E-16
 -0.346944695195E-16
 -0.693889390391E-17
  0.485722573274E-16
  0.152655665886E-15
  0.346944695195E-16
  0.971445146547E-15
  0.249800180541E-15
  0.416333634234E-16
  0.675154376850E-14
  0.303923552991E-14
 -0.106720188242E-13
 -0.352669282666E-13
 -0.255802323768E-13
  0.241508202325E-13
  0.133712485528E-13
  0.582867087928E-14
  0.644623243673E-14
  0.624500451352E-16
  0.256739074445E-15
  0.104083408559E-14
  0.277555756156E-16
  0.485722573274E-16
  0.902056207508E-16
 -0.277555756156E-16
 -0.111022302463E-15
 -0.485722573274E-16
  0.208166817117E-16
 -0.832667268469E-16
 -0.693889390391E-17
 -0.104083408559E-16
  0.312250225676E-16
  0.166533453694E-15
  0.282759926584E-15
  0.380771802977E-15
  0.438017677684E-15
  0.510225542372E-15
  0.553593629271E-15
  0.383807569060E-15
 -0.159334351268E-14
 -0.148145384848E-14
 -0.133573707650E-14
 -0.146584133720E-14
  0.815320033709E-15
  0.457966997658E-15
  0.584601811404E-15