# vtk DataFile Version 3.0
MachLine results file. Generated by MachLine, USU AeroLab (c) 2022.
ASCII
DATASET POLYDATA
POINTS                1187 float
  0.675863036525E-06  0.000000000000E+00 -0.213258230316E-22
  0.549501825179E-01  0.000000000000E+00 -0.132455707114E+00
  0.549501825179E-01  0.000000000000E+00  0.132455707114E+00
  0.227189709939E+00  0.000000000000E+00 -0.303493515773E+00
  0.227189709939E+00  0.000000000000E+00  0.303493515773E+00
  0.499539473684E+00  0.000000000000E+00 -0.448209209342E+00
  0.499539473684E+00  0.000000000000E+00  0.448209209342E+00
  0.579898333322E+00  0.579897308578E+00 -0.266861267103E-22
  0.634847919487E+00  0.579897363640E+00 -0.132455735269E+00
  0.634847919487E+00  0.579897363640E+00  0.132455735269E+00
  0.807087456145E+00  0.579897428594E+00 -0.303493525178E+00
  0.807087456145E+00  0.579897428594E+00  0.303493525178E+00
  0.901210222700E+00  0.000000000000E+00 -0.591219373661E+00
  0.901210222700E+00  0.000000000000E+00  0.591219373661E+00
  0.107943720984E+01  0.579897509335E+00 -0.448209201506E+00
  0.107943720984E+01  0.579897509335E+00  0.448209201506E+00
  0.132131187392E+01  0.132131059694E+01  0.332548448903E-22
  0.137626144152E+01  0.132131067057E+01 -0.132455661410E+00
  0.137626144152E+01  0.132131067057E+01  0.132455661410E+00
  0.146172272243E+01  0.000000000000E+00 -0.735961789263E+00
  0.146172272243E+01  0.000000000000E+00  0.735961789263E+00
  0.148110797047E+01  0.579897562274E+00 -0.591219354450E+00
  0.148110797047E+01  0.579897562274E+00  0.591219354450E+00
  0.154850101561E+01  0.132131075769E+01 -0.303493407485E+00
  0.154850101561E+01  0.132131075769E+01  0.303493407485E+00
  0.182085074662E+01  0.132131086112E+01 -0.448209058637E+00
  0.182085074662E+01  0.132131086112E+01  0.448209058637E+00
  0.204162047189E+01  0.579897603576E+00 -0.735961764930E+00
  0.204162047189E+01  0.579897603576E+00  0.735961764930E+00
  0.221902007880E+01  0.000000000000E+00 -0.875947914353E+00
  0.221902007880E+01  0.000000000000E+00  0.875947914353E+00
  0.222252161071E+01  0.132131092980E+01 -0.591219200969E+00
  0.222252161071E+01  0.132131092980E+01  0.591219200969E+00
  0.226196654363E+01  0.226196495967E+01  0.123746850808E-21
  0.231691597011E+01  0.226196505521E+01 -0.132455571050E+00
  0.231691597011E+01  0.226196505521E+01  0.132455571050E+00
  0.248915563638E+01  0.226196516936E+01 -0.303493263379E+00
  0.248915563638E+01  0.226196516936E+01  0.303493263379E+00
  0.276150533967E+01  0.226196530051E+01 -0.448208883574E+00
  0.276150533967E+01  0.226196530051E+01  0.448208883574E+00
  0.278303386178E+01  0.132131098304E+01 -0.735961606477E+00
  0.278303386178E+01  0.132131098304E+01  0.735961606477E+00
  0.279891794764E+01  0.579897643700E+00 -0.875947888171E+00
  0.279891794764E+01  0.579897643700E+00  0.875947888171E+00
  0.316317594613E+01  0.226196538841E+01 -0.591219012639E+00
  0.316317594613E+01  0.226196538841E+01  0.591219012639E+00
  0.320749488275E+01  0.000000000000E+00 -0.100190941086E+01
  0.320749488275E+01  0.000000000000E+00  0.100190941086E+01
  0.344383051088E+01  0.344382856200E+01 -0.203008186233E-21
  0.349877991230E+01  0.344382868260E+01 -0.132455462954E+00
  0.349877991230E+01  0.344382868260E+01  0.132455462954E+00
  0.354033132757E+01  0.132131103312E+01 -0.875947727442E+00
  0.354033132757E+01  0.132131103312E+01  0.875947727442E+00
  0.367101954631E+01  0.344382882901E+01 -0.303493090886E+00
  0.367101954631E+01  0.344382882901E+01  0.303493090886E+00
  0.372368842104E+01  0.226196545622E+01 -0.735961411730E+00
  0.372368842104E+01  0.226196545622E+01  0.735961411730E+00
  0.378739275088E+01  0.579897686343E+00 -0.100190938317E+01
  0.378739275088E+01  0.579897686343E+00  0.100190938317E+01
  0.394336921647E+01  0.344382899329E+01 -0.448208673905E+00
  0.394336921647E+01  0.344382899329E+01  0.448208673905E+00
  0.434503979999E+01  0.344382910413E+01 -0.591218786829E+00
  0.434503979999E+01  0.344382910413E+01  0.591218786829E+00
  0.444704542168E+01  0.000000000000E+00 -0.110028528289E+01
  0.444704542168E+01  0.000000000000E+00  0.110028528289E+01
  0.448098587463E+01  0.226196551850E+01 -0.875947529585E+00
  0.448098587463E+01  0.226196551850E+01  0.875947529585E+00
  0.452880636084E+01  0.132131108415E+01 -0.100190922178E+01
  0.452880636084E+01  0.132131108415E+01  0.100190922178E+01
  0.490555225751E+01  0.344382918933E+01 -0.735961177904E+00
  0.490555225751E+01  0.344382918933E+01  0.735961177904E+00
  0.491070770501E+01  0.491070533515E+01 -0.524579862279E-21
  0.496565731738E+01  0.491070548321E+01 -0.132455337263E+00
  0.496565731738E+01  0.491070548321E+01  0.132455337263E+00
  0.502694328528E+01  0.579897742463E+00 -0.110028525077E+01
  0.502694328528E+01  0.579897742463E+00  0.110028525077E+01
  0.513789691393E+01  0.491070566709E+01 -0.303492890235E+00
  0.513789691393E+01  0.491070566709E+01  0.303492890235E+00
  0.541024654562E+01  0.491070586985E+01 -0.448208429906E+00
  0.541024654562E+01  0.491070586985E+01  0.448208429906E+00
  0.546946065919E+01  0.226196557983E+01 -0.100190902284E+01
  0.546946065919E+01  0.226196557983E+01  0.100190902284E+01
  0.566284969651E+01  0.344382926620E+01 -0.875947291675E+00
  0.566284969651E+01  0.344382926620E+01  0.875947291675E+00
  0.576835641033E+01  0.132131114834E+01 -0.110028508948E+01
  0.576835641033E+01  0.132131114834E+01  0.110028508948E+01
  0.581191734092E+01  0.491070600732E+01 -0.591218523832E+00
  0.581191734092E+01  0.491070600732E+01  0.591218523832E+00
  0.593039753197E+01  0.000000000000E+00 -0.114102038904E+01
  0.593039753197E+01  0.000000000000E+00  0.114102038904E+01
  0.637242977824E+01  0.491070611272E+01 -0.735960905274E+00
  0.637242977824E+01  0.491070611272E+01  0.735960905274E+00
  0.651029539064E+01  0.579897821385E+00 -0.114102034908E+01
  0.651029539064E+01  0.579897821385E+00  0.114102034908E+01
  0.665132446872E+01  0.344382933988E+01 -0.100190878331E+01
  0.665132446872E+01  0.344382933988E+01  0.100190878331E+01
  0.670394610165E+01  0.670394326449E+01  0.277066815795E-21
  0.670901117559E+01  0.226196565394E+01 -0.110028489049E+01
  0.670901117559E+01  0.226196565394E+01  0.110028489049E+01
  0.675889568559E+01  0.670394344099E+01 -0.132455196331E+00
  0.675889568559E+01  0.670394344099E+01  0.132455196331E+00
  0.693113524020E+01  0.670394366681E+01 -0.303492665191E+00
  0.693113524020E+01  0.670394366681E+01  0.303492665191E+00
  0.712972672345E+01  0.491070620654E+01 -0.875947013932E+00
  0.712972672345E+01  0.491070620654E+01  0.875947013932E+00
  0.720348482874E+01  0.670394391271E+01 -0.448208156164E+00
  0.720348482874E+01  0.670394391271E+01  0.448208156164E+00
  0.725170898390E+01  0.132131123591E+01 -0.114102018842E+01
  0.725170898390E+01  0.132131123591E+01  0.114102018842E+01
  0.760515511739E+01  0.670394407999E+01 -0.591218228604E+00
  0.760515511739E+01  0.670394407999E+01  0.591218228604E+00
  0.760912364553E+01  0.000000000000E+00 -0.109401536550E+01
  0.760912364553E+01  0.000000000000E+00  0.109401536550E+01
  0.789087497317E+01  0.344382942594E+01 -0.110028465065E+01
  0.789087497317E+01  0.344382942594E+01  0.110028465065E+01
  0.811820148128E+01  0.491070629460E+01 -0.100190850332E+01
  0.811820148128E+01  0.491070629460E+01  0.100190850332E+01
  0.816566800892E+01  0.670394420802E+01 -0.735960598981E+00
  0.816566800892E+01  0.670394420802E+01  0.735960598981E+00
  0.818902103223E+01  0.579897899247E+00 -0.109401531463E+01
  0.818902103223E+01  0.579897899247E+00  0.109401531463E+01
  0.819236278481E+01  0.226196575218E+01 -0.114101999011E+01
  0.819236278481E+01  0.226196575218E+01  0.114101999011E+01
  0.885597967734E+01  0.885597634682E+01 -0.182139015898E-20
  0.891092923416E+01  0.885597655044E+01 -0.132455045554E+00
  0.891092923416E+01  0.885597655044E+01  0.132455045554E+00
  0.892296445830E+01  0.670394432084E+01 -0.875946701584E+00
  0.892296445830E+01  0.670394432084E+01  0.875946701584E+00
  0.893043509507E+01  0.132131132102E+01 -0.109401515502E+01
  0.893043509507E+01  0.132131132102E+01  0.109401515502E+01
  0.908316826707E+01  0.885597682112E+01 -0.303492424382E+00
  0.908316826707E+01  0.885597682112E+01  0.303492424382E+00
  0.935551828632E+01  0.885597711315E+01 -0.448207863185E+00
  0.935551828632E+01  0.885597711315E+01  0.448207863185E+00
  0.935775197178E+01  0.491070639461E+01 -0.110028436999E+01
  0.935775197178E+01  0.491070639461E+01  0.110028436999E+01
  0.937422656953E+01  0.344382953704E+01 -0.114101975091E+01
  0.937422656953E+01  0.344382953704E+01  0.114101975091E+01
  0.939523687894E+01  0.000000000000E+00 -0.980760047417E+00
  0.939523687894E+01  0.000000000000E+00  0.980760047417E+00
  0.975718854309E+01  0.885597731231E+01 -0.591217912499E+00
  0.975718854309E+01  0.885597731231E+01  0.591217912499E+00
  0.987108888704E+01  0.226196584624E+01 -0.109401495796E+01
  0.987108888704E+01  0.226196584624E+01  0.109401495796E+01
  0.991144015366E+01  0.670394442504E+01 -0.100190818811E+01
  0.991144015366E+01  0.670394442504E+01  0.100190818811E+01
  0.997513473494E+01  0.579897935555E+00 -0.980759819241E+00
  0.997513473494E+01  0.579897935555E+00  0.980759819241E+00
  0.103177009336E+02  0.885597746451E+01 -0.735960270837E+00
  0.103177009336E+02  0.885597746451E+01  0.735960270837E+00
  0.107165478433E+02  0.132131135812E+01 -0.980759711293E+00
  0.107165478433E+02  0.132131135812E+01  0.980759711293E+00
  0.108411045067E+02  0.491070652075E+01 -0.114101947079E+01
  0.108411045067E+02  0.491070652075E+01  0.114101947079E+01
  0.110529526610E+02  0.344382964189E+01 -0.109401472018E+01
  0.110529526610E+02  0.344382964189E+01  0.109401472018E+01
  0.110749983163E+02  0.885597759764E+01 -0.875946366700E+00
  0.110749983163E+02  0.885597759764E+01  0.875946366700E+00
  0.111509896748E+02  0.670394454073E+01 -0.110028405372E+01
  0.111509896748E+02  0.670394454073E+01  0.110028405372E+01
  0.111782683162E+02  0.000000000000E+00 -0.826625423605E+00
[...]
POINT_DATA                1187
SCALARS phi float 1
LOOKUP_TABLE default
  0.222044604925E-15
  0.133226762955E-14
 -0.444089209850E-15
  0.777156117238E-15
  0.111022302463E-15
 -0.222044604925E-14
  0.777156117238E-15
  0.199840144433E-14
  0.000000000000E+00
  0.155431223448E-14
  0.888178419700E-15
  0.222044604925E-15
 -0.222044604925E-15
  0.410782519111E-14
 -0.333066907388E-15
  0.333066907388E-14
 -0.222044604925E-15
  0.344169137634E-14
  0.321964677141E-14
  0.333066907388E-14
  0.599520433298E-14
  0.266453525910E-14
  0.888178419700E-15
  0.288657986403E-14
  0.321964677141E-14
  0.299760216649E-14
  0.399680288865E-14
  0.199840144433E-14
  0.466293670343E-14
 -0.188737914186E-14
 -0.266453525910E-14
  0.777156117238E-15
  0.133226762955E-14
  0.288657986403E-14
 -0.444089209850E-15
  0.111022302463E-14
  0.488498130835E-14
  0.377475828373E-14
  0.477395900589E-14
  0.188737914186E-14
  0.144328993201E-14
  0.388578058619E-14
 -0.277555756156E-14
  0.222044604925E-14
  0.222044604925E-14
 -0.199840144433E-14
 -0.188737914186E-14
  0.222044604925E-15
  0.355271367880E-14
  0.144328993201E-14
  0.188737914186E-14
 -0.444089209850E-15
  0.477395900589E-14
  0.000000000000E+00
  0.355271367880E-14
 -0.222044604925E-14
  0.177635683940E-14
 -0.666133814775E-15
  0.310862446895E-14
  0.233146835171E-14
 -0.111022302463E-14
  0.666133814775E-15
  0.166533453694E-14
  0.222044604925E-15
  0.288657986403E-14
  0.666133814775E-15
  0.244249065418E-14
  0.555111512313E-15
 -0.555111512313E-15
 -0.333066907388E-15
  0.333066907388E-14
  0.333066907388E-15
  0.888178419700E-15
  0.321964677141E-14
  0.777156117238E-15
  0.466293670343E-14
 -0.122124532709E-14
  0.166533453694E-14
  0.177635683940E-14
  0.366373598126E-14
  0.777156117238E-15
  0.477395900589E-14
  0.144328993201E-14
  0.388578058619E-14
 -0.344169137634E-14
  0.299760216649E-14
 -0.155431223448E-14
  0.366373598126E-14
 -0.172084568817E-14
  0.155431223448E-14
  0.111022302463E-15
  0.355271367880E-14
 -0.188737914186E-14
  0.438538094727E-14
 -0.321964677141E-14
  0.444089209850E-14
 -0.111022302463E-15
  0.166533453694E-14
  0.643929354283E-14
  0.233146835171E-14
  0.133226762955E-14
 -0.222044604925E-14
  0.233146835171E-14
 -0.999200722163E-15
  0.655031584529E-14
  0.111022302463E-15
  0.577315972805E-14
 -0.155431223448E-14
  0.316413562018E-14
 -0.777156117238E-15
  0.444089209850E-14
  0.943689570931E-15
  0.877076189454E-14
 -0.399680288865E-14
  0.344169137634E-14
 -0.111022302463E-14
  0.000000000000E+00
 -0.366373598126E-14
  0.288657986403E-14
 -0.266453525910E-14
  0.227595720048E-14
 -0.299760216649E-14
  0.482947015712E-14
  0.111022302463E-15
 -0.444089209850E-15
  0.177635683940E-14
 -0.233146835171E-14
  0.321964677141E-14
 -0.294209101526E-14
  0.399680288865E-14
 -0.210942374679E-14
  0.133226762955E-14
 -0.111022302463E-15
 -0.999200722163E-15
 -0.383026943496E-14
  0.488498130835E-14
 -0.482947015712E-14
  0.510702591328E-14
 -0.371924713249E-14
  0.272004641033E-14
 -0.133226762955E-14
  0.155431223448E-14
 -0.249800180541E-14
  0.438538094727E-14
 -0.471844785466E-14
  0.288657986403E-14
 -0.369149155688E-14
  0.291433543964E-14
 -0.177635683940E-14
  0.666133814775E-15
 -0.272698530424E-14
  0.389965837400E-14
 -0.302535774210E-14
  0.369149155688E-14
 -0.487110352054E-14
  0.463518112781E-14
 -0.188737914186E-14
  0.122124532709E-14
 -0.388578058619E-14
  0.183186799063E-14
 -0.362123525610E-14
  0.230804958479E-14
  0.244249065418E-14
  0.222044604925E-14
 -0.111022302463E-15
  0.888178419700E-15
 -0.111022302463E-15
 -0.284060969191E-14
  0.364638874650E-14
 -0.213024042850E-14
  0.219962936754E-14
  0.111022302463E-15
  0.310862446895E-14
 -0.244249065418E-14
  0.283106871279E-14
 -0.333066907388E-15
  0.666133814775E-15
 -0.226207941267E-14
  0.147104550763E-14
 -0.417721413015E-14
  0.396904731303E-14
 -0.388578058619E-14
  0.399680288865E-14
 -0.332373017997E-14
  0.342781358853E-14
 -0.188737914186E-14
  0.444089209850E-15
  0.166533453694E-15
 -0.111022302463E-14
 -0.199840144433E-14
  0.360822483003E-14
 -0.138777878078E-14
 -0.235922392733E-14
 -0.213717932240E-14
  0.169309011255E-14
  0.155431223448E-14
  0.111022302463E-14
 -0.158206781009E-14
 -0.205391259556E-14
 -0.666133814775E-15
 -0.296984659087E-14
  0.359434704222E-14
 -0.346250805805E-14
  0.388578058619E-14
  0.344169137634E-14
 -0.277555756156E-14
 -0.777156117238E-15
  0.555111512313E-15
  0.000000000000E+00
 -0.166533453694E-14
 -0.260902410787E-14
  0.333066907388E-15
 -0.158206781009E-14
  0.274780198595E-14
 -0.888178419700E-15
  0.122124532709E-14
 -0.294209101526E-14
  0.335842464949E-14
  0.466293670343E-14
  0.222044604925E-15
 -0.444089209850E-15
  0.127675647832E-14
  0.199840144433E-14
  0.222044604925E-15
 -0.288657986403E-14
 -0.910382880193E-14
  0.149880108324E-14
 -0.205391259556E-14
  0.188737914186E-14
 -0.177635683940E-14
 -0.305311331772E-14
  0.222044604925E-14
 -0.338618022511E-14
  0.335842464949E-14
 -0.398292510084E-14
  0.380251385934E-14
  0.188737914186E-14
 -0.238697950294E-14
  0.111022302463E-15
  0.155431223448E-14
 -0.295076463264E-14
  0.386669862795E-14
  0.666133814775E-15
  0.777156117238E-15
  0.294209101526E-14
 -0.111022302463E-14
 -0.666133814775E-15
 -0.177635683940E-14
  0.133226762955E-14
 -0.244249065418E-14
  0.277555756156E-14
 -0.199840144433E-14
 -0.252575738102E-14
  0.263677968348E-14
  0.283106871279E-14
 -0.210942374679E-14
 -0.122124532709E-14
  0.277555756156E-14
  0.355271367880E-14
  0.366373598126E-14
  0.444089209850E-15
  0.344169137634E-14
  0.999200722163E-15
 -0.294209101526E-14
  0.327515792264E-14
 -0.127675647832E-14
  0.610622663544E-15
 -0.666133814775E-15
 -0.222044604925E-14
  0.227595720048E-14
 -0.260902410787E-14
 -0.424660306919E-14
  0.344169137634E-14
 -0.155431223448E-14
  0.183186799063E-14
  0.188737914186E-14
 -0.283106871279E-14
  0.410782519111E-14
  0.210942374679E-14
 -0.405231403988E-14
  0.280331313718E-14
  0.272004641033E-14
 -0.305311331772E-14
  0.888178419700E-15
  0.777156117238E-15
  0.266453525910E-14
 -0.505151476204E-14
  0.355271367880E-14
 -0.338618022511E-14
  0.255351295664E-14
 -0.360822483003E-14
 -0.138777878078E-14
  0.216493489802E-14
 -0.444089209850E-15
 -0.166533453694E-15
 -0.788258347484E-14
  0.843769498715E-14
  0.277555756156E-14
 -0.277555756156E-14
 -0.233146835171E-14
  0.222044604925E-14
 -0.234534613952E-14
  0.245983788894E-14
 -0.692224055854E-13
 -0.199840144433E-14
 -0.177635683940E-14
  0.610622663544E-14
 -0.643929354283E-14
  0.394129173742E-14
 -0.544009282066E-14
 -0.349720252757E-14
  0.555111512313E-16
 -0.142108547152E-13
  0.153765888911E-13
 -0.349720252757E-14
  0.144328993201E-14
  0.344169137634E-14
 -0.333066907388E-14
 -0.130062627335E-12
  0.305311331772E-14
 -0.560662627436E-14
  0.000000000000E+00
  0.233146835171E-14
 -0.999200722163E-14
  0.321964677141E-14
  0.288657986403E-14
 -0.660582699652E-14
 -0.371924713249E-14
  0.172084568817E-14
  0.777156117238E-14
 -0.305311331772E-14
 -0.331956684363E-13
  0.303090885723E-13
 -0.174860126378E-14
  0.272004641033E-14
 -0.131117339208E-12
  0.666133814775E-15
 -0.388578058619E-14
  0.599520433298E-14
 -0.682787160144E-14
 -0.610622663544E-15
  0.194289029309E-14
  0.494049245958E-14
 -0.103805852802E-13
 -0.230371277610E-14
  0.555111512313E-15
  0.222044604925E-14
 -0.605071548421E-14
  0.166533453694E-14
  0.255351295664E-14
  0.177635683940E-14
 -0.105471187339E-14
  0.116573417586E-14
 -0.104360964315E-13
  0.477395900589E-14
  0.444089209850E-15
  0.210942374679E-14
 -0.628941343450E-13
  0.366373598126E-14
 -0.788258347484E-14
  0.277555756156E-14
  0.355271367880E-14
  0.360822483003E-14
 -0.760502771868E-14
 -0.166533453694E-14
 -0.277555756156E-15
  0.238697950294E-14
 -0.599520433298E-14
  0.999200722163E-15
  0.199840144433E-14
 -0.116920362281E-14
  0.249106291150E-14
 -0.133226762955E-14
  0.255351295664E-14
 -0.260902410787E-14
  0.555111512313E-15
  0.371924713249E-14
 -0.112132525487E-13
 -0.444089209850E-15
  0.832667268469E-15
 -0.166533453694E-13
  0.167088565206E-13
  0.333066907388E-15
  0.277555756156E-14
 -0.321964677141E-13
 -0.832667268469E-15
 -0.610622663544E-15
  0.582867087928E-14
 -0.999200722163E-14
 -0.116573417586E-14
  0.432986979604E-14
  0.238697950294E-14
 -0.266453525910E-14
  0.494049245958E-14
 -0.399680288865E-14
  0.366373598126E-14
 -0.188737914186E-14
 -0.208166817117E-14
  0.333066907388E-14
 -0.222044604925E-15
  0.366373598126E-14
 -0.174860126378E-14
  0.158206781009E-14
 -0.157651669497E-13
  0.165423230669E-13
 -0.575095526756E-13
  0.249800180541E-14
 -0.449640324973E-14
 -0.188737914186E-14
  0.521804821574E-14
  0.166533453694E-14
 -0.888178419700E-15
  0.832667268469E-14
 -0.288657986403E-14
 -0.444089209850E-15
 -0.222044604925E-14
  0.266453525910E-14
  0.199840144433E-14
 -0.249800180541E-14
 -0.166533453694E-14
  0.288657986403E-14
 -0.777156117238E-15
  0.266453525910E-14
 -0.749400541622E-14
  0.455191440096E-14
 -0.377475828373E-14
  0.453803661316E-14
 -0.150435219837E-13
  0.122679644221E-13
 -0.180411241502E-14
  0.488498130835E-14
 -0.355271367880E-14
  0.266453525910E-14
  0.104916075827E-13
 -0.499600361081E-14
 -0.249800180541E-14
  0.277555756156E-14
 -0.269229083472E-13
  0.247024622979E-13
 -0.698885394002E-13
  0.138777878078E-14
 -0.338618022511E-14
 -0.344169137634E-14
  0.399680288865E-14
  0.988098491916E-14
 -0.960342916301E-14
 -0.222044604925E-14
  0.327515792264E-14
  0.938138455808E-14
 -0.109356967926E-13
 -0.337230243730E-14
  0.605071548421E-14
 -0.657807142090E-14
  0.627276008913E-14
  0.627276008913E-14
 -0.588418203051E-14
 -0.416333634234E-14
  0.355271367880E-14
  0.938138455808E-14
 -0.116573417586E-13
  0.732747196253E-14
 -0.638378239159E-14
 -0.943689570931E-14
  0.153210777398E-13
 -0.144328993201E-14
  0.460742555219E-14
 -0.797695243193E-13
  0.593969318174E-14
 -0.555111512313E-14
 -0.666133814775E-15
 -0.999200722163E-15
  0.000000000000E+00
 -0.233146835171E-14
 -0.122124532709E-14
 -0.428129753871E-14
  0.761890550649E-14
 -0.555111512313E-15
 -0.210942374679E-14
 -0.566213742559E-14
  0.327515792264E-14
 -0.827116153346E-14
  0.101030295241E-13
  0.760502771868E-14
 -0.849320613838E-14
 -0.344169137634E-14
  0.396904731303E-14
 -0.111022302463E-15
 -0.444089209850E-15
  0.804911692853E-14
 -0.960342916301E-14
 -0.188737914186E-14
  0.133226762955E-14
  0.549560397189E-14
 -0.965894031424E-14
 -0.555111512313E-14
  0.299760216649E-14
 -0.405231403988E-14
 -0.210942374679E-14
 -0.335287353437E-13
  0.282551759767E-13
 -0.260902410787E-14
  0.116573417586E-14
 -0.610622663544E-14
  0.791033905045E-14
 -0.982547376793E-14
  0.877076189454E-14
 -0.971445146547E-13
 -0.452415882535E-14
  0.480171458150E-14
 -0.344169137634E-14
 -0.188737914186E-14
 -0.244249065418E-14
 -0.166533453694E-15
  0.111022302463E-15
  0.555111512313E-15
  0.888178419700E-15
  0.249800180541E-14
 -0.777156117238E-14
  0.555111512313E-15
  0.777156117238E-15
 -0.915933995316E-14
  0.610622663544E-14
  0.777156117238E-15
 -0.111022302463E-15
 -0.593969318174E-14
  0.771605002114E-14
 -0.573152636463E-14
  0.531519273039E-14
  0.677236045021E-14
 -0.721644966006E-14
  0.111022302463E-15
  0.000000000000E+00
 -0.463518112781E-14
  0.555111512313E-16
  0.660582699652E-14
 -0.571764857682E-14
 -0.155431223448E-14
  0.277555756156E-15
  0.666133814775E-15
  0.188737914186E-14
 -0.249800180541E-14
  0.194289029309E-14
 -0.298094882112E-13
  0.297539770600E-13
 -0.949795797567E-13
 -0.610622663544E-15
  0.333066907388E-15
 -0.383026943496E-14
  0.455191440096E-14
 -0.704991620637E-14
  0.502375918643E-14
 -0.503763697424E-14
  0.166533453694E-14
  0.555111512313E-14
 -0.249800180541E-14
 -0.777156117238E-15
  0.160982338571E-14
  0.188737914186E-14
  0.299760216649E-14
  0.177635683940E-14
  0.976996261670E-14
 -0.910382880193E-14
  0.199840144433E-14
  0.188737914186E-14
  0.266453525910E-14
  0.510702591328E-14
 -0.555111512313E-16
 -0.555111512313E-16
  0.123234755733E-13
 -0.132116539930E-13
 -0.888178419700E-15
  0.444089209850E-15
 -0.593969318174E-14
  0.505151476204E-14
 -0.513478148889E-14
  0.272004641033E-14
  0.103250741290E-13
 -0.104916075827E-13
 -0.185962356625E-14
  0.133226762955E-14
  0.582867087928E-14
 -0.107136521876E-13
  0.133226762955E-14
  0.255351295664E-14
 -0.721644966006E-15
 -0.782707232361E-14
 -0.233701946684E-13
  0.288657986403E-14
 -0.427435864481E-14
  0.333066907388E-15
  0.194289029309E-14
 -0.427435864481E-14
  0.432986979604E-14
 -0.174860126378E-14
  0.216493489802E-14
 -0.513478148889E-14
  0.333066907388E-14
  0.432986979604E-14
 -0.555111512313E-14
  0.122124532709E-14
 -0.555111512313E-15
  0.444089209850E-15
 -0.444089209850E-15
  0.333066907388E-15
 -0.333066907388E-15
  0.138777878078E-14
  0.333066907388E-15
  0.388578058619E-14
  0.105471187339E-14
 -0.394129173742E-14
 -0.888178419700E-15
  0.377475828373E-14
 -0.777156117238E-15
 -0.149880108324E-14
 -0.222044604925E-15
  0.299760216649E-14
 -0.133226762955E-14
  0.172084568817E-14
 -0.194289029309E-14
  0.288657986403E-14
 -0.194289029309E-14
  0.238697950294E-14
 -0.327515792264E-14
  0.460742555219E-14
 -0.377475828373E-14
  0.516253706451E-14
 -0.827116153346E-14
  0.117683640610E-13
 -0.241473507856E-13
  0.258126853225E-13
 -0.194289029309E-14
  0.288657986403E-14
 -0.631716901012E-13
  0.327515792264E-14
 -0.666133814775E-15
  0.222044604925E-15
 -0.222044604925E-15
  0.999200722163E-15
  0.111022302463E-15
  0.199840144433E-14
  0.555111512313E-15
  0.210942374679E-14
 -0.247024622979E-14
  0.302535774210E-14
 -0.238697950294E-14
  0.288657986403E-14
 -0.305311331772E-14
  0.333066907388E-14
 -0.166533453694E-14
  0.355271367880E-14
 -0.333066907388E-15
  0.299760216649E-14
  0.321964677141E-14
 -0.649480469406E-14
  0.333066907388E-15
  0.210942374679E-14
  0.571764857682E-14
 -0.124344978758E-13
 -0.230371277610E-14
  0.288657986403E-14
  0.210942374679E-14
 -0.245636844198E-14
  0.338618022511E-14
  0.222044604925E-15
 -0.333066907388E-15
  0.888178419700E-15
  0.316413562018E-14
  0.109356967926E-13
 -0.121014309684E-13
 -0.160982338571E-14
 -0.388578058619E-15
  0.155431223448E-14
  0.188737914186E-14
 -0.338618022511E-14
  0.283106871279E-14
 -0.444089209850E-15
  0.222044604925E-15
  0.118793863635E-13
 -0.100475183729E-13
  0.516253706451E-14
 -0.921485110439E-14
  0.155431223448E-14
  0.333066907388E-15
  0.599520433298E-14
 -0.610622663544E-14
  0.444089209850E-15
  0.210942374679E-14
  0.185962356625E-13
 -0.206779038336E-14
  0.341393580072E-14
 -0.260902410787E-14
 -0.166533453694E-14
 -0.222044604925E-15
  0.166533453694E-15
  0.432986979604E-14
 -0.358046925442E-14
  0.247024622979E-14
  0.333066907388E-15
  0.111022302463E-15
  0.244249065418E-14
  0.777156117238E-15
 -0.327515792264E-14
  0.333066907388E-15
  0.166533453694E-15
  0.388578058619E-15
  0.177635683940E-14
  0.333066907388E-14
 -0.194289029309E-15
  0.255351295664E-14
 -0.222044604925E-14
 -0.777156117238E-15
  0.210942374679E-14
 -0.999200722163E-15
 -0.242861286637E-14
  0.366373598126E-14
  0.888178419700E-15
 -0.394129173742E-14
  0.499600361081E-15
  0.943689570931E-15
  0.116573417586E-14
  0.999200722163E-15
 -0.888178419700E-15
  0.233146835171E-14
  0.199840144433E-14
  0.177635683940E-14
  0.255351295664E-14
 -0.233146835171E-14
 -0.288657986403E-14
 -0.255351295664E-14
  0.999200722163E-15
  0.499600361081E-15
 -0.310862446895E-14
  0.555111512313E-15
 -0.111022302463E-15
 -0.208166817117E-16
  0.278943534937E-14
  0.283106871279E-14
  0.122124532709E-14
 -0.294209101526E-14
  0.172084568817E-14
  0.288657986403E-14
  0.205391259556E-14
 -0.699440505514E-14
  0.766053886991E-14
 -0.111022302463E-15
  0.152655665886E-14
  0.971445146547E-15
  0.255351295664E-14
  0.155431223448E-14
 -0.178190795452E-13
  0.173194791842E-13
  0.122124532709E-14
  0.166533453694E-14
 -0.333066907388E-14
  0.283106871279E-14
  0.160982338571E-14
  0.155431223448E-14
 -0.331956684363E-13
 -0.138777878078E-14
 -0.172084568817E-14
  0.399680288865E-14
  0.344169137634E-14
  0.832667268469E-15
 -0.555111512313E-15
  0.166533453694E-15
 -0.555111512313E-16
  0.116573417586E-14
  0.216493489802E-14
  0.310862446895E-14
  0.210942374679E-14
  0.255351295664E-14
 -0.138777878078E-15
  0.334454686168E-14
  0.255351295664E-14
  0.105471187339E-14
  0.138777878078E-14
  0.000000000000E+00
  0.666133814775E-15
 -0.222044604925E-15
  0.105471187339E-14
  0.777156117238E-15
  0.277555756156E-14
  0.272004641033E-14
  0.941954847455E-15
  0.709501901675E-15
  0.316413562018E-14
  0.160982338571E-14
  0.999200722163E-15
  0.360822483003E-15
 -0.158206781009E-14
  0.138777878078E-14
  0.205391259556E-14
  0.222044604925E-14
  0.216493489802E-14
  0.199840144433E-14
 -0.832667268469E-16
 -0.310862446895E-14
  0.177635683940E-14
  0.338618022511E-14
 -0.222044604925E-14
  0.555111512313E-15
  0.999200722163E-15
  0.222044604925E-14
  0.499600361081E-15
  0.277555756156E-15
 -0.832667268469E-15
  0.333066907388E-15
  0.133226762955E-14
  0.999200722163E-15
 -0.111022302463E-15
  0.166533453694E-15
  0.111022302463E-14
  0.666133814775E-15
  0.444089209850E-15
  0.721644966006E-15
  0.832667268469E-15
  0.111022302463E-15
  0.166533453694E-15
  0.294209101526E-14
 -0.272004641033E-14
  0.172084568817E-14
  0.155431223448E-14
  0.499600361081E-15
  0.111022302463E-15
 -0.388578058619E-15
 -0.122124532709E-14
  0.338618022511E-14
  0.138777878078E-14
  0.138777878078E-14
  0.555111512313E-15
 -0.166533453694E-14
 -0.388578058619E-15
 -0.333066907388E-15
 -0.610622663544E-15
  0.000000000000E+00
  0.388578058619E-15
  0.444089209850E-15
 -0.666133814775E-15
 -0.333066907388E-15
  0.277555756156E-15
 -0.638378239159E-15
  0.832667268469E-15
  0.145716771982E-14
 -0.638378239159E-15
  0.600214322688E-15
 -0.129063426613E-14
  0.877076189454E-14
 -0.860422844084E-14
 -0.222044604925E-14
  0.260902410787E-14
  0.111022302463E-15
 -0.499600361081E-15
  0.174305014866E-13
 -0.175415237891E-13
  0.388578058619E-15
  0.277555756156E-16
 -0.388578058619E-14
  0.333066907388E-15
  0.777156117238E-15
  0.323630011678E-13
 -0.138777878078E-14
 -0.999200722163E-15
 -0.666133814775E-15
 -0.749400541622E-15
 -0.777156117238E-15
 -0.333066907388E-15
 -0.999200722163E-15
 -0.162370117351E-14
 -0.610622663544E-15
 -0.108246744901E-14
 -0.194289029309E-15
 -0.466293670343E-14
  0.166533453694E-14
 -0.377475828373E-14
  0.316413562018E-14
  0.409394740331E-15
 -0.111716191853E-14
 -0.138777878078E-14
 -0.105471187339E-14
 -0.260902410787E-14
 -0.127675647832E-14
 -0.138777878078E-15
 -0.102695629778E-14
 -0.957567358739E-15
 -0.513478148889E-15
 -0.310862446895E-14
 -0.166533453694E-14
 -0.727196081129E-14
  0.444089209850E-15
 -0.652256026967E-15
 -0.624500451352E-15
 -0.555111512313E-15
 -0.160982338571E-14
 -0.113797860024E-14
 -0.721644966006E-14
 -0.888178419700E-15
 -0.680011602583E-15
 -0.749400541622E-15
 -0.885576334486E-15
 -0.420670442924E-15
 -0.797972798949E-15
 -0.159594559790E-15
 -0.444089209850E-14
  0.172084568817E-14
 -0.327515792264E-14
 -0.610622663544E-15
  0.444089209850E-15
 -0.360822483003E-15
 -0.111022302463E-15
 -0.466293670343E-14
 -0.836136715421E-15
  0.943689570931E-15
 -0.643929354283E-14
 -0.194635974005E-14
 -0.120389809233E-14
 -0.394129173742E-14
 -0.555111512313E-15
 -0.277555756156E-15
 -0.166533453694E-15
  0.538458166943E-14
 -0.316413562018E-14
 -0.693889390391E-15
 -0.152655665886E-15
 -0.549560397189E-14
  0.344169137634E-14
 -0.716093850883E-14
 -0.133920652345E-14
 -0.929811783124E-15
 -0.105471187339E-14
 -0.105471187339E-14
 -0.115185638805E-14
 -0.596744875736E-15
 -0.294209101526E-14
  0.222044604925E-15
 -0.126287869051E-14
 -0.152655665886E-14
 -0.666133814775E-15
  0.371924713249E-14
 -0.732747196253E-14
 -0.277555756156E-15
  0.105471187339E-14
 -0.288657986403E-14
  0.888178419700E-15
 -0.999200722163E-15
  0.127675647832E-14
 -0.185962356625E-14
 -0.943689570931E-15
  0.527355936697E-14