# vtk DataFile Version 3.0
TriPan results file. Generated by TriPan, USU AeroLab (c) 2021.
ASCII
DATASET POLYDATA
POINTS                2042 float
  0.730907575687E-16  0.925185831796E-16  0.000000000000E+00
  0.856175273657E-02 -0.667678713799E-01 -0.758139982726E-17
  0.856175273657E-02 -0.641837194562E-01 -0.167538467795E-01
  0.856175273657E-02 -0.641837194562E-01  0.167538467795E-01
  0.856175273657E-02 -0.570148527622E-01 -0.324245318770E-01
  0.856175273657E-02 -0.570148527622E-01  0.324245318770E-01
  0.856175273657E-02 -0.461366623640E-01 -0.461366623640E-01
  0.856175273657E-02 -0.461366623640E-01  0.461366623640E-01
  0.856175273657E-02 -0.324245318770E-01 -0.570148527622E-01
  0.856175273657E-02 -0.324245318770E-01  0.570148527622E-01
  0.856175273657E-02 -0.167538467795E-01 -0.641837194562E-01
  0.856175273657E-02 -0.167538467795E-01  0.641837194562E-01
  0.856175273657E-02 -0.852907501247E-17  0.667678713799E-01
  0.856175273657E-02 -0.758139982726E-17 -0.667678713799E-01
  0.856175273657E-02  0.167538467795E-01 -0.641837194562E-01
  0.856175273657E-02  0.167538467795E-01  0.641837194562E-01
  0.856175273657E-02  0.324245318770E-01 -0.570148527622E-01
  0.856175273657E-02  0.324245318770E-01  0.570148527622E-01
  0.856175273657E-02  0.461366623640E-01 -0.461366623640E-01
  0.856175273657E-02  0.461366623640E-01  0.461366623640E-01
  0.856175273657E-02  0.570148527622E-01 -0.324245318770E-01
  0.856175273657E-02  0.570148527622E-01  0.324245318770E-01
  0.856175273657E-02  0.641837194562E-01 -0.167538467795E-01
  0.856175273657E-02  0.641837194562E-01  0.167538467795E-01
  0.856175273657E-02  0.667678713799E-01  0.000000000000E+00
  0.306006185710E-01 -0.110610790551E+00 -0.942152348407E-17
  0.306006185710E-01 -0.106411486864E+00 -0.281638130546E-01
  0.306006185710E-01 -0.106411486864E+00  0.281638130546E-01
  0.306006185710E-01 -0.947149917483E-01 -0.542390123010E-01
  0.306006185710E-01 -0.947149917483E-01  0.542390123010E-01
  0.306006185710E-01 -0.768734514713E-01 -0.768734514713E-01
  0.306006185710E-01 -0.768734514713E-01  0.768734514713E-01
  0.306006185710E-01 -0.542390123010E-01 -0.947149917483E-01
  0.306006185710E-01 -0.542390123010E-01  0.947149917483E-01
  0.306006185710E-01 -0.281638130546E-01 -0.106411486864E+00
  0.306006185710E-01 -0.281638130546E-01  0.106411486864E+00
  0.306006185710E-01 -0.105992136094E-16  0.110610790551E+00
  0.306006185710E-01 -0.942152348407E-17 -0.110610790551E+00
  0.306006185710E-01  0.281638130546E-01 -0.106411486864E+00
  0.306006185710E-01  0.281638130546E-01  0.106411486864E+00
  0.306006185710E-01  0.542390123010E-01 -0.947149917483E-01
  0.306006185710E-01  0.542390123010E-01  0.947149917483E-01
  0.306006185710E-01  0.768734514713E-01 -0.768734514713E-01
  0.306006185710E-01  0.768734514713E-01  0.768734514713E-01
  0.306006185710E-01  0.947149917483E-01 -0.542390123010E-01
  0.306006185710E-01  0.947149917483E-01  0.542390123010E-01
  0.306006185710E-01  0.106411486864E+00 -0.281638130546E-01
  0.306006185710E-01  0.106411486864E+00  0.281638130546E-01
  0.306006185710E-01  0.110610790551E+00  0.000000000000E+00
  0.606470070779E-01 -0.137414768338E+00 -0.747094722725E-17
  0.606470070779E-01 -0.132308110595E+00 -0.355399064720E-01
  0.606470070779E-01 -0.132308110595E+00  0.355399064720E-01
  0.606470070779E-01 -0.118019782007E+00 -0.680881738663E-01
  0.606470070779E-01 -0.118019782007E+00  0.680881738663E-01
  0.606470070779E-01 -0.960973054171E-01 -0.960973054171E-01
  0.606470070779E-01 -0.960973054171E-01  0.960973054171E-01
  0.606470070779E-01 -0.680881738663E-01 -0.118019782007E+00
  0.606470070779E-01 -0.680881738663E-01  0.118019782007E+00
  0.606470070779E-01 -0.355399064720E-01 -0.132308110595E+00
  0.606470070779E-01 -0.355399064720E-01  0.132308110595E+00
  0.606470070779E-01 -0.840481511367E-17  0.137414768338E+00
  0.606470070779E-01 -0.747094722725E-17 -0.137414768338E+00
  0.606470070779E-01  0.355399064720E-01 -0.132308110595E+00
  0.606470070779E-01  0.355399064720E-01  0.132308110595E+00
  0.606470070779E-01  0.680881738663E-01 -0.118019782007E+00
  0.606470070779E-01  0.680881738663E-01  0.118019782007E+00
  0.606470070779E-01  0.960973054171E-01 -0.960973054171E-01
  0.606470070779E-01  0.960973054171E-01  0.960973054171E-01
  0.606470070779E-01  0.118019782007E+00 -0.680881738663E-01
  0.606470070779E-01  0.118019782007E+00  0.680881738663E-01
  0.606470070779E-01  0.132308110595E+00 -0.355399064720E-01
  0.606470070779E-01  0.132308110595E+00  0.355399064720E-01
  0.606470070779E-01  0.137414768338E+00  0.000000000000E+00
  0.932313278317E-01 -0.153065845370E+00 -0.368024690003E-17
  0.932313278317E-01 -0.147498413920E+00 -0.401921309531E-01
  0.932313278317E-01 -0.147498413920E+00  0.401921309531E-01
  0.932313278317E-01 -0.131848618388E+00 -0.766167566180E-01
  0.932313278317E-01 -0.131848618388E+00  0.766167566180E-01
  0.932313278317E-01 -0.107695154846E+00 -0.107695154846E+00
  0.932313278317E-01 -0.107695154846E+00  0.107695154846E+00
  0.932313278317E-01 -0.766167566180E-01 -0.131848618388E+00
  0.932313278317E-01 -0.766167566180E-01  0.131848618388E+00
  0.932313278317E-01 -0.401921309531E-01 -0.147498413920E+00
  0.932313278317E-01 -0.401921309531E-01  0.147498413920E+00
  0.932313278317E-01 -0.414027802102E-17  0.153065845370E+00
  0.932313278317E-01 -0.368024690003E-17 -0.153065845370E+00
  0.932313278317E-01  0.401921309531E-01 -0.147498413920E+00
  0.932313278317E-01  0.401921309531E-01  0.147498413920E+00
  0.932313278317E-01  0.766167566180E-01 -0.131848618388E+00
  0.932313278317E-01  0.766167566180E-01  0.131848618388E+00
  0.932313278317E-01  0.107695154846E+00 -0.107695154846E+00
  0.932313278317E-01  0.107695154846E+00  0.107695154846E+00
  0.932313278317E-01  0.131848618388E+00 -0.766167566180E-01
  0.932313278317E-01  0.131848618388E+00  0.766167566180E-01
  0.932313278317E-01  0.147498413920E+00 -0.401921309531E-01
  0.932313278317E-01  0.147498413920E+00  0.401921309531E-01
  0.932313278317E-01  0.153065845370E+00  0.000000000000E+00
  0.122883997858E+00 -0.163450002670E+00  0.000000000000E+00
  0.122883997858E+00 -0.157607212663E+00 -0.434304997325E-01
  0.122883997858E+00 -0.157607212663E+00  0.434304997325E-01
  0.122883997858E+00 -0.141120851040E+00 -0.824694857001E-01
  0.122883997858E+00 -0.141120851040E+00  0.824694857001E-01
  0.122883997858E+00 -0.115553937852E+00 -0.115553937852E+00
  0.122883997858E+00 -0.115553937852E+00  0.115553937852E+00
  0.122883997858E+00 -0.824694857001E-01 -0.141120851040E+00
  0.122883997858E+00 -0.824694857001E-01  0.141120851040E+00
  0.122883997858E+00 -0.434304997325E-01 -0.157607212663E+00
  0.122883997858E+00 -0.434304997325E-01  0.157607212663E+00
  0.122883997858E+00 -0.205432533524E-32  0.163450002670E+00
  0.122883997858E+00  0.000000000000E+00 -0.163450002670E+00
  0.122883997858E+00  0.434304997325E-01 -0.157607212663E+00
  0.122883997858E+00  0.434304997325E-01  0.157607212663E+00
  0.122883997858E+00  0.824694857001E-01 -0.141120851040E+00
  0.122883997858E+00  0.824694857001E-01  0.141120851040E+00
  0.122883997858E+00  0.115553937852E+00 -0.115553937852E+00
  0.122883997858E+00  0.115553937852E+00  0.115553937852E+00
  0.122883997858E+00  0.141120851040E+00 -0.824694857001E-01
  0.122883997858E+00  0.141120851040E+00  0.824694857001E-01
  0.122883997858E+00  0.157607212663E+00 -0.434304997325E-01
  0.122883997858E+00  0.157607212663E+00  0.434304997325E-01
  0.122883997858E+00  0.163450002670E+00  0.000000000000E+00
  0.150729909539E+00 -0.176334694028E+00  0.227849257192E-17
  0.150729909539E+00 -0.170090660453E+00 -0.471507757902E-01
  0.150729909539E+00 -0.170090660453E+00  0.471507757902E-01
  0.150729909539E+00 -0.152435213327E+00 -0.893502533436E-01
  0.150729909539E+00 -0.152435213327E+00  0.893502533436E-01
  0.150729909539E+00 -0.124983407557E+00 -0.124983407557E+00
  0.150729909539E+00 -0.124983407557E+00  0.124983407557E+00
  0.150729909539E+00 -0.893502533436E-01 -0.152435213327E+00
  0.150729909539E+00 -0.893502533436E-01  0.152435213327E+00
  0.150729909539E+00 -0.471507757902E-01 -0.170090660453E+00
  0.150729909539E+00 -0.471507757902E-01  0.170090660453E+00
  0.150729909539E+00  0.227849257192E-17 -0.176334694028E+00
  0.150729909539E+00  0.256330409172E-17  0.176334694028E+00
  0.150729909539E+00  0.471507757902E-01 -0.170090660453E+00
  0.150729909539E+00  0.471507757902E-01  0.170090660453E+00
  0.150729909539E+00  0.893502533436E-01 -0.152435213327E+00
  0.150729909539E+00  0.893502533436E-01  0.152435213327E+00
  0.150729909539E+00  0.124983407557E+00 -0.124983407557E+00
  0.150729909539E+00  0.124983407557E+00  0.124983407557E+00
  0.150729909539E+00  0.152435213327E+00 -0.893502533436E-01
  0.150729909539E+00  0.152435213327E+00  0.893502533436E-01
  0.150729909539E+00  0.170090660453E+00 -0.471507757902E-01
  0.150729909539E+00  0.170090660453E+00  0.471507757902E-01
  0.150729909539E+00  0.176334694028E+00  0.000000000000E+00
  0.174177765846E+00 -0.191747456789E+00  0.235744468665E-17
  0.174177765846E+00 -0.184954524040E+00 -0.512564033270E-01
  0.174177765846E+00 -0.184954524040E+00  0.512564033270E-01
  0.174177765846E+00 -0.165748998523E+00 -0.971399992704E-01
  0.174177765846E+00 -0.165748998523E+00  0.971399992704E-01
  0.174177765846E+00 -0.135890841484E+00 -0.135890841484E+00
  0.174177765846E+00 -0.135890841484E+00  0.135890841484E+00
  0.174177765846E+00 -0.971399992704E-01 -0.165748998523E+00
  0.174177765846E+00 -0.971399992704E-01  0.165748998523E+00
  0.174177765846E+00 -0.512564033270E-01 -0.184954524040E+00
  0.174177765846E+00 -0.512564033270E-01  0.184954524040E+00
  0.174177765846E+00  0.235744468665E-17 -0.191747456789E+00
  0.174177765846E+00  0.265212529833E-17  0.191747456789E+00
  0.174177765846E+00  0.512564033270E-01 -0.184954524040E+00
  0.174177765846E+00  0.512564033270E-01  0.184954524040E+00
  0.174177765846E+00  0.971399992704E-01 -0.165748998523E+00
[...]
CELL_DATA                4080
SCALARS sigma float 1
LOOKUP_TABLE default
  0.891934381663E+00
  0.664271337218E+00
  0.434013243849E+00
  0.332590421160E+00
  0.419489699039E+00
  0.545819682698E+00
  0.570080755912E+00
  0.520112371209E+00
  0.472184674820E+00
  0.446074051237E+00
  0.425595946979E+00
  0.407510915068E+00
  0.389880930491E+00
  0.371165323501E+00
  0.349722861434E+00
  0.320118514624E+00
  0.289546485096E+00
  0.268777056730E+00
  0.260659131880E+00
  0.266118195386E+00
  0.276965786954E+00
  0.265979744550E+00
  0.233188079887E+00
  0.187582485816E+00
  0.137121273629E+00
  0.900877065330E-01
  0.562999614746E-01
  0.328507448012E-01
  0.162649240580E-01
  0.453894725357E-02
 -0.000000000000E+00
 -0.000000000000E+00
 -0.000000000000E+00
 -0.000000000000E+00
 -0.000000000000E+00
 -0.000000000000E+00
 -0.000000000000E+00
 -0.000000000000E+00
 -0.000000000000E+00
 -0.000000000000E+00
 -0.000000000000E+00
 -0.000000000000E+00
 -0.000000000000E+00
 -0.000000000000E+00
 -0.000000000000E+00
 -0.000000000000E+00
 -0.000000000000E+00
 -0.000000000000E+00
 -0.000000000000E+00
 -0.000000000000E+00
 -0.000000000000E+00
 -0.000000000000E+00
 -0.000000000000E+00
 -0.000000000000E+00
 -0.000000000000E+00
 -0.000000000000E+00
 -0.000000000000E+00
 -0.000000000000E+00
 -0.000000000000E+00
 -0.000000000000E+00
 -0.000000000000E+00
 -0.000000000000E+00
 -0.000000000000E+00
 -0.000000000000E+00
 -0.000000000000E+00
 -0.000000000000E+00
 -0.531677412508E-01
 -0.559470375733E-01
 -0.593994879378E-01
 -0.633305739973E-01
 -0.677711332662E-01
 -0.728076067710E-01
 -0.785568288977E-01
 -0.851790550041E-01
 -0.928828357832E-01
 -0.101954815007E+00
 -0.112785666147E+00
 -0.125930686231E+00
 -0.142201999095E+00
 -0.162826495172E+00
 -0.189752316316E+00
 -0.226234403982E+00
 -0.278071741416E+00
 -0.356334064722E+00
 -0.483063622859E+00
  0.891448137745E+00
  0.667456146001E+00
  0.442771628487E+00
  0.343052290295E+00
  0.425689427572E+00
  0.546183277938E+00
  0.568090815087E+00
  0.518421861472E+00
  0.471484998476E+00
  0.445909881933E+00
  0.425767932337E+00
  0.407890526448E+00
  0.390376808475E+00
  0.371699188821E+00
  0.350219977051E+00
  0.320483310743E+00
  0.289754368598E+00
  0.268868000348E+00
  0.260693064819E+00
  0.266161319294E+00
  0.277064286262E+00
  0.266115696780E+00
  0.233332028617E+00
  0.187710898687E+00
  0.137217751682E+00
  0.901485034134E-01
  0.563342451964E-01
  0.328683277055E-01
  0.162716433793E-01
  0.454049701756E-02
 -0.000000000000E+00
 -0.000000000000E+00
 -0.000000000000E+00
 -0.000000000000E+00
 -0.000000000000E+00
 -0.000000000000E+00
 -0.000000000000E+00
 -0.000000000000E+00
 -0.000000000000E+00
 -0.000000000000E+00
 -0.000000000000E+00
 -0.000000000000E+00
 -0.000000000000E+00
 -0.000000000000E+00
 -0.000000000000E+00
 -0.000000000000E+00
 -0.000000000000E+00
 -0.000000000000E+00
 -0.000000000000E+00
 -0.000000000000E+00
 -0.000000000000E+00
 -0.000000000000E+00
 -0.000000000000E+00
 -0.000000000000E+00
 -0.000000000000E+00
 -0.000000000000E+00
 -0.000000000000E+00
 -0.000000000000E+00
 -0.000000000000E+00
 -0.000000000000E+00
 -0.000000000000E+00
 -0.000000000000E+00
 -0.000000000000E+00
 -0.000000000000E+00
 -0.000000000000E+00
 -0.000000000000E+00
 -0.419936893038E-01
 -0.447323575983E-01
 -0.481025690640E-01
 -0.519315500540E-01
 -0.562513936890E-01
 -0.611441229415E-01
 -0.667283900268E-01
 -0.731617742455E-01
 -0.806561251403E-01
 -0.895008802012E-01
 -0.100096626951E+00
 -0.113014134935E+00
 -0.129095262645E+00
 -0.149630584276E+00
 -0.176691365816E+00
 -0.213809329028E+00
 -0.267435160729E+00
 -0.350305010567E+00
 -0.488939296983E+00
  0.890703856773E+00
  0.668366328796E+00
  0.446975394444E+00
  0.348570078129E+00
  0.429063925756E+00
  0.546399460012E+00
  0.566955539734E+00
  0.517399899298E+00
  0.470975044201E+00
  0.445691666703E+00
  0.425736069202E+00
  0.407980874761E+00
  0.390539283694E+00
  0.371892907650E+00
  0.350401640366E+00
  0.320600652166E+00
  0.289792693750E+00
  0.268845147206E+00
  0.260639320227E+00
  0.266109938709E+00
  0.277040645251E+00
  0.266115690006E+00
  0.233344503229E+00
  0.187727382299E+00
  0.137231350547E+00
  0.901548637960E-01
  0.563362348595E-01
  0.328680453232E-01
  0.162706361870E-01
  0.454001372904E-02
 -0.000000000000E+00
 -0.000000000000E+00
 -0.000000000000E+00
 -0.000000000000E+00
 -0.000000000000E+00
 -0.000000000000E+00
 -0.000000000000E+00
 -0.000000000000E+00
 -0.000000000000E+00
 -0.000000000000E+00
 -0.000000000000E+00
 -0.000000000000E+00
 -0.000000000000E+00
 -0.000000000000E+00
 -0.000000000000E+00
 -0.000000000000E+00
 -0.000000000000E+00
 -0.000000000000E+00
 -0.000000000000E+00
 -0.000000000000E+00
 -0.000000000000E+00
 -0.000000000000E+00
 -0.000000000000E+00
 -0.000000000000E+00
 -0.000000000000E+00
 -0.000000000000E+00
 -0.000000000000E+00
 -0.000000000000E+00
 -0.000000000000E+00
 -0.000000000000E+00
 -0.000000000000E+00
 -0.000000000000E+00
 -0.000000000000E+00
 -0.000000000000E+00
 -0.000000000000E+00
 -0.000000000000E+00
 -0.362942082754E-01
 -0.388677790687E-01
 -0.420649139494E-01
 -0.456967849775E-01
 -0.497953064728E-01
 -0.544380553005E-01
 -0.597385062935E-01
 -0.658481610685E-01
 -0.729722004541E-01
 -0.813896234272E-01
 -0.914896287293E-01
 -0.103829774091E+00
 -0.119236906918E+00
 -0.138989848276E+00
 -0.165166434404E+00
 -0.201369270719E+00
 -0.254337053580E+00
 -0.337901569907E+00
 -0.482787142810E+00
  0.890319059599E+00
  0.666686874962E+00
  0.444004644180E+00
  0.345371429356E+00
  0.427287934392E+00
  0.546488415431E+00
  0.567749610140E+00
  0.518035300370E+00
  0.471250087260E+00
  0.445787864083E+00
  0.425725778673E+00
  0.407907317590E+00
  0.390434629583E+00
  0.371780541288E+00
  0.350304088520E+00
  0.320543027522E+00
  0.289780149546E+00
  0.268865417372E+00
  0.260674492505E+00
  0.266142482494E+00
  0.277057080657E+00
  0.266118520600E+00
  0.233340452289E+00
  0.187720841638E+00
  0.137225772934E+00
  0.901529461437E-01
  0.563361161869E-01
  0.328686733746E-01
  0.162714291214E-01
  0.454027914100E-02
 -0.000000000000E+00
 -0.000000000000E+00
 -0.000000000000E+00
 -0.000000000000E+00
 -0.000000000000E+00
 -0.000000000000E+00
 -0.000000000000E+00
 -0.000000000000E+00
 -0.000000000000E+00
 -0.000000000000E+00
 -0.000000000000E+00
 -0.000000000000E+00
 -0.000000000000E+00
 -0.000000000000E+00
 -0.000000000000E+00
 -0.000000000000E+00
 -0.000000000000E+00
 -0.000000000000E+00
 -0.000000000000E+00
 -0.000000000000E+00
 -0.000000000000E+00
 -0.000000000000E+00
 -0.000000000000E+00
 -0.000000000000E+00
 -0.000000000000E+00
 -0.000000000000E+00
 -0.000000000000E+00
 -0.000000000000E+00
 -0.000000000000E+00
 -0.000000000000E+00
 -0.000000000000E+00
 -0.000000000000E+00
 -0.000000000000E+00
 -0.000000000000E+00
 -0.000000000000E+00
 -0.000000000000E+00
 -0.341628575140E-01
 -0.365834591348E-01
 -0.395817478769E-01
 -0.429942643459E-01
 -0.468505720978E-01
 -0.512270914471E-01
 -0.562307999274E-01
 -0.620054011600E-01
 -0.687455969679E-01
 -0.767167717014E-01
 -0.862890862901E-01
 -0.979954925673E-01
 -0.112629645500E+00
 -0.131424059972E+00
 -0.156401807877E+00
 -0.191103166537E+00
 -0.242270774033E+00
 -0.324151189307E+00
 -0.470200605887E+00
  0.890551866256E+00
  0.663519158920E+00
  0.435840821587E+00
  0.335658721452E+00
  0.421617415905E+00
  0.546384750018E+00
  0.569885293389E+00
  0.519862316693E+00
  0.472110125376E+00
  0.446130017858E+00
  0.425743291750E+00
  0.407723993130E+00
  0.390137888299E+00
  0.371443860701E+00
  0.349996850415E+00
  0.320351797387E+00
  0.289726451446E+00
  0.268914029754E+00
  0.260773470913E+00
  0.266234664781E+00
  0.277101095928E+00
  0.266122349226E+00
  0.233322322526E+00
  0.187696231532E+00
  0.137206628855E+00
  0.901433563460E-01
  0.563337489362E-01
  0.328696737696E-01
  0.162737695933E-01
  0.454126082658E-02
 -0.000000000000E+00
 -0.000000000000E+00
 -0.000000000000E+00
 -0.000000000000E+00
 -0.000000000000E+00
 -0.000000000000E+00
 -0.000000000000E+00
 -0.000000000000E+00
 -0.000000000000E+00
 -0.000000000000E+00
 -0.000000000000E+00
 -0.000000000000E+00
 -0.000000000000E+00
 -0.000000000000E+00
 -0.000000000000E+00
 -0.000000000000E+00
 -0.000000000000E+00
 -0.000000000000E+00
 -0.000000000000E+00
 -0.000000000000E+00
 -0.000000000000E+00
 -0.000000000000E+00
 -0.000000000000E+00
 -0.000000000000E+00
 -0.000000000000E+00
 -0.000000000000E+00
 -0.000000000000E+00
 -0.000000000000E+00
 -0.000000000000E+00
 -0.000000000000E+00
 -0.000000000000E+00
 -0.000000000000E+00
 -0.000000000000E+00
 -0.000000000000E+00
 -0.000000000000E+00
 -0.000000000000E+00
 -0.333118579235E-01
 -0.356175108001E-01
 -0.384557430128E-01
 -0.416962030616E-01
 -0.453677889236E-01
 -0.495409688346E-01
 -0.543201781032E-01
 -0.598431660453E-01
 -0.662963139374E-01
 -0.739329192504E-01
 -0.831092593708E-01
 -0.943366874100E-01
 -0.108378383795E+00
 -0.126428468759E+00
 -0.150448353894E+00
 -0.183899708871E+00
 -0.233437037569E+00
 -0.313366818083E+00
 -0.458505388802E+00
  0.891331940094E+00
  0.661613047372E+00
  0.429382798772E+00
  0.327723852620E+00
  0.416841972139E+00
  0.545949080395E+00
  0.571227080853E+00
  0.521035553361E+00
  0.472588156431E+00
  0.446215437572E+00
  0.425580371848E+00
  0.407403096558E+00
  0.389727162472E+00
  0.371000156001E+00
  0.349578797150E+00
  0.320033854194E+00
  0.289528649073E+00
  0.268806120707E+00
  0.260711335577E+00
  0.266165497625E+00
  0.276989610048E+00
  0.265984144272E+00
  0.233182190344E+00
  0.187572746495E+00
  0.137113192025E+00
  0.900849530097E-01
  0.562996024361E-01
  0.328518021939E-01
  0.162660464944E-01
  0.453942088284E-02
 -0.000000000000E+00
 -0.000000000000E+00
 -0.000000000000E+00
 -0.000000000000E+00
 -0.000000000000E+00
 -0.000000000000E+00
 -0.000000000000E+00
 -0.000000000000E+00
 -0.000000000000E+00
 -0.000000000000E+00
 -0.000000000000E+00
 -0.000000000000E+00
 -0.000000000000E+00
 -0.000000000000E+00
 -0.000000000000E+00
 -0.000000000000E+00
 -0.000000000000E+00
 -0.000000000000E+00
 -0.000000000000E+00
 -0.000000000000E+00
 -0.000000000000E+00
 -0.000000000000E+00
 -0.000000000000E+00
 -0.000000000000E+00
 -0.000000000000E+00
 -0.000000000000E+00
 -0.000000000000E+00
 -0.000000000000E+00
 -0.000000000000E+00
 -0.000000000000E+00
 -0.000000000000E+00
 -0.000000000000E+00
 -0.000000000000E+00
 -0.000000000000E+00
 -0.000000000000E+00
 -0.000000000000E+00
 -0.321109248790E-01
 -0.343430633861E-01
 -0.371246125206E-01
 -0.402945588979E-01
 -0.438884536520E-01
 -0.479779933156E-01
 -0.526631097984E-01
 -0.580807309726E-01
 -0.644104885781E-01
 -0.719017231296E-01
 -0.809022869669E-01
 -0.919122108408E-01
 -0.105682891931E+00
 -0.123383858489E+00
 -0.146948890093E+00
 -0.179793264081E+00
 -0.228514233758E+00
 -0.307407900582E+00
 -0.451822901662E+00
  0.891934381663E+00
  0.664271337218E+00
  0.434013243849E+00
  0.332590421160E+00
  0.419489699039E+00
  0.545819682698E+00
  0.570080755912E+00
  0.520112371209E+00
  0.472184674820E+00
  0.446074051237E+00
  0.425595946979E+00
  0.407510915068E+00
  0.389880930491E+00
  0.371165323501E+00
  0.349722861434E+00
  0.320118514624E+00
  0.289546485096E+00
  0.268777056730E+00
  0.260659131880E+00
  0.266118195386E+00
  0.276965786954E+00
  0.265979744550E+00
  0.233188079887E+00
  0.187582485816E+00
  0.137121273629E+00
  0.900877065330E-01
  0.562999614746E-01
  0.328507448012E-01
  0.162649240580E-01
  0.453894725357E-02
  0.000000000000E+00
  0.000000000000E+00
  0.000000000000E+00
  0.000000000000E+00
  0.000000000000E+00
  0.000000000000E+00
  0.000000000000E+00
  0.000000000000E+00
  0.000000000000E+00
  0.000000000000E+00
  0.000000000000E+00
  0.000000000000E+00
  0.000000000000E+00
  0.000000000000E+00
  0.000000000000E+00
  0.000000000000E+00
  0.000000000000E+00
  0.000000000000E+00
  0.000000000000E+00
  0.000000000000E+00
  0.000000000000E+00
  0.000000000000E+00
  0.000000000000E+00
  0.000000000000E+00
  0.000000000000E+00
  0.000000000000E+00
  0.000000000000E+00
  0.000000000000E+00
  0.000000000000E+00
  0.000000000000E+00
  0.000000000000E+00
  0.000000000000E+00
  0.000000000000E+00
  0.000000000000E+00
  0.000000000000E+00
  0.000000000000E+00
 -0.305000607592E-01
 -0.327899205359E-01
 -0.356077685647E-01
 -0.388240812417E-01
 -0.424677061702E-01
 -0.466067759629E-01
 -0.513435581714E-01
 -0.568127747309E-01
 -0.631968452246E-01
 -0.707441394033E-01
 -0.798043273504E-01
 -0.908799041012E-01
 -0.104721874371E+00
 -0.122506816018E+00
 -0.146171108816E+00
 -0.179140510512E+00
 -0.228026405551E+00
 -0.307140842947E+00
 -0.451822901662E+00
  0.891448137745E+00
  0.667456146001E+00
  0.442771628487E+00
  0.343052290295E+00
  0.425689427572E+00
  0.546183277938E+00
  0.568090815087E+00
  0.518421861472E+00
  0.471484998476E+00
  0.445909881933E+00
  0.425767932337E+00
  0.407890526448E+00
  0.390376808475E+00
  0.371699188821E+00
  0.350219977051E+00
  0.320483310743E+00
  0.289754368598E+00
  0.268868000348E+00
  0.260693064819E+00
  0.266161319294E+00
  0.277064286262E+00
  0.266115696780E+00
  0.233332028617E+00
  0.187710898687E+00
  0.137217751682E+00
  0.901485034134E-01
  0.563342451964E-01
  0.328683277055E-01
  0.162716433793E-01
  0.454049701756E-02
  0.000000000000E+00
  0.000000000000E+00
  0.000000000000E+00
  0.000000000000E+00
  0.000000000000E+00
  0.000000000000E+00
  0.000000000000E+00
  0.000000000000E+00
  0.000000000000E+00
  0.000000000000E+00
  0.000000000000E+00
  0.000000000000E+00
  0.000000000000E+00
  0.000000000000E+00
  0.000000000000E+00
  0.000000000000E+00
  0.000000000000E+00
  0.000000000000E+00
  0.000000000000E+00
  0.000000000000E+00
  0.000000000000E+00
  0.000000000000E+00
  0.000000000000E+00
  0.000000000000E+00
  0.000000000000E+00
  0.000000000000E+00
  0.000000000000E+00
  0.000000000000E+00
  0.000000000000E+00
  0.000000000000E+00
  0.000000000000E+00
  0.000000000000E+00
  0.000000000000E+00
  0.000000000000E+00
  0.000000000000E+00
  0.000000000000E+00
 -0.288674189756E-01
 -0.312640239029E-01
 -0.342288216514E-01
 -0.376016813105E-01
 -0.414087839842E-01
 -0.457229346063E-01
 -0.506466046260E-01
 -0.563178048108E-01
 -0.629239351580E-01
 -0.707209455848E-01
 -0.800668829084E-01
 -0.914781171039E-01
 -0.105725770409E+00
 -0.124011154115E+00
 -0.148313344669E+00
 -0.182115958602E+00
 -0.232110777939E+00
 -0.312651627140E+00
 -0.458505388802E+00
  0.890703856773E+00
  0.668366328796E+00
  0.446975394444E+00
  0.348570078129E+00
  0.429063925756E+00
  0.546399460012E+00
  0.566955539734E+00
  0.517399899298E+00
  0.470975044201E+00
  0.445691666703E+00
  0.425736069202E+00
  0.407980874761E+00
  0.390539283694E+00
  0.371892907650E+00
  0.350401640366E+00
  0.320600652166E+00
  0.289792693750E+00
  0.268845147206E+00
  0.260639320227E+00
  0.266109938709E+00
  0.277040645251E+00
  0.266115690006E+00
  0.233344503229E+00
  0.187727382299E+00
  0.137231350547E+00
  0.901548637960E-01
  0.563362348595E-01
  0.328680453232E-01
  0.162706361870E-01
  0.454001372904E-02
  0.000000000000E+00
  0.000000000000E+00
  0.000000000000E+00
  0.000000000000E+00
  0.000000000000E+00
  0.000000000000E+00
  0.000000000000E+00
  0.000000000000E+00
  0.000000000000E+00
  0.000000000000E+00
  0.000000000000E+00
  0.000000000000E+00
  0.000000000000E+00
  0.000000000000E+00
  0.000000000000E+00
  0.000000000000E+00
  0.000000000000E+00
  0.000000000000E+00
  0.000000000000E+00
  0.000000000000E+00
  0.000000000000E+00
  0.000000000000E+00
  0.000000000000E+00
  0.000000000000E+00
  0.000000000000E+00
  0.000000000000E+00
  0.000000000000E+00
  0.000000000000E+00
  0.000000000000E+00
  0.000000000000E+00
  0.000000000000E+00
  0.000000000000E+00
  0.000000000000E+00
  0.000000000000E+00
  0.000000000000E+00
  0.000000000000E+00
 -0.282206990235E-01
 -0.307741067393E-01
 -0.339433199016E-01
 -0.375358742893E-01
 -0.415803921471E-01
 -0.461487921853E-01
 -0.513489251575E-01
 -0.573250456339E-01
 -0.642736396612E-01
 -0.724628123896E-01
 -0.822675165137E-01
 -0.942269799171E-01
 -0.109143709345E+00
 -0.128265274682E+00
 -0.153633030465E+00
 -0.188820579436E+00
 -0.240615051669E+00
 -0.323304390937E+00
 -0.470200605887E+00
  0.890319059599E+00
  0.666686874962E+00
  0.444004644180E+00
  0.345371429356E+00
  0.427287934392E+00
  0.546488415431E+00
  0.567749610140E+00
  0.518035300370E+00
  0.471250087260E+00
  0.445787864083E+00
  0.425725778673E+00
  0.407907317590E+00
  0.390434629583E+00
  0.371780541288E+00
  0.350304088520E+00
  0.320543027522E+00
  0.289780149546E+00
  0.268865417372E+00
  0.260674492505E+00
  0.266142482494E+00
  0.277057080657E+00
  0.266118520600E+00
  0.233340452289E+00
  0.187720841638E+00
  0.137225772934E+00
  0.901529461437E-01
  0.563361161869E-01
  0.328686733746E-01
  0.162714291214E-01
  0.454027914100E-02
  0.000000000000E+00
  0.000000000000E+00
  0.000000000000E+00
  0.000000000000E+00
  0.000000000000E+00
  0.000000000000E+00
  0.000000000000E+00
  0.000000000000E+00
  0.000000000000E+00
  0.000000000000E+00
  0.000000000000E+00
  0.000000000000E+00
  0.000000000000E+00
  0.000000000000E+00
  0.000000000000E+00
  0.000000000000E+00
  0.000000000000E+00
  0.000000000000E+00
  0.000000000000E+00
  0.000000000000E+00
  0.000000000000E+00
  0.000000000000E+00
  0.000000000000E+00
  0.000000000000E+00
  0.000000000000E+00
  0.000000000000E+00
  0.000000000000E+00
  0.000000000000E+00
  0.000000000000E+00
  0.000000000000E+00
  0.000000000000E+00
  0.000000000000E+00
  0.000000000000E+00
  0.000000000000E+00
  0.000000000000E+00
  0.000000000000E+00
 -0.306240341943E-01
 -0.333695870846E-01
 -0.367378920035E-01
 -0.405524975425E-01
 -0.448393087182E-01
 -0.496748904661E-01
 -0.551728148829E-01
 -0.614853466014E-01
 -0.688191585146E-01
 -0.774572571708E-01
 -0.877937084418E-01
 -0.100392606955E+00
 -0.116090733169E+00
 -0.136181018826E+00
 -0.162760866952E+00
 -0.199458577844E+00
 -0.253045038954E+00
 -0.337343987100E+00
 -0.482787142810E+00
  0.890551866256E+00
  0.663519158920E+00
  0.435840821587E+00
  0.335658721452E+00
  0.421617415905E+00
  0.546384750018E+00
  0.569885293389E+00
  0.519862316693E+00
  0.472110125376E+00
  0.446130017858E+00
  0.425743291750E+00
  0.407723993130E+00
  0.390137888299E+00
  0.371443860701E+00
  0.349996850415E+00
  0.320351797387E+00
  0.289726451446E+00
  0.268914029754E+00
  0.260773470913E+00
  0.266234664781E+00
  0.277101095928E+00
  0.266122349226E+00
  0.233322322526E+00
  0.187696231532E+00
  0.137206628855E+00
  0.901433563460E-01
  0.563337489362E-01
  0.328696737696E-01
  0.162737695933E-01
  0.454126082658E-02
  0.000000000000E+00
  0.000000000000E+00
  0.000000000000E+00
  0.000000000000E+00
  0.000000000000E+00
  0.000000000000E+00
  0.000000000000E+00
  0.000000000000E+00
  0.000000000000E+00
  0.000000000000E+00
  0.000000000000E+00
  0.000000000000E+00
  0.000000000000E+00
  0.000000000000E+00
  0.000000000000E+00
  0.000000000000E+00
  0.000000000000E+00
  0.000000000000E+00
  0.000000000000E+00
  0.000000000000E+00
  0.000000000000E+00
  0.000000000000E+00
  0.000000000000E+00
  0.000000000000E+00
  0.000000000000E+00
  0.000000000000E+00
  0.000000000000E+00
  0.000000000000E+00
  0.000000000000E+00
  0.000000000000E+00
  0.000000000000E+00
  0.000000000000E+00
  0.000000000000E+00
  0.000000000000E+00
  0.000000000000E+00
  0.000000000000E+00
 -0.383809603531E-01
 -0.412117205256E-01
 -0.447110074702E-01
 -0.486801601618E-01
 -0.531440624553E-01
 -0.581861262573E-01
 -0.639225260192E-01
 -0.705144503289E-01
 -0.781743773964E-01
 -0.871956832344E-01
 -0.979816850246E-01
 -0.111108931709E+00
 -0.127427219551E+00
 -0.148233742409E+00
 -0.175612679914E+00
 -0.213103762583E+00
 -0.267149651594E+00
 -0.350405395920E+00
 -0.488939296983E+00
  0.891331940094E+00
  0.661613047372E+00
  0.429382798772E+00
  0.327723852620E+00
  0.416841972139E+00
  0.545949080395E+00
  0.571227080853E+00
  0.521035553361E+00
  0.472588156431E+00
  0.446215437572E+00
  0.425580371848E+00
  0.407403096558E+00
  0.389727162472E+00