# vtk DataFile Version 3.0
TriPan results file. Generated by TriPan, USU AeroLab (c) 2021.
ASCII
DATASET POLYDATA
POINTS                1187 float
      0.000007434493      0.000000000000      0.000000000000
      0.054955317282      0.000000000000     -0.132451561689
      0.054955317282      0.000000000000      0.132451561689
      0.227193546912      0.000000000000     -0.303487510220
      0.227193546912      0.000000000000      0.303487510220
      0.499542388506      0.000000000000     -0.448201985494
      0.499542388506      0.000000000000      0.448201985494
      0.579903457038      0.579892184862     -0.000000000000
      0.634852492587      0.579892790540     -0.132452594726
      0.634852492587      0.579892790540      0.132452594726
      0.807091379704      0.579893505035     -0.303488116953
      0.807091379704      0.579893505035      0.303488116953
      0.901212614079      0.000000000000     -0.591211007161
      0.901212614079      0.000000000000      0.591211007161
      1.079440325994      0.579894393186     -0.448202100712
      1.079440325994      0.579894393186      0.448202100712
      1.321318258826      1.321304212034     -0.000000000000
      1.376267090114      1.321305021976     -0.132451782277
      1.376267090114      1.321305021976      0.132451782277
      1.461724710956      0.000000000000     -0.735952128540
      1.461724710956      0.000000000000      0.735952128540
      1.481110557225      0.579894975515     -0.591210898333
      1.481110557225      0.579894975515      0.591210898333
      1.548505793006      1.321305980294     -0.303486822333
      1.548505793006      1.321305980294      0.303486822333
      1.820854489745      1.321307117995     -0.448200529152
      1.820854489745      1.321307117995      0.448200529152
      2.041622645637      0.579895429833     -0.735951928953
      2.041622645637      0.579895429833      0.735951928953
      2.219021684661      0.000000000000     -0.875936761433
      2.219021684661      0.000000000000      0.875936761433
      2.222524666971      1.321307873539     -0.591209210036
      2.222524666971      1.321307873539      0.591209210036
      2.261974463396      2.261957039904     -0.000000000000
      2.316922934474      2.261958090847     -0.132450788321
      2.316922934474      2.261958090847      0.132450788321
      2.489161459227      2.261959346513     -0.303485237170
      2.489161459227      2.261959346513      0.303485237170
      2.761509851044      2.261960789136     -0.448198603466
      2.761509851044      2.261960789136      0.448198603466
      2.783036385706      1.321308459114     -0.735950185967
      2.783036385706      1.321308459114      0.735950185967
      2.798919720140      0.579895871200     -0.875936518337
      2.798919720140      0.579895871200      0.875936518337
      3.163179578501      2.261961756039     -0.591207138404
      3.163179578501      2.261961756039      0.591207138404
      3.207496075499      0.000000000000     -1.001896625380
      3.207496075499      0.000000000000      1.001896625380
      3.443840255232      3.443818817648     -0.000000000000
      3.498788450710      3.443820144189     -0.132449599265
      3.498788450710      3.443820144189      0.132449599265
      3.540333350635      1.321309010055     -0.875934750319
      3.540333350635      1.321309010055      0.875934750319
      3.671026620562      3.443821754758     -0.303483339743
      3.671026620562      3.443821754758      0.303483339743
      3.723691375354      2.261962501906     -0.735948043747
      3.723691375354      2.261962501906      0.735948043747
      3.787394096948      0.579896340272     -1.001896350021
      3.787394096948      0.579896340272      1.001896350021
      3.943374647971      3.443823561788     -0.448196297100
      3.943374647971      3.443823561788      0.448196297100
      4.345044123127      3.443824780992     -0.591204654501
      4.345044123127      3.443824780992      0.591204654501
      4.447046034762      0.000000000000     -1.100270871018
      4.447046034762      0.000000000000      1.100270871018
      4.480988206149      2.261963186981     -0.875932573897
      4.480988206149      2.261963186981      0.875932573897
      4.528807873597      1.321309571393     -1.001894574667
      4.528807873597      1.321309571393      1.001894574667
      4.905555728573      3.443825718267     -0.735945471663
      4.905555728573      3.443825718267      0.735945471663
      4.910719554293      4.910693485867      0.000000000000
      4.965667686036      4.910695114563     -0.132448216661
      4.965667686036      4.910695114563      0.132448216661
      5.026944070149      0.579896957591     -1.100270536674
      5.026944070149      0.579896957591      1.100270536674
      5.137905443872      4.910697137147     -0.303481132582
      5.137905443872      4.910697137147      0.303481132582
      5.410253047895      4.910699367574     -0.448193613114
      5.410253047895      4.910699367574      0.448193613114
      5.469462377414      2.261963861606     -1.001892386378
      5.469462377414      2.261963861606      1.001892386378
      5.662852398918      3.443826563792     -0.875929956880
      5.662852398918      3.443826563792      0.875929956880
      5.768357281239      1.321310277431     -1.100268762444
      5.768357281239      1.321310277431      1.100268762444
      5.811922468574      4.910700879665     -0.591201761536
      5.811922468574      4.910700879665      0.591201761536
      5.930397345413      0.000000000000     -1.141004609347
      5.930397345413      0.000000000000      1.141004609347
      6.372433851815      4.910702039144     -0.735942472732
      6.372433851815      4.910702039144      0.735942472732
      6.510295386293      0.579897825737     -1.141004170601
      6.510295386293      0.579897825737      1.141004170601
      6.651326434334      3.443827374266     -1.001889751517
      6.651326434334      3.443827374266      1.001889751517
      6.703960287409      6.703929078731     -0.000000000000
      6.709012152635      2.261964676895     -1.100266573611
      6.709012152635      2.261964676895      1.100266573611
      6.758908106423      6.703931020158     -0.132446666410
      6.758908106423      6.703931020158      0.132446666410
      6.931145402778      6.703933504233     -0.303478657104
      6.931145402778      6.703933504233      0.303478657104
      7.129729858844      4.910703071146     -0.875926901714
      7.129729858844      4.910703071146      0.875926901714
      7.203492532320      6.703936209130     -0.448190601958
      7.203492532320      6.703936209130      0.448190601958
      7.251708979118      1.321311240692     -1.141002403314
      7.251708979118      1.321311240692      1.141002403314
      7.605161148152      6.703938049229     -0.591198514023
      7.605161148152      6.703938049229      0.591198514023
      7.609122763691      0.000000000000     -1.093998744305
      7.609122763691      0.000000000000      1.093998744305
      7.890876078156      3.443828320954     -1.100263935303
      7.890876078156      3.443828320954      1.100263935303
      8.118203736065      4.910704039814     -1.001886671642
      8.118203736065      4.910704039814      1.001886671642
      8.165672759399      6.703939457542     -0.735939103512
      8.165672759399      6.703939457542      0.735939103512
      8.189020249261      0.579898682219     -1.093998172836
      8.189020249261      0.579898682219      1.093998172836
      8.192362779492      2.261965757498     -1.141000221932
      8.192362779492      2.261965757498      1.141000221932
      8.855996329986      8.855959694174      0.000000000000
      8.910943850546      8.855961934054     -0.132445007859
      8.910943850546      8.855961934054      0.132445007859
      8.922968080633      6.703940698507     -0.875923465886
      8.922968080633      6.703940698507      0.875923465886
      8.930434239198      1.321312176893     -1.093996417135
      8.930434239198      1.321312176893      1.093996417135
      9.083180176675      8.855964911516     -0.303476008204
      9.083180176675      8.855964911516      0.303476008204
      9.355527275623      8.855968123847     -0.448187379183
      9.355527275623      8.855968123847      0.448187379183
      9.357753226473      4.910705139917     -1.100260848079
      9.357753226473      4.910705139917      1.100260848079
      9.374226563574      3.443829542996     -1.140997590742
      9.374226563574      3.443829542996      1.140997590742
      9.395235896783      0.000000000000     -0.980747035457
      9.395235896783      0.000000000000      0.980747035457
      9.757195540840      8.855970314560     -0.591195036870
      9.757195540840      8.855970314560      0.591195036870
      9.871087941158      2.261966792121     -1.093994249492
      9.871087941158      2.261966792121      1.093994249492
      9.911442734001      6.703941844699     -1.001883204326
      9.911442734001      6.703941844699      1.001883204326
      9.975133588890      0.579899081610     -0.980744519637
      9.975133588890      0.579899081610      0.980744519637
     10.317706409244      8.855971988837     -0.735935493923
     10.317706409244      8.855971988837      0.735935493923
     10.716546616392      1.321312585038     -0.980743332211
     10.716546616392      1.321312585038      0.980743332211
     10.841104500015      4.910706527465     -1.140994509419
     10.841104500015      4.910706527465      1.140994509419
     11.052951606455      3.443830696385     -1.093991633836
     11.052951606455      3.443830696385      1.093991633836
     11.075002460736      8.855973453244     -0.875919782166
     11.075002460736      8.855973453244      0.875919782166
     11.150991098239      6.703943117331     -1.100257369085
     11.150991098239      6.703943117331      1.100257369085
     11.178267136232      0.000000000000     -0.826612480667
[...]
POINT_DATA                1187
SCALARS phi float 1
LOOKUP_TABLE default
     -0.000007414528
     -0.045107219941
     -0.064508247111
     -0.204356535369
     -0.248810291567
     -0.465375350678
     -0.531026361411
     -0.578346113096
     -0.623446992516
     -0.642848171001
     -0.782696994886
     -0.827150839957
     -0.855493158792
     -0.942091615365
     -1.043715950609
     -1.109366978218
     -1.317769828548
     -1.362870563758
     -1.382271623238
     -1.403899408887
     -1.511699023020
     -1.433833780774
     -1.520432221406
     -1.522120417711
     -1.566574073150
     -1.783139144835
     -1.848789942249
     -1.982240029074
     -2.090039613972
     -2.148910422183
     -2.277214480593
     -2.173256929690
     -2.259855123027
     -2.255899879457
     -2.301000328219
     -2.320401242109
     -2.460250047811
     -2.504703471062
     -2.721268495771
     -2.786919011117
     -2.721662813311
     -2.829462142903
     -2.727251146083
     -2.855555168886
     -3.111385842754
     -3.197983732646
     -3.125505169185
     -3.272259374287
     -3.434591743791
     -3.479692004778
     -3.499092744499
     -3.466673822874
     -3.594977586704
     -3.638941422302
     -3.683394567624
     -3.659791809453
     -3.767590825261
     -3.703845881456
     -3.850600046225
     -3.899959536783
     -3.965609714300
     -4.290076645145
     -4.376674171203
     -4.354521536406
     -4.515685246297
     -4.404802687746
     -4.533106132781
     -4.443268704546
     -4.590022609267
     -4.838482427408
     -4.946281066466
     -4.897531705086
     -4.942632003768
     -4.962032540970
     -4.932862266899
     -5.094025927816
     -5.101881070771
     -5.146333892797
     -5.362898797925
     -5.428548582302
     -5.381397219536
     -5.528150803724
     -5.583493148975
     -5.711796210678
     -5.672284525866
     -5.833447926901
     -5.753015867262
     -5.839612969569
     -5.830906007771
     -5.998036248777
     -6.301421435678
     -6.409219635463
     -6.409246751388
     -6.576376928128
     -6.560087546585
     -6.706840744829
     -6.685956649371
     -6.610413407487
     -6.771576487909
     -6.731056749702
     -6.750457059829
     -6.890305424225
     -6.934757883651
     -7.046431499827
     -7.174734114021
     -7.151322717404
     -7.216972060718
     -7.148669390556
     -7.315799308430
     -7.541439001366
     -7.628035627989
     -7.508565795515
     -7.668810786900
     -7.789103603743
     -7.950266297716
     -8.023025741478
     -8.169778488593
     -8.089844806089
     -8.197642512363
     -8.086905995033
     -8.247150902712
     -8.086797203485
     -8.253926801838
     -8.832213350142
     -8.877313274290
     -8.896713341478
     -8.834854191164
     -8.963156302090
     -8.826329029398
     -8.986573679908
     -9.036561053724
     -9.081013125148
     -9.297578358421
     -9.363227229674
     -9.252041646172
     -9.413203887939
     -9.265487258161
     -9.432616471107
     -9.298176632086
     -9.441832921516
     -9.687694311339
     -9.774290428641
     -9.764456743172
     -9.924701076174
     -9.811449209183
     -9.958201448417
     -9.876517179986
    -10.020173100909
    -10.236099384913
    -10.343896562468
    -10.615939212883
    -10.759594959875
    -10.728426086166
    -10.895554847770
    -10.943146678244
    -11.103390628114
    -10.981109503715
    -11.109411075063
    -11.040463991586
    -11.201625723763
    -11.087708037440
    -11.208787253054
    -11.351456194386
    -11.396555989621
    -11.415955812422
    -11.555803347288
    -11.600255028353
    -11.554067815420
    -11.697723333449
    -11.666047603774
    -11.787126809063
    -11.816820185271
    -11.882468581530
    -11.957703383843
    -12.104455078093
    -12.206935805522
    -12.293531410195
    -12.405470573309
    -12.526549659235
    -12.406084415237
    -12.566327916218
    -12.516848245289
    -12.683976497887
    -12.732757675119
    -12.876412894864
    -12.755340622350
    -12.863137267532
    -12.766283266761
    -12.862817447614
    -13.186718933982
    -13.347880118890
    -13.344623807450
    -13.441157994940
    -13.343598202268
    -13.464677105140
    -13.500350522699
    -13.628651550444
    -14.084045815937
    -14.180579873566
    -14.232732407340
    -14.195695323492
    -14.339350166234
    -14.194507367557
    -14.354750362050
    -14.249388612445
    -14.323044323039
    -14.277832145840
    -14.297231742559
    -14.437079113368
    -14.481530433285
    -14.476944214965
    -14.623695359815
    -14.522288028650
    -14.643366663914
    -14.698095519882
    -14.763743476652
    -14.663102987893
    -14.830230693480
    -14.827729161668
    -14.901384878731
    -15.022174380631
    -15.118708239329
    -15.088210832494
    -15.174805962768
    -15.492101293325
    -15.546243204136
    -15.567152113480
    -15.640807680826
    -15.636615411981
    -15.744411564353
    -15.705959580691
    -15.867120213540
    -15.985225631706
    -16.106303905819
    -15.984118175546
    -16.127772565595
    -16.070440890367
    -16.124582789498
    -16.200863234320
    -16.297396806257
    -16.340760989439
    -16.501003439389
    -16.381626061450
    -16.509926585797
    -16.487903127784
    -16.526348926521
    -16.505279715833
    -16.578935057210
    -16.809864785122
    -16.864006505145
    -17.066242718479
    -17.104688472792
    -17.182342481873
    -17.349469635360
    -17.257672376910
    -17.284033492869
    -17.358218629085
    -17.504969264936
    -17.431849208711
    -17.476948029659
    -17.496347441495
    -17.636194678373
    -17.680645702929
    -17.663802712148
    -17.760335904944
    -17.683969506898
    -17.757624533039
    -17.747991426790
    -17.802132887433
    -17.805666605390
    -17.844112147167
    -17.773649379019
    -17.894727207803
    -17.836327181652
    -17.853646408906
    -17.836011959285
    -17.862372994280
    -17.897210732013
    -17.962858329327
    -18.130371689397
    -18.274025569523
    -18.262245527917
    -18.272925392035
    -18.287325793033
    -18.373920535250
    -18.414666757700
    -18.431985877425
    -18.570903559430
    -18.576780509627
    -18.575433938389
    -18.601794733607
    -18.587234775114
    -18.748394896258
    -18.743793239985
    -18.782238492195
    -18.792074378798
    -18.794514221284
    -18.840585101216
    -18.851264844963
    -18.835730178532
    -18.943525927711
    -18.860001263437
    -19.020243163571
    -18.949269014740
    -18.926681208435
    -18.980822324394
    -19.149245034071
    -19.155121859891
    -19.154090635972
    -19.171409499623
    -19.146907067498
    -19.220561690696
    -19.370415853577
    -19.372855571619
    -19.452224525051
    -19.548757258681
    -19.513562471402
    -19.539922956820
    -19.527609972674
    -19.580008977943
    -19.590688457553
    -19.580739711927
    -19.709039824313
    -19.888667008079
    -19.894543566058
    -19.922483016250
    -19.960927901191
    -19.919902829668
    -20.040980154930
    -20.092217265000
    -20.109535807882
    -20.109837827321
    -20.112277275842
    -20.063616538603
    -20.230743180131
    -20.267030627788
    -20.389618760610
    -20.443759451782
    -20.518135606350
    -20.528814759852
    -20.557334039834
    -20.704084259006
    -20.692252245755
    -20.718612350130
    -20.649611854122
    -20.793265200014
    -20.826795538467
    -20.832671767834
    -20.869080252687
    -20.914181103688
    -20.933580393770
    -20.935328864724
    -21.008983011574
    -21.047966357808
    -21.050405476553
    -21.073427542485
    -21.117878372565
    -21.205157554031
    -21.270907038678
    -21.288225193232
    -21.334443363801
    -21.400090724421
    -21.385420564922
    -21.423865009604
    -21.598477940415
    -21.695010161102
    -21.696825379806
    -21.707504141386
    -21.724558259284
    -21.811152745953
    -21.741275161514
    -21.901516551664
    -21.786348144041
    -21.947507846152
    -22.005485311973
    -22.011361147691
    -22.155189793615
    -22.181549448545
    -22.178042452827
    -22.232182652713
    -22.226656131444
    -22.229094855713
    -22.272962517204
    -22.380758000835
    -22.383845421253
    -22.439142928859
    -22.560219731600
    -22.733846488863
    -22.751164189072
    -23.017971941881
    -23.146271782896
    -23.081584166692
    -23.155237789030
    -23.159762927849
    -23.170441232613
    -23.173844254749
    -23.212288197804
    -23.262731656916
    -23.429857879082
    -23.468422860254
    -23.474298237937
    -23.530885650665
    -23.674538483295
    -23.689593679961
    -23.692031945599
    -23.846780771647
    -23.943613483623
    -23.969972630752
    -23.994564274201
    -24.141314218837
    -24.117718003954
    -24.214249696117
    -24.324295846123
    -24.378435511550
    -24.434231312544
    -24.479330469978
    -24.498729717515
    -24.522268277248
    -24.539585466300
    -24.638578737536
    -24.683029499641
    -24.899592575446
    -24.965239853338
    -24.948186618803
    -24.958864410681
    -24.940390149885
    -25.100631122210
    -25.256844649410
    -25.262719513336
    -25.223580188627
    -25.384739614591
    -25.289709315337
    -25.376303712672
    -25.320097646464
    -25.358541048143
    -25.320416663809
    -25.441492974630
    -25.478015469441
    -25.480453220887
    -25.635202024571
    -25.600824215070
    -25.674477301323
    -25.838113528571
    -25.945908919360
    -26.089866876105
    -26.116225477656
    -26.583121013226
    -26.711420759341
    -26.668521670623
    -26.685838311769
    -26.699961698659
    -26.867087644412
    -26.730000555666
    -26.873652949340
    -26.843535888612
    -26.897675011386
    -26.998991705647
    -27.095522902232
    -27.094440012741
    -27.105117255490
    -27.403099945996
    -27.408974260167
    -27.624268864129
    -27.626706065503
    -27.559715215080
    -27.706465063690
    -27.781452846260
    -27.839337687908
    -27.877780542299
    -27.999381434499
    -28.044480852230
    -28.063880142322
    -28.203727290918
    -28.248178120986
    -28.377620105984
    -28.537860802883
    -28.464743112322
    -28.530390472914
    -28.482097903064
    -28.555750488909
    -28.519531518087
    -28.640607422608
    -28.609106918644
    -28.635464970036
    -28.788729195176
    -28.949888524537
    -28.854858007823
    -28.941452494436
    -29.187761714226
    -29.205077803594
    -29.403262265785
    -29.511057749326
    -29.613680057092
    -29.624356747202
    -29.724809571638
    -29.778948189734
    -29.922338088594
    -29.928211849677
    -30.143508909408
    -30.145945557462
    -30.148271690489
    -30.276571531372
    -30.167230456586
    -30.310882538864
    -30.198106532640
    -30.294637320808
    -30.300690351173
    -30.265112572170
    -30.432238421226
    -30.720611370253
    -30.759053716901
    -31.124865925080
    -31.271615869549
    -31.436609794761
    -31.481711390806
    -31.501110802613
    -31.490380602177
    -31.516738143892
    -31.640958039421
    -31.685409063965
    -31.681212719000
    -31.754864893485
    -31.901972190901
    -31.967619788153
    -31.956759483458
    -32.077835118977
    -31.942770949533
    -32.103011550094
    -32.069035398834
    -32.086350977419
    -32.292089154260
    -32.378683896359
    -32.353881839462
    -32.515041265246
    -32.494953742352
    -32.505629921082
    -32.803613676545
    -32.809486925935
    -32.840493539845
    -32.948289288840
    -32.923924383694
    -32.978062587778
    -33.024784497703
    -33.027220633904
    -33.181961749741
    -33.585503073287
    -33.713803185408
    -33.635336382180
    -33.731866900241
    -33.732381280506
    -33.876033221056
    -33.830265251594
    -33.997391197190
    -33.919724279713
    -33.958166210420
    -34.562097401179
    -34.708847620017
    -34.635722520069
    -34.680824374767
    -34.700223971448
    -34.689495414866
    -34.715852539407
    -34.840069439957
    -34.884520759856
    -35.101085846659
    -35.166733803330
    -35.118440659040
    -35.192092561837
    -35.268150212453
    -35.285465373150
    -35.491203061541
    -35.577798191633
    -35.521912198175
    -35.642987739348
    -35.507919854404
    -35.668160551208
    -35.694068556524
    -35.704744316982
    -35.791109603017
    -35.952269304770
    -36.002728491111
    -36.008601322025
    -36.039607641158
    -36.147403793246
    -36.223895508165
    -36.226331225782
    -36.381074773575
    -36.361156125799
    -36.415294056767
    -36.784617339655
    -36.912917863597
    -37.200485286126
    -37.297015709438
    -37.267493115838
    -37.434619337688
    -37.297530204055
    -37.441182193046
    -37.356956021490
    -37.395397678040
    -37.516991846441
    -37.562093919773
    -37.581493742509
    -37.721343179454
    -37.765794860481
    -37.761208004987
    -37.907958640329
    -37.982360017750
    -38.048008413873
    -38.126723353023
    -38.153080202734
    -38.372473735874
    -38.459069340299
    -38.705381955593
    -38.722696841070
    -38.683593365018
    -38.757245172572
    -38.920878552944
    -39.028675197731
    -38.945151608686
    -39.105392580820
    -38.990224150872
    -39.151384271473
    -39.131300300018
    -39.141975785048
    -39.087061133988
    -39.208136769132
    -39.439956430552
    -39.445828985922
    -39.661127252306
    -39.663562694316
    -39.665888453268
    -39.794189480457
    -39.818305443843
    -39.926305026367
    -39.980442861682
    -40.036229302648
    -40.081331544982
    -40.100731612095
    -40.240581226197
    -40.285033297565
    -40.501598531322
    -40.567247402390
    -40.466607816405
    -40.633734457458
    -40.642483096735
    -40.789234240896
    -40.734762012699
    -40.878414233585
    -40.765638032647
    -40.862168550129
    -40.891712582252
    -40.978308699225
    -40.922104922008
    -40.960546482614
    -41.440117656011
    -41.547914833049
    -41.691876058257
    -41.718232811846
    -41.871499413296
    -42.032660045420
    -42.182482073479
    -42.144266439133
    -42.304507828999
    -42.227584436252
    -42.246984746291
    -42.185127774892
    -42.313429345524
    -42.270530856691
    -42.287845645947
    -42.248742309586
    -42.322394211816
    -42.386830732429
    -42.431283191794
    -42.524292976746
    -42.645368880460
    -42.647848501662
    -42.713497844733
    -42.696449201168
    -42.707124589919
    -43.005109136278
    -43.010981595340
    -43.037966688125
    -43.124563314327
    -43.226279958049
    -43.228715303740
    -43.161722605988
    -43.308474299370
    -43.383454133201
    -43.347883265304
    -43.515010418164
    -43.491453971823
    -43.545591902355
    -43.586372017471
    -43.694169723102
    -43.970903437085
    -43.933876925942
    -44.077529530144
    -44.016002074920
    -44.035402612018
    -44.175252567843
    -44.219705389788
    -44.202869893332
    -44.299400680264
    -44.331382353756
    -44.459684463810
    -44.436270771194
    -44.501920555270
    -44.390739106994
    -44.551900291005
    -44.487257672011
    -44.525699328272
    -44.826385463055
    -44.912982564845
    -45.025542046625
    -45.185783946387
    -45.257025003553
    -45.283381853095
    -45.307977371699
    -45.454729609900
    -45.374791031653
    -45.482589230668
    -45.433838931777
    -45.478937618258
    -45.498338357850
    -45.638188461471
    -45.682641606698
    -45.685974177391
    -45.759626350664
    -45.723407941191
    -45.844484250661
    -45.835679801788
    -45.852994687173
    -45.899207052298
    -45.964857229448
    -45.867123160512
    -46.034250865336
    -46.119801571431
    -46.248104184608
    -46.261598146248
    -46.272273631226
    -46.289325825338
    -46.375923350781
    -46.570258081154
    -46.576130636497
    -46.612525051662
    -46.536990251414
    -46.698151982545
    -46.657627569589
    -46.677028483306
    -46.791428902838
    -46.793864344838
    -46.816878714612
    -46.861332137754
    -46.815148830220
    -46.958801920306
    -46.837731607876
    -46.945530246048
    -46.948603757278
    -46.928685842245
    -46.982824045401
    -47.077893834625
    -47.143544349539
    -47.096396764051
    -47.243149509995
    -47.401981080517
    -47.498512275030
    -47.468012846364
    -47.554610735550
    -47.550652127201
    -47.595754658562
    -47.615155717830
    -47.544778308348
    -47.705020757844
    -47.582738524906
    -47.711041585479
    -47.755002252156
    -47.799455907477
    -47.924489542689
    -47.962931472789
    -48.016021455824
    -48.081672252743
    -48.016418813189
    -48.124217828019
    -48.013374504750
    -48.180502756471
    -48.290072917584
    -48.335175454301
    -48.354576632532
    -48.325413619463
    -48.486575860078
    -48.406140667640
    -48.492738860200
    -48.494427059704
    -48.538880904652
    -48.559333873408
    -48.706087070393
    -48.604679907237
    -48.725756707870
    -48.694256873545
    -48.720613997728
    -48.755442687761
    -48.821093714831
    -48.761429691423
    -48.889733135261
    -48.868411430324
    -48.885089180071
    -48.958741763895
    -48.913514754467
    -48.932916148266
    -48.954546789171
    -49.062346117736
    -49.009761383219
    -49.023480347098
    -49.055311906192
    -49.072763170782
    -49.117217312491
    -49.145562063705
    -49.232160503525
    -49.272911671068
    -49.290226831568
    -49.293299278237
    -49.324733254133
    -49.333783162058
    -49.399434487618
    -49.397667487038
    -49.334389005754
    -49.478042629982
    -49.659478337850
    -49.705900993148
    -49.698830015165
    -49.709505775519
    -49.693968311926
    -49.801767895806
    -49.699557798474
    -49.827861561106
    -49.723902920032
    -49.810501613333
    -49.691033626678
    -49.851276620654
    -49.738025173927
    -49.884778756839
    -49.813615899369
    -49.788350881215
    -49.949513573990
    -49.801798058944
    -49.968926819600
    -50.007489949892
    -50.013362780750
    -50.127800848842
    -50.181939465399
    -50.153518274770
    -50.214752936774
    -50.228660771360
    -50.231096488950
    -50.272309436700
    -50.380109212560
    -50.283256884145
    -50.379788573082
    -50.356834727011
    -50.385837102169
    -50.438979428681
    -50.567283450357
    -50.676153393123
    -50.822907296625
    -50.807103283105
    -50.883329349957
    -50.967038508028
    -51.128201587277
    -51.060194347760
    -51.017320740280
    -51.145624888105
    -51.123600745309
    -51.162043090957
    -51.123920148162
    -51.244997470245
    -51.264735486158
    -51.431864698142
    -51.415575114669
    -51.562329278346
    -51.480644432233
    -51.624298589101
    -51.479457338687
    -51.639700839115
    -51.653835476576
    -51.744560280093
    -51.766361193020
    -51.840014276137
    -51.893371879608
    -51.919729420737
    -51.955070017750
    -51.905166836130
    -52.066330236087
    -51.993916544606
    -52.140670773089
    -52.472026676228
    -52.489342254492
    -52.443423254650
    -52.610552852083
    -52.644588646263
    -52.805752306253
    -52.721963502180
    -52.825734445994
    -52.802497160632
    -52.899029376442
    -52.897945019784
    -52.908621198347
    -52.942394905896
    -53.102638855213
    -53.009072866720
    -53.063211987123
    -53.066510235551
    -53.206604954074
    -53.212478203380
    -53.222930139124
    -53.384093816466
    -53.270175637417
    -53.391253461583
    -53.269068244893
    -53.412722893697
    -53.427771970815
    -53.430208106973
    -53.381551700260
    -53.548681617309
    -53.584954188294
    -54.004876568393
    -54.043319421261
    -54.022465369097
    -54.136425299156
    -54.121082793987
    -54.281327126465
    -54.120973605925
    -54.288103781971
    -54.285601484535
    -54.359255102129
    -54.400845538832
    -54.699315114445
    -54.866445287079
    -54.774643897099
    -54.801001947610
    -54.732005901203
    -54.875660974837
    -54.948752684802
    -55.045285411239
    -55.058599505345
    -55.179677773242
    -55.059211338799
    -55.219455988842
    -55.353298692780