# vtk DataFile Version 3.0
TriPan results file. Generated by TriPan, USU AeroLab (c) 2021.
ASCII
DATASET POLYDATA
POINTS                 144 float
      0.000000000000      0.000000000000      0.000000000000
      0.750993072987      0.000000000000     -0.543790996075
      0.750993072987      0.000000000000      0.543790996075
      1.923753738400      1.923753738400      0.000000000000
      2.674746751790      1.923753738400     -0.543790996075
      2.674746751790      1.923753738400      0.543790996075
      3.592464447020      0.000000000000     -1.038844943050
      3.592464447020      0.000000000000      1.038844943050
      5.470331668850      5.470331668850      0.000000000000
      5.516218185420      1.923753738400     -1.038844943050
      5.516218185420      1.923753738400      1.038844943050
      6.221324920650      5.470331668850     -0.543790996075
      6.221324920650      5.470331668850      0.543790996075
      9.062796592710      5.470331668850     -1.038844943050
      9.062796592710      5.470331668850      1.038844943050
      9.395236968990      0.000000000000     -0.980761349201
      9.395236968990      0.000000000000      0.980761349201
     11.318990707400      1.923753738400     -0.980761349201
     11.318990707400      1.923753738400      0.980761349201
     11.382001876800     11.382001876800      0.000000000000
     12.132995605500     11.382001876800     -0.543790996075
     12.132995605500     11.382001876800      0.543790996075
     14.865568161000      5.470331668850     -0.980761349201
     14.865568161000      5.470331668850      0.980761349201
     14.974466323900     11.382001876800     -1.038844943050
     14.974466323900     11.382001876800      1.038844943050
     15.176529884300      0.000000000000     -0.411069482565
     15.176529884300      0.000000000000      0.411069482565
     17.100284576400      1.923753738400     -0.411069482565
     17.100284576400      1.923753738400      0.411069482565
     18.049325943000      0.000000000000     -0.101516798139
     18.049325943000      0.000000000000      0.101516798139
     19.000301361100      0.000000000000      0.000000000000
     19.756195068400     19.756195068400      0.000000000000
     19.973079681400      1.923753738400     -0.101516798139
     19.973079681400      1.923753738400      0.101516798139
     20.507186889600     19.756195068400     -0.543790996075
     20.507186889600     19.756195068400      0.543790996075
     20.646862030000      5.470331668850     -0.411069482565
     20.646862030000      5.470331668850      0.411069482565
     20.777238845800     11.382001876800     -0.980761349201
     20.777238845800     11.382001876800      0.980761349201
     20.924055099500      1.923753738400      0.000000000000
     23.348659515400     19.756195068400     -1.038844943050
     23.348659515400     19.756195068400      1.038844943050
     23.519659042400      5.470331668850     -0.101516798139
     23.519659042400      5.470331668850      0.101516798139
     24.470632553100      5.470331668850      0.000000000000
     26.558532714800     11.382001876800     -0.411069482565
     26.558532714800     11.382001876800      0.411069482565
     29.151432037400     19.756195068400     -0.980761349201
     29.151432037400     19.756195068400      0.980761349201
     29.243804931600     29.243804931600      0.000000000000
     29.431327819800     11.382001876800     -0.101516798139
     29.431327819800     11.382001876800      0.101516798139
     29.994798660300     29.243804931600     -0.543790996075
     29.994798660300     29.243804931600      0.543790996075
     30.382303237900     11.382001876800      0.000000000000
     32.836269378700     29.243804931600     -1.038844943050
     32.836269378700     29.243804931600      1.038844943050
     34.932723999000     19.756195068400     -0.411069482565
     34.932723999000     19.756195068400      0.411069482565
     37.617996215800     37.617996215800      0.000000000000
     37.805519104000     19.756195068400     -0.101516798139
     37.805519104000     19.756195068400      0.101516798139
     38.368991851800     37.617996215800     -0.543790996075
     38.368991851800     37.617996215800      0.543790996075
     38.639041900600     29.243804931600     -0.980761349201
     38.639041900600     29.243804931600      0.980761349201
     38.756496429400     19.756195068400      0.000000000000
     41.210460662800     37.617996215800     -1.038844943050
     41.210460662800     37.617996215800      1.038844943050
     43.529666900600     43.529666900600      0.000000000000
     44.280662536600     43.529666900600     -0.543790996075
     44.280662536600     43.529666900600      0.543790996075
     44.420333862300     29.243804931600     -0.411069482565
     44.420333862300     29.243804931600      0.411069482565
     47.013233184800     37.617996215800     -0.980761349201
     47.013233184800     37.617996215800      0.980761349201
     47.076248168900     47.076248168900      0.000000000000
     47.122131347700     43.529666900600     -1.038844943050
     47.122131347700     43.529666900600      1.038844943050
     47.293132782000     29.243804931600     -0.101516798139
     47.293132782000     29.243804931600      0.101516798139
     47.827239990200     47.076248168900     -0.543790996075
     47.827239990200     47.076248168900      0.543790996075
     48.244106292700     29.243804931600      0.000000000000
     49.000000000000     49.000000000000      0.000000000000
     49.750991821300     49.000000000000     -0.543790996075
     49.750991821300     49.000000000000      0.543790996075
     50.135513305700     49.384517669700     -0.384518325329
     50.135513305700     49.384517669700      0.384518325329
     50.294784545900     49.543792724600     -0.000000000000
     50.668708801300     47.076248168900     -1.038844943050
     50.668708801300     47.076248168900      1.038844943050
     52.592464447000     49.000000000000     -1.038844943050
     52.592464447000     49.000000000000      1.038844943050
     52.794528961200     37.617996215800     -0.411069482565
     52.794528961200     37.617996215800      0.411069482565
     52.924903869600     43.529666900600     -0.980761349201
     52.924903869600     43.529666900600      0.980761349201
     53.327037811300     49.734573364300     -0.734574317932
     53.327037811300     49.734573364300      0.734574317932
     53.631309509300     50.038845062300     -0.000000000000
     55.667324066200     37.617996215800     -0.101516798139
     55.667324066200     37.617996215800      0.101516798139
     56.471481323200     47.076248168900     -0.980761349201
     56.471481323200     47.076248168900      0.980761349201
     56.618297576900     37.617996215800      0.000000000000
     58.395236969000     49.000000000000     -0.980761349201
     58.395236969000     49.000000000000      0.980761349201
     58.706199646000     43.529666900600     -0.411069482565
     58.706199646000     43.529666900600      0.411069482565
     59.088741302500     49.693504333500     -0.693503022194
     59.088741302500     49.693504333500      0.693503022194
     59.375999450700     49.980762481700      0.000000000000
     61.578994751000     43.529666900600     -0.101516798139
     61.578994751000     43.529666900600      0.101516798139
     62.252777099600     47.076248168900     -0.411069482565
     62.252777099600     47.076248168900      0.411069482565
     62.529968261700     43.529666900600      0.000000000000
     64.176528930700     49.000000000000     -0.411069482565
     64.176528930700     49.000000000000      0.411069482565
     64.467201232900     49.290668487500     -0.290670007467
     64.467201232900     49.290668487500      0.290670007467
     64.587600708000     49.411067962600      0.000000000000
     65.125572204600     47.076248168900     -0.101516798139
     65.125572204600     47.076248168900      0.101516798139
     66.076545715300     47.076248168900      0.000000000000
     67.049324035600     49.000000000000     -0.101516798139
     67.049324035600     49.000000000000      0.101516798139
     67.121109008800     49.071784973100     -0.071783214807
     67.121109008800     49.071784973100      0.071783214807
     67.150840759300     49.101516723600     -0.000000000000
     68.000297546400     49.000000000000      0.000000000000
     20.924055099500      1.923753738400      0.000000000000
     19.000301361100      0.000000000000      0.000000000000
     24.470632553100      5.470331668850      0.000000000000
     30.382303237900     11.382001876800      0.000000000000
     38.756496429400     19.756195068400      0.000000000000
     48.244106292700     29.243804931600      0.000000000000
     56.618297576900     37.617996215800      0.000000000000
     62.529968261700     43.529666900600      0.000000000000
     66.076545715300     47.076248168900      0.000000000000
POLYGONS                 256                1024
3                  32                  34                  42
3                  32                  30                  34
3                  30                  28                  34
3                  30                  26                  28
3                  26                  17                  28
3                  26                  15                  17
3                  15                   6                  17
3                  17                   6                   9
3                   6                   1                   9
3                   9                   1                   4
3                   1                   0                   4
3                   4                   0                   3
3                   0                   5                   3
3                   0                   2                   5
3                   2                  10                   5
3                   2                   7                  10
[...]
CELL_DATA                 256
SCALARS sigma float 1
LOOKUP_TABLE default
      0.000000000000
      0.000000000000
      0.000000000000
      0.000000000000
      0.000000000000
      0.000000000000
      0.000000000000
      0.000000000000
      0.000000000000
      0.000000000000
      0.000000000000
      0.000000000000
      0.000000000000
      0.000000000000
      0.000000000000
      0.000000000000
      0.000000000000
      0.000000000000
      0.000000000000
      0.000000000000
      0.000000000000
      0.000000000000
      0.000000000000
      0.000000000000
      0.000000000000
      0.000000000000
      0.000000000000
      0.000000000000
      0.000000000000
      0.000000000000
      0.000000000000
      0.000000000000
      0.000000000000
      0.000000000000
      0.000000000000
      0.000000000000
      0.000000000000
      0.000000000000
      0.000000000000
      0.000000000000
      0.000000000000
      0.000000000000
      0.000000000000
      0.000000000000
      0.000000000000
      0.000000000000
      0.000000000000
      0.000000000000
      0.000000000000
      0.000000000000
      0.000000000000
      0.000000000000
      0.000000000000
      0.000000000000
      0.000000000000
      0.000000000000
      0.000000000000
      0.000000000000
      0.000000000000
      0.000000000000
      0.000000000000
      0.000000000000
      0.000000000000
      0.000000000000
      0.000000000000
      0.000000000000
      0.000000000000
      0.000000000000
      0.000000000000
      0.000000000000
      0.000000000000
      0.000000000000
      0.000000000000
      0.000000000000
      0.000000000000
      0.000000000000
      0.000000000000
      0.000000000000
      0.000000000000
      0.000000000000
      0.000000000000
      0.000000000000
      0.000000000000
      0.000000000000
      0.000000000000
      0.000000000000
      0.000000000000
      0.000000000000
      0.000000000000
      0.000000000000
      0.000000000000
      0.000000000000
      0.000000000000
      0.000000000000
      0.000000000000
      0.000000000000
      0.000000000000
      0.000000000000
      0.000000000000
      0.000000000000
      0.000000000000
      0.000000000000
      0.000000000000
      0.000000000000
      0.000000000000
      0.000000000000
      0.000000000000
      0.000000000000
      0.000000000000
      0.000000000000
      0.000000000000
      0.000000000000
      0.000000000000
      0.000000000000
      0.000000000000
      0.000000000000
      0.000000000000
      0.000000000000
      0.000000000000
      0.000000000000
      0.000000000000
      0.000000000000
      0.000000000000
      0.000000000000
      0.000000000000
      0.000000000000
      0.000000000000
      0.000000000000
      0.000000000000
      0.000000000000
      0.000000000000
      0.000000000000
      0.000000000000
      0.000000000000
      0.000000000000
      0.000000000000
      0.000000000000
      0.000000000000
      0.000000000000
      0.000000000000
      0.000000000000
      0.000000000000
      0.000000000000
      0.000000000000
      0.000000000000
      0.000000000000
      0.000000000000
      0.000000000000
      0.000000000000
      0.000000000000
      0.000000000000
      0.000000000000
      0.000000000000
      0.000000000000
      0.000000000000
      0.000000000000
      0.000000000000
      0.000000000000
      0.000000000000
      0.000000000000
      0.000000000000
      0.000000000000
      0.000000000000
      0.000000000000
      0.000000000000
      0.000000000000
      0.000000000000
      0.000000000000
      0.000000000000
      0.000000000000
      0.000000000000
      0.000000000000
      0.000000000000
      0.000000000000
      0.000000000000
      0.000000000000
      0.000000000000
      0.000000000000
      0.000000000000
      0.000000000000
      0.000000000000
      0.000000000000
      0.000000000000
      0.000000000000
      0.000000000000
      0.000000000000
      0.000000000000
      0.000000000000
      0.000000000000
      0.000000000000
      0.000000000000
      0.000000000000
      0.000000000000
      0.000000000000
      0.000000000000
      0.000000000000
      0.000000000000
      0.000000000000
      0.000000000000
      0.000000000000
      0.000000000000
      0.000000000000
      0.000000000000
      0.000000000000
      0.000000000000
      0.000000000000
      0.000000000000
      0.000000000000
      0.000000000000
      0.000000000000
      0.000000000000
      0.000000000000
      0.000000000000
      0.000000000000
      0.000000000000
      0.000000000000
      0.000000000000
      0.000000000000
      0.000000000000
      0.000000000000
      0.000000000000
      0.000000000000
      0.000000000000
      0.000000000000
      0.000000000000
      0.000000000000
      0.000000000000
      0.000000000000
      0.000000000000
      0.000000000000
      0.000000000000
      0.000000000000
      0.000000000000
      0.000000000000
      0.000000000000
      0.000000000000
      0.000000000000
      0.000000000000
      0.000000000000
      0.000000000000
      0.000000000000
      0.000000000000
      0.000000000000
      0.000000000000
      0.000000000000
      0.000000000000
      0.000000000000
      0.000000000000
      0.000000000000
      0.000000000000
      0.000000000000
      0.000000000000
      0.000000000000
      0.000000000000
      0.000000000000
      0.000000000000
SCALARS C_p float 1
LOOKUP_TABLE default
      0.176638470680
      0.418888191793
      0.112277918323
      0.075923167814
     -0.029394278086
     -0.062876447526
     -0.061028219002
     -0.079911377937
      0.136073738184
      0.036625396106
      0.540049481032
      0.523799744888
     -0.069811447257
      0.262096777452
     -0.434812922323
     -0.236249307372
     -0.361076535796
     -0.349137965914
     -0.283225361227
     -0.239821108692
     -0.171462710934
     -0.105539715150
     -0.488140493061
      0.044710688193
      0.136521003889
      0.184396607551
      0.072013997062
      0.109793668519
     -0.014519766467
     -0.028642286658
     -0.080234623943
     -0.082889250139
      0.037498675928
      0.025199576272
      0.452881461783
      0.460703363047
     -0.249847575942
     -0.092926566185
     -0.530218612214
     -0.420675880903
     -0.379712450345
     -0.370039780328
     -0.240565320383
     -0.191950364592
     -0.105469840925
     -0.017288680128
      0.048871517705
      0.116045815956
      0.135491873681
      0.138520039182
      0.061634148474
      0.072607535270
     -0.020281434741
     -0.014386796040
     -0.083124305533
     -0.075573615473
      0.024927083639
      0.037698318383
      0.458430584633
      0.467567067836
     -0.345930068982
     -0.252074984723
     -0.578884654773
     -0.529864859421
     -0.373567229290
     -0.389008750134
     -0.192285154583
     -0.156998696316
     -0.016971437386
      0.007775355447
      0.114051228733
      0.122230689582
      0.130945794044
      0.135570473048
      0.056609959889
      0.061721501630
     -0.025314504514
     -0.020281742585
     -0.075608498045
     -0.075753733727
      0.037958190796
      0.047965748329
      0.473224756652
      0.477815647266
     -0.380001253305
     -0.345614957590
     -0.589897031329
     -0.582670237185
     -0.366549679046
     -0.379718159159
     -0.156877123756
     -0.143312431415
      0.007745375885
      0.018065321748
      0.122026023847
      0.130027329950
      0.126820271854
      0.130375476125
      0.050379974700
      0.056388639154
     -0.032010838069
     -0.025291464603
     -0.075492992802
     -0.081613443762
      0.047960111625
      0.045650801979
      0.479676087597
      0.479725415760
     -0.377536663420
     -0.379832996505
     -0.583993455028
     -0.591934041549
     -0.357341402863
     -0.369103027853
     -0.143386662801
     -0.131950909258
      0.018102542810
      0.029883815553
      0.130474376640
      0.139922836136
      0.125786053370
      0.125129172490
      0.044468769354
      0.049605740940
     -0.044171279296
     -0.031968171425
     -0.080947508364
     -0.096966845547
      0.045230988627
      0.030855599911
      0.477515139711
      0.474221254550
     -0.351214458586
     -0.377529357330
     -0.564613763209
     -0.584990194578
     -0.339933131493
     -0.359325070706
     -0.132014230430
     -0.109622891197
      0.029996496023
      0.060669231946
      0.141342422317
      0.172662939419
      0.255638122490
      0.121755021353
      0.064923732535
      0.041439806393
     -0.061157342867
     -0.044457707865
     -0.095441689976
     -0.129478532797
      0.029549475939
     -0.001770690728
      0.466208639908
      0.459721076838
     -0.311128855908
     -0.351472960553
     -0.538295574921
     -0.564671308783
     -0.315238974316
     -0.342081616952
     -0.109050469207
     -0.070803785042
      0.060867247377
      0.137144734057
      0.175895446803
      0.352090489345
    -22.031802022411
     -0.460072276265
      0.182940072368
     -0.037852485631
     -0.349955043945
     -0.064816191675
     -0.128333987725
     -0.167654088446
     -0.006225620944
     -0.065021059500
      0.438261452287
      0.428769066802
     -0.268696552011
     -0.312445191961
     -0.512212266393
     -0.535617614784
     -0.277264421807
     -0.318618220261
     -0.069340504051
     -0.272413211920
      0.090156284894
      0.198044602505
     -0.609261822147
    -21.792920858769
********************
 -31009.417862522434
 -18170.174132048993
      0.525692811057
     -0.950005466714
     -0.334366484105
     -0.185267865499
     -0.217229917091
     -0.081722476484
     -0.102114743014
      0.335235733739
      0.320470987027
     -0.244457703594
     -0.279327098214
     -0.378856230245
     -0.516197167561
     -0.266719926767
     -0.281940042595
     -0.288781218971
     -1.631405720532
      0.275495318197
 -18111.122871929289
 -30914.706792267159
********************
********************
-785356.001160650514
 -31197.116227375078
    -78.882450741011
     -0.091540595839
     -0.324280417271
     -0.284128344152
     -0.179476080286
     -0.195135018838
     -0.000420461271
     -0.301090266618
     -0.296088479414
     -0.397798205730
     -0.319927644910
     -0.282012646887
      0.587517108927
    -91.697155983832
 -31339.178606389389
-783567.328582312795
********************
********************
********************
 -32659.677367359167
   -100.956926908085
      0.037776290809
     -0.419439438662
     -0.364306116900
     -0.256294779225
     -0.268715637400
     -0.160765865964
     -0.264883293406
     -0.300919036915
     -0.318468543663
     -0.379622859350
     -0.336604623177
      0.833557346490
   -121.145025870686
 -32792.065463999541
********************
********************
VECTORS v float
    145.468662031829     23.340801289021     13.037171256168
    118.354987309648     36.822601918429      8.703596909043
    152.701439841163      2.476149386914     16.187246298162
    155.782565058781      4.022759869550     16.352589431015
    164.470174218237     -4.664853596785     16.666658573370
    167.242175041812      0.814596738141     16.399867492000
    167.891669990528      0.165101789422      1.678880539982
    169.290690118678     -5.456016453309      1.749149513018
    148.951510683319     14.883162982050    -23.357991673070
    157.249467606719     -7.025552811811    -28.620733672466
     90.232931293056     59.990981425711    -21.898072890121
     95.322962926380     49.782607268246    -32.975586887499
    138.642111086003      6.463459108623     95.710025975040
    120.776770265498     42.293509025278     56.829407690509
    189.712596597967    -26.642315171591     37.694326728992
    178.603831701202      2.687648217212     30.648910197156
    189.956337319216     -8.664857400802     -1.988124256159
    189.230994328555     -5.750504251050     -1.951692252055
    183.752824647413     -0.272334569879    -18.133943046694
    180.425419781277     -6.849659259045    -18.454189270585
    175.376367416610     -1.800604391312    -19.091368268847
    170.293880566066     -4.351824604938    -18.818622589917
    195.211349788118    -29.269293826990    -23.963349367661
    157.929569687027    -10.731580603591    -18.004608344297
    150.019383736112     15.118797817073     14.400691083242
    145.413727730418     18.465201060981     13.551777421947
    156.009385459580      7.869539057947     15.962522219128
    152.769993613818      8.449046426904     15.551034911787
    163.353282488211     -2.134241024527     16.307231244028
    164.501532398893     -1.404104835849     16.348432409040
    169.290616266983     -6.193188060030      1.756527578952
    169.479770941682     -6.691942987489      1.763413605271
    157.609007822200      5.178821728026    -26.557073221373
    158.607855533587      3.309969948963    -27.056694550698
     99.625800139028     62.292029308446    -27.033229055579
     97.494499432835     65.463358374375    -23.193612006300
    151.222193129138     11.735664678072    101.001597635726
    144.100549819118     22.332507091567     88.171744940277
    195.626860475235    -29.193807028279     39.169266009263
    189.950319445979    -18.572953644655     36.329863955032
    190.493447235520    -19.116081507220     -2.098113761739
    189.955432409006    -17.697467112876     -2.078528236890
    180.412867476789     -8.154903463691    -18.581571396303
    176.685690325719    -10.524898788134    -18.447833923821
    170.296362607465     -4.135571928948    -18.795588073533
    163.397750898642     -2.901455578845    -17.919249401577
    158.077735049973      2.418562415709    -16.616644770201
    152.316134131458      6.604860528719    -15.554736144195
    150.281803730733     13.031918011291     14.651450049367
    149.998537802799     13.268663902339     14.595968424044
    156.933071906755      6.334131476454     16.227508420371
    155.997193232127      6.807266068062     16.075671923093
    163.837848827867     -1.033390160125     16.246502265658
    163.363925907491     -1.027494595846     16.199220689140
    169.479725724085     -7.143294905755      1.767931014927
    168.929596798539     -6.053009580333      1.751510777450
    158.635292271149      4.241294116850    -26.899215324380
    157.589103052201      5.828762952667    -26.440376330912
     97.612233933335     65.805636909923    -23.031016788620
     94.859123109258     69.326372146357    -18.488143839344
    155.836703535718      8.348791719897    106.795297231284
    151.822816260013     13.481826297672    100.172117336461
    198.124450325351    -32.819811502863     40.236159718151
    195.631479562024    -29.037019201400     39.142753738541
    189.629067568457    -23.034607691911     -2.128684242875
    190.492883157342    -24.746579951985     -2.154467313478
    176.681742207550    -10.935437888152    -18.487899848396
    174.038249801743    -10.902553048170    -18.224168167385
    163.427700801065     -0.292003191619    -17.641299978002
    161.437230345515      0.714283363105    -17.318401738494
    152.352127605985      9.799383904153    -15.217561987207
    151.610424606829     10.419277058506    -15.072180486005
    150.713036892290     12.570442959506     14.746717348691
    150.280908254531     12.952445670869     14.659838571004
    157.365865657804      5.867489881345     16.324425379262
    156.930962435711      6.150339111528     16.247085307906
    164.239467188044     -1.158163976139     16.298378582274
    163.837811204452     -1.037302479277     16.246884072086
    168.929589177512     -6.129080452337      1.752272147176
    168.940345327656     -6.147291927753      1.752562102299
    157.571222834913      5.221830564854    -26.543003760051
    156.740957973613      6.354028436892    -26.201077244640
     94.580016981162     68.514955270129    -18.873598827299
     93.014353450571     70.382452450466    -16.387693767760
    157.134615752257      6.262190148780    109.246285090123
    155.705374303666      7.966986063942    106.976667335567
    198.447918911948    -34.775548808309     40.633224213497
    198.081552554211    -34.275952318762     40.482380885205
    188.877411224505    -25.071810989165     -2.141552108106
    189.628736035157    -26.343895623118     -2.161805683817
    174.039670441440    -10.754830029401    -18.209751364103
    173.033264268575    -10.451993072019    -18.080743559157
    161.442106875449      1.139161680975    -17.273145237646
    160.601865590556      1.685631765643    -17.123722750920
    151.613296821860     10.674198487002    -15.045274536069
    150.877874913349     11.324312167704    -14.897338222951
    151.051737176572     12.854820488781     14.752575478665
    150.719600105235     13.152945862055     14.685235241240
    157.881907097912      5.990635989540     16.366738947310
    157.371329964504      6.343578099669     16.273714032440
    164.776559719857     -1.061651655762     16.341793637832
    164.242360194559     -0.857337316088     16.269020053062
    168.940404626764     -5.555381748293      1.746637895203
    169.395248127471     -6.288487537790      1.758528825617
    156.741294955194      6.365465634620    -26.199143063642
    156.933983991183      6.111001670929    -26.277065464883
     92.924317297358     70.120681234006    -16.512036419926
     92.906537354819     70.141471101476    -16.484076471648
    156.946482340992      6.101526115303    109.226117161925
    157.041239487655      5.990721305018    109.375240537193
    198.022074702451    -34.990122149045     40.596445523894
    198.425887301524    -35.523391177855     40.759679559027
    188.198672679267    -25.296176555490     -2.137004003693
    188.877279171082    -26.389938139786     -2.154744748633
    173.032369536579    -10.545028505284    -18.089823391951
    172.183833199445    -10.220490325863    -17.974227947677
    160.598187336565      1.365155537139    -17.157858685087
    159.632396928870      2.032766786771    -16.981831894839
    150.871891687759     10.793275550327    -14.953387191931
    149.996614181540     11.578924689488    -14.776143062782
    151.008225891395     14.534868288681     14.568584865112
    151.070050900194     14.480214864047     14.581018983919
    158.336036425927      7.214229338312     16.283848777750
    157.899211559280      7.498327612186     16.206145160130
    165.754412539946     -0.356876946765     16.368692128832
    164.786139438544     -0.065514165139     16.244577662170
    169.395409792457     -4.674784519051      1.742377877032
    170.579997948834     -6.680437081623      1.774310999572
    156.958439254662      6.941121612387    -26.136699115897
    158.151524963576      5.314160280869    -26.628038196068
     93.013443033644     70.452257046605    -16.336436119123
     94.171654096637     69.070762548816    -18.175390325650
    155.851491895743      7.390924749710    107.499319325207
    156.942407561348      6.089678307800    109.231744570214
    196.975752989099    -33.943676237917     40.231861161648
    198.011301805989    -35.355808456227     40.658278926170
    187.081697982986    -24.426204633355     -2.117115407304
    188.198570389853    -26.317206153874     -2.147223106187
    172.183052331544    -10.301688095565    -17.982152275862
    170.499229785397     -9.795011565288    -17.766287941883
    159.621492931633      1.082730243617    -17.083026273242
    157.076448510323      2.737959144025    -16.630456383902
    149.976992163258      9.837415491092    -14.959955199847
    147.038860277928     12.434729631169    -14.369044148753
    137.014431372337     29.535698318962     11.473397234360
    151.045119235177     17.809256102746     14.222981050791
    156.357184809699     12.497190528224     15.501365667824
    158.384905715028     11.472071983520     15.830318695220
    167.104829994692      2.752147703856     16.195398052995