# vtk DataFile Version 3.0
TriPan results file. Generated by TriPan, USU AeroLab (c) 2021.
ASCII
DATASET POLYDATA
POINTS                  50 float
     19.580198288000      0.579897820950      0.000000000000
     99.836472646322      0.579897820950      5.893652379881
     19.000301361100      0.000000000000      0.000000000000
     99.833362175748      0.000000000000      5.936008929549
     20.321611404400      1.321311235430      0.000000000000
     99.840449462847      1.321311235430      5.839498443152
     21.262266159100      2.261965751650      0.000000000000
     99.845494978349      2.261965751650      5.770791595452
     22.444129943800      3.443829536440      0.000000000000
     99.851834298932      3.443829536440      5.684466474944
     23.911006927500      4.910706520080      0.000000000000
     99.859702382865      4.910706520080      5.577323558790
     25.704246521000      6.703944683070      0.000000000000
     99.869321021503      6.703944683070      5.446342623412
     27.856279373200      8.855978012080      0.000000000000
     99.880864167449      8.855978012080      5.289154885104
     30.382303237900     11.382001876800      0.000000000000
     99.894413338923     11.382001876800      5.104650276916
     33.271335601800     14.271034240700      0.000000000000
     99.909909627552     14.271034240700      4.893630978250
     36.479064941400     17.478763580300      0.000000000000
     99.927115353702     17.478763580300      4.659333569881
     39.925552368200     20.925249099700      0.000000000000
     99.945601738483     20.925249099700      4.407596909276
     43.500301361100     24.500000000000      0.000000000000
     99.964776096952     24.500000000000      4.146491829660
     47.075050354000     28.074750900300      0.000000000000
     99.983950455420     28.074750900300      3.885386750043
     50.521537780800     31.521236419700      0.000000000000
    100.002436840201     31.521236419700      3.633650089438
     53.729267120400     34.728965759300      0.000000000000
    100.019642566351     34.728965759300      3.399352681070
     56.618297576900     37.617996215800      0.000000000000
    100.035138844750     37.617996215800      3.188333521722
     59.144321441700     40.144020080600      0.000000000000
    100.048688016224     40.144020080600      3.003828913527
     61.296356201200     42.296054840100      0.000000000000
    100.060231172400     42.296054840100      2.846641035907
     63.089595794700     44.089294433600      0.000000000000
    100.069849811038     44.089294433600      2.715660100529
     64.556472778300     45.556171417200      0.000000000000
    100.077717894971     45.556171417200      2.608517184383
     65.738334655800     46.738033294700      0.000000000000
    100.084057205323     46.738033294700      2.522192203179
     66.678993225100     47.678688049300      0.000000000000
    100.089102741287     47.678688049300      2.453485076856
     67.420402526900     48.420101165800      0.000000000000
    100.093079537351     48.420101165800      2.399331418750
     68.000297546400     49.000000000000      0.000000000000
    100.096189997694     49.000000000000      2.356975008402
POLYGONS                  48                 192
3                   0                   1                   3
3                   0                   3                   2
3                   4                   5                   1
3                   4                   1                   0
3                   6                   7                   5
3                   6                   5                   4
3                   8                   9                   7
3                   8                   7                   6
3                  10                  11                   9
3                  10                   9                   8
3                  12                  13                  11
3                  12                  11                  10
3                  14                  15                  13
3                  14                  13                  12
3                  16                  17                  15
3                  16                  15                  14
3                  18                  19                  17
3                  18                  17                  16
3                  20                  21                  19
3                  20                  19                  18
3                  22                  23                  21
3                  22                  21                  20
3                  24                  25                  23
3                  24                  23                  22
3                  26                  27                  25
3                  26                  25                  24
3                  28                  29                  27
3                  28                  27                  26
3                  30                  31                  29
3                  30                  29                  28
3                  32                  33                  31
3                  32                  31                  30
3                  34                  35                  33
3                  34                  33                  32
3                  36                  37                  35
3                  36                  35                  34
3                  38                  39                  37
3                  38                  37                  36
3                  40                  41                  39
3                  40                  39                  38
3                  42                  43                  41
3                  42                  41                  40
3                  44                  45                  43
3                  44                  43                  42
3                  46                  47                  45
3                  46                  45                  44
3                  48                  49                  47
3                  48                  47                  46
POINT_DATA                  50
SCALARS mu float 1
LOOKUP_TABLE default
     -2.166397976239
     -2.166397976239
     -2.096299434075
     -2.096299434075
     -2.214254605393
     -2.214254605393
     -2.256092407789
     -2.256092407789
     -2.298131533558
     -2.298131533558
     -2.344441445690
     -2.344441445690
     -2.394421229906
     -2.394421229906
     -2.444627260695
     -2.444627260695
     -2.494696940908
     -2.494696940908
     -2.537805146422
     -2.537805146422
     -2.572571985313
     -2.572571985313
     -2.596681976007
     -2.596681976007
     -2.604185521347
     -2.604185521347
     -2.593020287536
     -2.593020287536
     -2.555680948719
     -2.555680948719
     -2.488516380078
     -2.488516380078
     -2.383493495347
     -2.383493495347
     -2.239105642590
     -2.239105642590
     -2.061190713171
     -2.061190713171
     -1.846124852352
     -1.846124852352
     -1.601260358860
     -1.601260358860
     -1.323044615057
     -1.323044615057
     -0.990004077190
     -0.990004077190
     -0.585305553657
     -0.585305553657
      0.000000000000
      0.000000000000
