# vtk DataFile Version 3.0
TriPan results file. Generated by TriPan, USU AeroLab (c) 2021.
ASCII
DATASET POLYDATA
POINTS                  40 float
  0.197579002380E+02  0.757896304131E+00  0.000000000000E+00
  0.989566961990E+04  0.757896304131E+00  0.144073970888E+04
  0.190000000000E+02  0.000000000000E+00  0.000000000000E+00
  0.989565382623E+04  0.000000000000E+00  0.144084797052E+04
  0.207889842987E+02  0.178897356987E+01  0.000000000000E+00
  0.989569110636E+04  0.178897356987E+01  0.144059242452E+04
  0.221728172302E+02  0.317279767990E+01  0.000000000000E+00
  0.989571994366E+04  0.317279767990E+01  0.144039475203E+04
  0.239966468811E+02  0.499661636353E+01  0.000000000000E+00
  0.989575794992E+04  0.499661636353E+01  0.144013422857E+04
  0.263436698914E+02  0.734362459183E+01  0.000000000000E+00
  0.989580685886E+04  0.734362459183E+01  0.143979896999E+04
  0.292729015350E+02  0.102728376389E+02  0.000000000000E+00
  0.989586790028E+04  0.102728376389E+02  0.143938054629E+04
  0.327922058105E+02  0.137921218872E+02  0.000000000000E+00
  0.989594123805E+04  0.137921218872E+02  0.143887783414E+04
  0.368321151733E+02  0.178320064545E+02  0.000000000000E+00
  0.989602542456E+04  0.178320064545E+02  0.143830075658E+04
  0.412340698242E+02  0.222339305878E+02  0.000000000000E+00
  0.989611715563E+04  0.222339305878E+02  0.143767196296E+04
  0.457662315369E+02  0.267660694122E+02  0.000000000000E+00
  0.989621160004E+04  0.267660694122E+02  0.143702457002E+04
  0.501681861877E+02  0.311679935455E+02  0.000000000000E+00
  0.989630333111E+04  0.311679935455E+02  0.143639577641E+04
  0.542080955505E+02  0.352078781128E+02  0.000000000000E+00
  0.989638751762E+04  0.352078781128E+02  0.143581869885E+04
  0.577274017334E+02  0.387271614075E+02  0.000000000000E+00
  0.989646085543E+04  0.387271614075E+02  0.143531598643E+04
  0.606566314697E+02  0.416563758850E+02  0.000000000000E+00
  0.989652189681E+04  0.416563758850E+02  0.143489756300E+04
  0.630036544800E+02  0.440033836365E+02  0.000000000000E+00
  0.989657080575E+04  0.440033836365E+02  0.143456230442E+04
  0.648274841309E+02  0.458272018433E+02  0.000000000000E+00
  0.989660881201E+04  0.458272018433E+02  0.143430178096E+04
  0.662113189697E+02  0.472110252380E+02  0.000000000000E+00
  0.989663764935E+04  0.472110252380E+02  0.143410410820E+04
  0.672424011230E+02  0.482421035767E+02  0.000000000000E+00
  0.989665913577E+04  0.482421035767E+02  0.143395682411E+04
  0.680002975464E+02  0.490000000000E+02  0.000000000000E+00
  0.989667492936E+04  0.490000000000E+02  0.143384856302E+04
POLYGONS                  38                 152
3                   0                   1                   3
3                   0                   3                   2
3                   4                   5                   1
3                   4                   1                   0
3                   6                   7                   5
3                   6                   5                   4
3                   8                   9                   7
3                   8                   7                   6
3                  10                  11                   9
3                  10                   9                   8
3                  12                  13                  11
3                  12                  11                  10
3                  14                  15                  13
3                  14                  13                  12
3                  16                  17                  15
3                  16                  15                  14
3                  18                  19                  17
3                  18                  17                  16
3                  20                  21                  19
3                  20                  19                  18
3                  22                  23                  21
3                  22                  21                  20
3                  24                  25                  23
3                  24                  23                  22
3                  26                  27                  25
3                  26                  25                  24
3                  28                  29                  27
3                  28                  27                  26
3                  30                  31                  29
3                  30                  29                  28
3                  32                  33                  31
3                  32                  31                  30
3                  34                  35                  33
3                  34                  33                  32
3                  36                  37                  35
3                  36                  35                  34
3                  38                  39                  37
3                  38                  37                  36
CELL_DATA                  38
NORMALS normals float
  0.142875193852E+00 -0.142875935447E+00 -0.979373854078E+00
  0.142875193852E+00 -0.142875935447E+00 -0.979373854078E+00
  0.142875189769E+00 -0.142876131339E+00 -0.979373826096E+00
  0.142875189769E+00 -0.142876131339E+00 -0.979373826096E+00
  0.142875190398E+00 -0.142876101185E+00 -0.979373830403E+00
  0.142875190398E+00 -0.142876101185E+00 -0.979373830403E+00
  0.142875191452E+00 -0.142876050611E+00 -0.979373837628E+00
  0.142875191452E+00 -0.142876050611E+00 -0.979373837628E+00
  0.142875190621E+00 -0.142876090482E+00 -0.979373831932E+00
  0.142875190621E+00 -0.142876090482E+00 -0.979373831932E+00
  0.142875190474E+00 -0.142876097537E+00 -0.979373830924E+00
  0.142875190474E+00 -0.142876097538E+00 -0.979373830924E+00
  0.142875192393E+00 -0.142876005453E+00 -0.979373844078E+00
  0.142875192393E+00 -0.142876005453E+00 -0.979373844078E+00
  0.142875191089E+00 -0.142876068011E+00 -0.979373835142E+00
  0.142875191089E+00 -0.142876068011E+00 -0.979373835142E+00
  0.142875188770E+00 -0.142876179293E+00 -0.979373819246E+00
  0.142875188770E+00 -0.142876179293E+00 -0.979373819246E+00
  0.142875194261E+00 -0.142875915812E+00 -0.979373856883E+00
  0.142875194261E+00 -0.142875915812E+00 -0.979373856883E+00
  0.142875188770E+00 -0.142876179290E+00 -0.979373819246E+00
  0.142875188770E+00 -0.142876179290E+00 -0.979373819246E+00
  0.142875191089E+00 -0.142876068011E+00 -0.979373835142E+00
  0.142875191089E+00 -0.142876068011E+00 -0.979373835142E+00
  0.142875190022E+00 -0.142876119233E+00 -0.979373827825E+00
  0.142875190022E+00 -0.142876119232E+00 -0.979373827825E+00
  0.142875193797E+00 -0.142875938059E+00 -0.979373853705E+00
  0.142875193797E+00 -0.142875938059E+00 -0.979373853705E+00
  0.142875190028E+00 -0.142876118915E+00 -0.979373827871E+00
  0.142875190028E+00 -0.142876118915E+00 -0.979373827871E+00
  0.142875190689E+00 -0.142876087203E+00 -0.979373832401E+00
  0.142875190689E+00 -0.142876087203E+00 -0.979373832401E+00
  0.142875184870E+00 -0.142876366436E+00 -0.979373792514E+00
  0.142875184870E+00 -0.142876366436E+00 -0.979373792514E+00
  0.142875198200E+00 -0.142875726784E+00 -0.979373883885E+00
  0.142875198200E+00 -0.142875726784E+00 -0.979373883885E+00
  0.142875208990E+00 -0.142875209008E+00 -0.979373957846E+00
  0.142875208990E+00 -0.142875209009E+00 -0.979373957846E+00
POINT_DATA                  40
SCALARS mu float 1
LOOKUP_TABLE default
 -0.446616501710E+01
 -0.446616501710E+01
 -0.444085775939E+01
 -0.444085775939E+01
 -0.451379646714E+01
 -0.451379646714E+01
 -0.458231940805E+01
 -0.458231940805E+01
 -0.466992587562E+01
 -0.466992587562E+01
 -0.477041057640E+01
 -0.477041057640E+01
 -0.487714156288E+01
 -0.487714156288E+01
 -0.497790941676E+01
 -0.497790941676E+01
 -0.505928483870E+01
 -0.505928483870E+01
 -0.510577537411E+01
 -0.510577537411E+01
 -0.509958213410E+01
 -0.509958213410E+01
 -0.502056288831E+01
 -0.502056288831E+01
 -0.484676505100E+01
 -0.484676505100E+01
 -0.456011266904E+01
 -0.456011266904E+01
 -0.415412114179E+01
 -0.415412114179E+01
 -0.363487225681E+01
 -0.363487225681E+01
 -0.301001458490E+01
 -0.301001458490E+01
 -0.226556174811E+01
 -0.226556174811E+01
 -0.132717441032E+01
 -0.132717441032E+01
  0.000000000000E+00
  0.000000000000E+00
