# vtk DataFile Version 3.0
TriPan results file. Generated by TriPan, USU AeroLab (c) 2021.
ASCII
DATASET POLYDATA
POINTS                 144 float
  0.000000000000E+00  0.000000000000E+00  0.000000000000E+00
  0.113538098335E+01  0.000000000000E+00 -0.658124566078E+00
  0.113538098335E+01  0.000000000000E+00  0.658124566078E+00
  0.192375373840E+01  0.192375373840E+01  0.000000000000E+00
  0.305913543701E+01  0.192375373840E+01 -0.658124983311E+00
  0.305913543701E+01  0.192375373840E+01  0.658124983311E+00
  0.423028087616E+01  0.000000000000E+00 -0.108747220039E+01
  0.423028087616E+01  0.000000000000E+00  0.108747220039E+01
  0.547033166885E+01  0.547033166885E+01  0.000000000000E+00
  0.615403699875E+01  0.192375373840E+01 -0.108747279644E+01
  0.615403699875E+01  0.192375373840E+01  0.108747279644E+01
  0.660571479797E+01  0.547033166885E+01 -0.658125698566E+00
  0.660571479797E+01  0.547033166885E+01  0.658125698566E+00
  0.939508819580E+01  0.000000000000E+00 -0.980745851994E+00
  0.939508819580E+01  0.000000000000E+00  0.980745851994E+00
  0.970061969757E+01  0.547033166885E+01 -0.108747410774E+01
  0.970061969757E+01  0.547033166885E+01  0.108747410774E+01
  0.113188476562E+02  0.192375373840E+01 -0.980746448040E+00
  0.113188476562E+02  0.192375373840E+01  0.980746448040E+00
  0.113820018768E+02  0.113820018768E+02  0.000000000000E+00
  0.125173873901E+02  0.113820018768E+02 -0.658127009869E+00
  0.125173873901E+02  0.113820018768E+02  0.658127009869E+00
  0.145402030945E+02  0.000000000000E+00 -0.479613035917E+00
  0.145402030945E+02  0.000000000000E+00  0.479613035917E+00
  0.148654365540E+02  0.547033166885E+01 -0.980747580528E+00
  0.148654365540E+02  0.547033166885E+01  0.980747580528E+00
  0.156122989655E+02  0.113820018768E+02 -0.108747613430E+01
  0.156122989655E+02  0.113820018768E+02  0.108747613430E+01
  0.164639663696E+02  0.192375373840E+01 -0.479613333941E+00
  0.164639663696E+02  0.192375373840E+01  0.479613333941E+00
  0.176505107880E+02  0.000000000000E+00 -0.144198849797E+00
  0.176505107880E+02  0.000000000000E+00  0.144198849797E+00
  0.190000000000E+02  0.000000000000E+00  0.000000000000E+00
  0.195742740631E+02  0.192375373840E+01 -0.144198939204E+00
  0.195742740631E+02  0.192375373840E+01  0.144198939204E+00
  0.197561950684E+02  0.197561950684E+02  0.000000000000E+00
  0.200105609894E+02  0.547033166885E+01 -0.479613870382E+00
  0.200105609894E+02  0.547033166885E+01  0.479613870382E+00
  0.207771244049E+02  0.113820018768E+02 -0.980749428272E+00
  0.207771244049E+02  0.113820018768E+02  0.980749428272E+00
  0.208915824890E+02  0.197561950684E+02 -0.658128738403E+00
  0.208915824890E+02  0.197561950684E+02  0.658128738403E+00
  0.209237651825E+02  0.192375373840E+01  0.000000000000E+00
  0.231208724976E+02  0.547033166885E+01 -0.144199103117E+00
  0.231208724976E+02  0.547033166885E+01  0.144199103117E+00
  0.239865016937E+02  0.197561950684E+02 -0.108747911453E+01
  0.239865016937E+02  0.197561950684E+02  0.108747911453E+01
  0.244703655243E+02  0.547033166885E+01  0.000000000000E+00
  0.259222583771E+02  0.113820018768E+02 -0.479614794254E+00
  0.259222583771E+02  0.113820018768E+02  0.479614794254E+00
  0.290325775146E+02  0.113820018768E+02 -0.144199386239E+00
  0.290325775146E+02  0.113820018768E+02  0.144199386239E+00
  0.291513423920E+02  0.197561950684E+02 -0.980752110481E+00
  0.291513423920E+02  0.197561950684E+02  0.980752110481E+00
  0.292438049316E+02  0.292438049316E+02  0.000000000000E+00
  0.303791980743E+02  0.292438049316E+02 -0.658130764961E+00
  0.303791980743E+02  0.292438049316E+02  0.658130764961E+00
  0.303820724487E+02  0.113820018768E+02  0.000000000000E+00
  0.334741249084E+02  0.292438049316E+02 -0.108748245239E+01
  0.334741249084E+02  0.292438049316E+02  0.108748245239E+01
  0.342964897156E+02  0.197561950684E+02 -0.479616105556E+00
  0.342964897156E+02  0.197561950684E+02  0.479616105556E+00
  0.374068183899E+02  0.197561950684E+02 -0.144199773669E+00
  0.374068183899E+02  0.197561950684E+02  0.144199773669E+00
  0.376179962158E+02  0.376179962158E+02  0.000000000000E+00
  0.386389808655E+02  0.292438049316E+02 -0.980755090714E+00
  0.386389808655E+02  0.292438049316E+02  0.980755090714E+00
  0.387533912659E+02  0.376179962158E+02 -0.658132553101E+00
  0.387533912659E+02  0.376179962158E+02  0.658132553101E+00
  0.387563171387E+02  0.197561950684E+02  0.000000000000E+00
  0.418483314514E+02  0.376179962158E+02 -0.108748543262E+01
  0.418483314514E+02  0.376179962158E+02  0.108748543262E+01
  0.435296669006E+02  0.435296669006E+02  0.000000000000E+00
  0.437841453552E+02  0.292438049316E+02 -0.479617565870E+00
  0.437841453552E+02  0.292438049316E+02  0.479617565870E+00
  0.446650657654E+02  0.435296669006E+02 -0.658133804798E+00
  0.446650657654E+02  0.435296669006E+02  0.658133804798E+00
  0.468944816589E+02  0.292438049316E+02 -0.144200220704E+00
  0.468944816589E+02  0.292438049316E+02  0.144200220704E+00
  0.470131988525E+02  0.376179962158E+02 -0.980757772923E+00
  0.470131988525E+02  0.376179962158E+02  0.980757772923E+00
  0.470762481689E+02  0.470762481689E+02  0.000000000000E+00
  0.477600097656E+02  0.435296669006E+02 -0.108748745918E+01
  0.477600097656E+02  0.435296669006E+02  0.108748745918E+01
  0.482116432190E+02  0.470762481689E+02 -0.658134579659E+00
  0.482116432190E+02  0.470762481689E+02  0.658134579659E+00
  0.482439842224E+02  0.292438049316E+02  0.000000000000E+00
  0.490000000000E+02  0.490000000000E+02  0.000000000000E+00
  0.501353988647E+02  0.490000000000E+02 -0.658134996891E+00
  0.501353988647E+02  0.490000000000E+02  0.658134996891E+00
  0.506007728577E+02  0.494653701782E+02 -0.465371757746E+00
  0.506007728577E+02  0.494653701782E+02  0.465371757746E+00
  0.507935333252E+02  0.496581344604E+02 -0.771266485397E-15
  0.513065910339E+02  0.470762481689E+02 -0.108748877048E+01
  0.513065910339E+02  0.470762481689E+02  0.108748877048E+01
  0.521583786011E+02  0.376179962158E+02 -0.479618877172E+00
  0.521583786011E+02  0.376179962158E+02  0.479618877172E+00
  0.529248886108E+02  0.435296669006E+02 -0.980759620667E+00
  0.529248886108E+02  0.435296669006E+02  0.980759620667E+00
  0.532303466797E+02  0.490000000000E+02 -0.108748936653E+01
  0.532303466797E+02  0.490000000000E+02  0.108748936653E+01
  0.539993209839E+02  0.497689704895E+02 -0.768971264362E+00
  0.539993209839E+02  0.497689704895E+02  0.768971264362E+00
  0.543178405762E+02  0.500874900818E+02 -0.157378642191E-15
  0.552687225342E+02  0.376179962158E+02 -0.144200608134E+00
  0.552687225342E+02  0.376179962158E+02  0.144200608134E+00
  0.564714775085E+02  0.470762481689E+02 -0.980760753155E+00
  0.564714775085E+02  0.470762481689E+02  0.980760753155E+00
  0.566182289124E+02  0.376179962158E+02  0.000000000000E+00
  0.580700759888E+02  0.435296669006E+02 -0.479619771242E+00
  0.580700759888E+02  0.435296669006E+02  0.479619771242E+00
  0.583952369690E+02  0.490000000000E+02 -0.980761349201E+00
  0.583952369690E+02  0.490000000000E+02  0.980761349201E+00
  0.590887413025E+02  0.496935043335E+02 -0.693503141403E+00
  0.590887413025E+02  0.496935043335E+02  0.693503141403E+00
  0.593759994507E+02  0.499807624817E+02  0.000000000000E+00
  0.611804275513E+02  0.435296669006E+02 -0.144200876355E+00
  0.611804275513E+02  0.435296669006E+02  0.144200876355E+00
  0.616166725159E+02  0.470762481689E+02 -0.479620337486E+00
  0.616166725159E+02  0.470762481689E+02  0.479620337486E+00
  0.625299339294E+02  0.435296669006E+02  0.000000000000E+00
  0.635404319763E+02  0.490000000000E+02 -0.479620635509E+00
  0.635404319763E+02  0.490000000000E+02  0.479620635509E+00
  0.638795776367E+02  0.493391418457E+02 -0.339143037796E+00
  0.638795776367E+02  0.493391418457E+02  0.339143037796E+00
  0.640200576782E+02  0.494796218872E+02  0.296956834055E-15
  0.647270278931E+02  0.470762481689E+02 -0.144201040268E+00
  0.647270278931E+02  0.470762481689E+02  0.144201040268E+00
  0.660765380859E+02  0.470762481689E+02  0.000000000000E+00
  0.666507873535E+02  0.490000000000E+02 -0.144201144576E+00
  0.666507873535E+02  0.490000000000E+02  0.144201144576E+00
  0.667527542114E+02  0.491019668579E+02 -0.101965606213E+00
  0.667527542114E+02  0.491019668579E+02  0.101965606213E+00
  0.667949905396E+02  0.491441993713E+02 -0.260488604752E-16
  0.680002975464E+02  0.490000000000E+02  0.000000000000E+00
  0.190000000000E+02  0.000000000000E+00  0.000000000000E+00
  0.209237651825E+02  0.192375373840E+01  0.000000000000E+00
  0.244703655243E+02  0.547033166885E+01  0.000000000000E+00
  0.303820724487E+02  0.113820018768E+02  0.000000000000E+00
  0.387563171387E+02  0.197561950684E+02  0.000000000000E+00
  0.482439842224E+02  0.292438049316E+02  0.000000000000E+00
  0.566182289124E+02  0.376179962158E+02  0.000000000000E+00
  0.625299339294E+02  0.435296669006E+02  0.000000000000E+00
  0.660765380859E+02  0.470762481689E+02  0.000000000000E+00
POLYGONS                 256                1024
3                 135                  33                 136
3                  32                  30                  33
3                  30                  28                  33
3                  30                  22                  28
3                  22                  17                  28
3                  22                  13                  17
3                  13                   6                  17
3                  17                   6                   9
3                   6                   1                   9
3                   9                   1                   4
3                   1                   0                   4
3                   4                   0                   3
3                   0                   5                   3
3                   0                   2                   5
3                   2                  10                   5
3                   2                   7                  10
[...]
CELL_DATA                 256
SCALARS sigma float 1
LOOKUP_TABLE default
  0.000000000000E+00
  0.000000000000E+00
  0.000000000000E+00
  0.000000000000E+00
  0.000000000000E+00
  0.000000000000E+00
  0.000000000000E+00
  0.000000000000E+00
  0.000000000000E+00
  0.000000000000E+00
  0.000000000000E+00
  0.000000000000E+00
  0.000000000000E+00
  0.000000000000E+00
  0.000000000000E+00
  0.000000000000E+00
  0.000000000000E+00
  0.000000000000E+00
  0.000000000000E+00
  0.000000000000E+00
  0.000000000000E+00
  0.000000000000E+00
  0.000000000000E+00
  0.000000000000E+00
  0.000000000000E+00
  0.000000000000E+00
  0.000000000000E+00
  0.000000000000E+00
  0.000000000000E+00
  0.000000000000E+00
  0.000000000000E+00
  0.000000000000E+00
  0.000000000000E+00
  0.000000000000E+00
  0.000000000000E+00
  0.000000000000E+00
  0.000000000000E+00
  0.000000000000E+00
  0.000000000000E+00
  0.000000000000E+00
  0.000000000000E+00
  0.000000000000E+00
  0.000000000000E+00
  0.000000000000E+00
  0.000000000000E+00
  0.000000000000E+00
  0.000000000000E+00
  0.000000000000E+00
  0.000000000000E+00
  0.000000000000E+00
  0.000000000000E+00
  0.000000000000E+00
  0.000000000000E+00
  0.000000000000E+00
  0.000000000000E+00
  0.000000000000E+00
  0.000000000000E+00
  0.000000000000E+00
  0.000000000000E+00
  0.000000000000E+00
  0.000000000000E+00
  0.000000000000E+00
  0.000000000000E+00
  0.000000000000E+00
  0.000000000000E+00
  0.000000000000E+00
  0.000000000000E+00
  0.000000000000E+00
  0.000000000000E+00
  0.000000000000E+00
  0.000000000000E+00
  0.000000000000E+00
  0.000000000000E+00
  0.000000000000E+00
  0.000000000000E+00
  0.000000000000E+00
  0.000000000000E+00
  0.000000000000E+00
  0.000000000000E+00
  0.000000000000E+00
  0.000000000000E+00
  0.000000000000E+00
  0.000000000000E+00
  0.000000000000E+00
  0.000000000000E+00
  0.000000000000E+00
  0.000000000000E+00
  0.000000000000E+00
  0.000000000000E+00
  0.000000000000E+00
  0.000000000000E+00
  0.000000000000E+00
  0.000000000000E+00
  0.000000000000E+00
  0.000000000000E+00
  0.000000000000E+00
  0.000000000000E+00
  0.000000000000E+00
  0.000000000000E+00
  0.000000000000E+00
  0.000000000000E+00
  0.000000000000E+00
  0.000000000000E+00
  0.000000000000E+00
  0.000000000000E+00
  0.000000000000E+00
  0.000000000000E+00
  0.000000000000E+00
  0.000000000000E+00
  0.000000000000E+00
  0.000000000000E+00
  0.000000000000E+00
  0.000000000000E+00
  0.000000000000E+00
  0.000000000000E+00
  0.000000000000E+00
  0.000000000000E+00
  0.000000000000E+00
  0.000000000000E+00
  0.000000000000E+00
  0.000000000000E+00
  0.000000000000E+00
  0.000000000000E+00
  0.000000000000E+00
  0.000000000000E+00
  0.000000000000E+00
  0.000000000000E+00
  0.000000000000E+00
  0.000000000000E+00
  0.000000000000E+00
  0.000000000000E+00
  0.000000000000E+00
  0.000000000000E+00
  0.000000000000E+00
  0.000000000000E+00
  0.000000000000E+00
  0.000000000000E+00
  0.000000000000E+00
  0.000000000000E+00
  0.000000000000E+00
  0.000000000000E+00
  0.000000000000E+00
  0.000000000000E+00
  0.000000000000E+00
  0.000000000000E+00
  0.000000000000E+00
  0.000000000000E+00
  0.000000000000E+00
  0.000000000000E+00
  0.000000000000E+00
  0.000000000000E+00
  0.000000000000E+00
  0.000000000000E+00
  0.000000000000E+00
  0.000000000000E+00
  0.000000000000E+00
  0.000000000000E+00
  0.000000000000E+00
  0.000000000000E+00
  0.000000000000E+00
  0.000000000000E+00
  0.000000000000E+00
  0.000000000000E+00
  0.000000000000E+00
  0.000000000000E+00
  0.000000000000E+00
  0.000000000000E+00
  0.000000000000E+00
  0.000000000000E+00
  0.000000000000E+00
  0.000000000000E+00
  0.000000000000E+00
  0.000000000000E+00
  0.000000000000E+00
  0.000000000000E+00
  0.000000000000E+00
  0.000000000000E+00
  0.000000000000E+00
  0.000000000000E+00
  0.000000000000E+00
  0.000000000000E+00
  0.000000000000E+00
  0.000000000000E+00
  0.000000000000E+00
  0.000000000000E+00
  0.000000000000E+00
  0.000000000000E+00
  0.000000000000E+00
  0.000000000000E+00
  0.000000000000E+00
  0.000000000000E+00
  0.000000000000E+00
  0.000000000000E+00
  0.000000000000E+00
  0.000000000000E+00
  0.000000000000E+00
  0.000000000000E+00
  0.000000000000E+00
  0.000000000000E+00
  0.000000000000E+00
  0.000000000000E+00
  0.000000000000E+00
  0.000000000000E+00
  0.000000000000E+00
  0.000000000000E+00
  0.000000000000E+00
  0.000000000000E+00
  0.000000000000E+00
  0.000000000000E+00
  0.000000000000E+00
  0.000000000000E+00
  0.000000000000E+00
  0.000000000000E+00
  0.000000000000E+00
  0.000000000000E+00
  0.000000000000E+00
  0.000000000000E+00
  0.000000000000E+00
  0.000000000000E+00
  0.000000000000E+00
  0.000000000000E+00
  0.000000000000E+00
  0.000000000000E+00
  0.000000000000E+00
  0.000000000000E+00
  0.000000000000E+00
  0.000000000000E+00
  0.000000000000E+00
  0.000000000000E+00
  0.000000000000E+00
  0.000000000000E+00
  0.000000000000E+00
  0.000000000000E+00
  0.000000000000E+00
  0.000000000000E+00
  0.000000000000E+00
  0.000000000000E+00
  0.000000000000E+00
  0.000000000000E+00
  0.000000000000E+00
  0.000000000000E+00
  0.000000000000E+00
  0.000000000000E+00
  0.000000000000E+00
  0.000000000000E+00
  0.000000000000E+00
  0.000000000000E+00
  0.000000000000E+00
  0.000000000000E+00
  0.000000000000E+00
  0.000000000000E+00
  0.000000000000E+00
  0.000000000000E+00
  0.000000000000E+00
  0.000000000000E+00
  0.000000000000E+00
SCALARS C_p_inc float 1
LOOKUP_TABLE default
 -0.671870297142E+00
 -0.128270576339E+01
 -0.317491736585E+00
 -0.261764898347E+00
 -0.175195167343E+00
 -0.157615144663E+00
 -0.591884140091E-01
 -0.100114768909E+00
  0.167517122597E+00
  0.750459135627E-01
  0.559862323913E+00
  0.558932457670E+00
 -0.320995933524E+00
  0.100137994245E+00
 -0.504928268052E+00
 -0.352058777917E+00
 -0.317127829979E+00
 -0.347539417083E+00
 -0.155887498287E+00
 -0.681348998141E-01
  0.148433348937E+00
  0.279133819252E+00
  0.631200936541E+00
  0.499002754156E+00
 -0.522270262236E+00
 -0.649483466325E+00
 -0.256307622764E+00
 -0.328364015822E+00
 -0.189067418493E+00
 -0.178085096422E+00
 -0.981443459311E-01
 -0.134370691957E+00
  0.743301917432E-01
  0.431537151729E-01
  0.484741553948E+00
  0.486136262015E+00
 -0.486226948582E+00
 -0.312279224277E+00
 -0.575418926061E+00
 -0.503052922724E+00
 -0.290895606092E+00
 -0.333321700660E+00
 -0.652791333314E-01
  0.405815370374E-02
  0.264471999947E+00
  0.253352226736E+00
  0.492170431355E+00
  0.461045614316E+00
 -0.479420439116E+00
 -0.518912988573E+00
 -0.228878507057E+00
 -0.257203030403E+00
 -0.177894383907E+00
 -0.192462985015E+00
 -0.133881407394E+00
 -0.143083866818E+00
  0.423633380388E-01
  0.297503531683E-01
  0.480055340336E+00
  0.480716174329E+00
 -0.529504852955E+00
 -0.485147171000E+00
 -0.581666496632E+00
 -0.581712628506E+00
 -0.264603686905E+00
 -0.301939484397E+00
  0.475438347068E-02
  0.186805917599E-01
  0.250073180381E+00
  0.242825324050E+00
  0.460149218481E+00
  0.451967833050E+00
 -0.462607667334E+00
 -0.478347540592E+00
 -0.219221875612E+00
 -0.228927831569E+00
 -0.171761196713E+00
 -0.178655267475E+00
 -0.144069052547E+00
 -0.142110254222E+00
  0.298833779149E-01
  0.277955837784E-01
  0.484400812119E+00
  0.483823119758E+00
 -0.519194209174E+00
 -0.530128664134E+00
 -0.572664384751E+00
 -0.586582262768E+00
 -0.257806628262E+00
 -0.267841214743E+00
  0.186654388227E-01
  0.203645103372E-01
  0.242340157860E+00
  0.240395445494E+00
  0.451971892607E+00
  0.449060621017E+00
 -0.443294778210E+00
 -0.461497181253E+00
 -0.211754356010E+00
 -0.218904527648E+00
 -0.169230925090E+00
 -0.171660505494E+00
 -0.142367683045E+00
 -0.142776409576E+00
  0.278474916035E-01
  0.256453107611E-01
  0.485054457328E+00
  0.484221426836E+00
 -0.508394130917E+00
 -0.519481610770E+00
 -0.566529961952E+00
 -0.573851003066E+00
 -0.254593730736E+00
 -0.258229068751E+00
  0.203532524691E-01
  0.214913035226E-01
  0.240294995141E+00
  0.239386261346E+00
  0.449075850529E+00
  0.445904206974E+00
 -0.381077347579E+00
 -0.441077016446E+00
 -0.189849336897E+00
 -0.210426377759E+00
 -0.167801773965E+00
 -0.168280075671E+00
 -0.141976687293E+00
 -0.150047814837E+00
  0.255080051007E-01
  0.171609337618E-01
  0.481887180672E+00
  0.480202103542E+00
 -0.495730885075E+00
 -0.508281551341E+00
 -0.559250808751E+00
 -0.566178717343E+00
 -0.250374041834E+00
 -0.254444019778E+00
  0.214692818500E-01
  0.243230326346E-01
  0.239227091690E+00
  0.240279607402E+00
  0.446047534685E+00
  0.439715176780E+00
 -0.859073419875E-01
 -0.372887257979E+00
 -0.143740441236E+00
 -0.185402785571E+00
 -0.174704058144E+00
 -0.164745417854E+00
 -0.146849511146E+00
 -0.178558702054E+00
  0.164205254850E-01
 -0.108737367693E-01
  0.471422706668E+00
  0.467714221873E+00
 -0.475149497299E+00
 -0.495225891515E+00
 -0.550258096788E+00
 -0.557133130261E+00
 -0.247210157940E+00
 -0.249196651084E+00
  0.241662152734E-01
  0.206290890166E-01
  0.237879870710E+00
  0.232590362095E+00
  0.433831977413E+00
  0.472254293127E+00
 -0.241774872325E+02
 -0.823731663194E+00
  0.828744755674E+00
 -0.191447695706E+00
 -0.481999726865E+00
 -0.172546381612E+00
 -0.173698790939E+00
 -0.224739610024E+00
 -0.149584919698E-01
 -0.775314698645E-01
  0.442111288911E+00
  0.436522262001E+00
 -0.444032634649E+00
 -0.474261477331E+00
 -0.533762177725E+00
 -0.545411146312E+00
 -0.242917845588E+00
 -0.244654526222E+00
  0.201831685698E-01
 -0.269879701521E+00
  0.133861566178E+00
  0.637400011528E+00
  0.353066862413E+00
 -0.203265089439E+02
 -0.404016062462E+08
 -0.210153405602E+05
 -0.118393855957E+05
  0.954183551869E+00
 -0.157075271245E+00
 -0.478122636851E+00
 -0.244943377628E+00
 -0.295924695225E+00
 -0.967172531188E-01
 -0.116251537058E+00
  0.323292134420E+00
  0.327001707372E+00
 -0.390634440664E+00
 -0.444167426102E+00
 -0.398864166370E+00
 -0.543584373321E+00
 -0.288272623278E+00
 -0.238876154250E+00
 -0.269142322721E+00
 -0.251372421493E+00
  0.867206608688E+00
 -0.118166500140E+05
 -0.210595645286E+05
 -0.404033463462E+08
 -0.841456937501E+08
 -0.476923102711E+06
 -0.179128296689E+05
 -0.282730215857E+02
 -0.127028634254E+00
 -0.444082040855E+00
 -0.387218307945E+00
 -0.215127161682E+00
 -0.233081581316E+00
 -0.273545447647E-01
 -0.403379669756E+00
 -0.342771974182E+00
 -0.442335249507E+00
 -0.408134966190E+00
 -0.287632110369E+00
  0.503686254822E+00
 -0.340518992108E+02
 -0.179859401823E+05
 -0.476280744969E+06
 -0.841407784593E+08
 -0.575097137225E+08
 -0.570477984590E+06
 -0.214058590801E+05
 -0.426848412554E+02
  0.207065390633E+00
 -0.566844478740E+00
 -0.503792898008E+00
 -0.328969655757E+00
 -0.349200398975E+00
 -0.218346385921E+00
 -0.345090510404E+00
 -0.390449786842E+00
 -0.388908102854E+00
 -0.532121669497E+00
 -0.411195433761E+00
  0.976542901239E+00
 -0.538983948058E+02
 -0.214892125506E+05
 -0.569314692162E+06
 -0.575048563260E+08
SCALARS inclination float 1
LOOKUP_TABLE default
  0.100000000000E+01
  0.100000000000E+01
  0.100000000000E+01
  0.100000000000E+01
  0.100000000000E+01
  0.100000000000E+01
  0.100000000000E+01
  0.100000000000E+01
  0.100000000000E+01
  0.100000000000E+01
  0.100000000000E+01
  0.100000000000E+01
  0.100000000000E+01
  0.100000000000E+01
  0.100000000000E+01
  0.100000000000E+01
  0.100000000000E+01
  0.100000000000E+01
  0.100000000000E+01
  0.100000000000E+01
  0.100000000000E+01
  0.100000000000E+01
  0.100000000000E+01
  0.100000000000E+01
  0.100000000000E+01
  0.100000000000E+01
  0.100000000000E+01
  0.100000000000E+01
  0.100000000000E+01
  0.100000000000E+01
  0.100000000000E+01
  0.100000000000E+01
  0.100000000000E+01
  0.100000000000E+01
  0.100000000000E+01
  0.100000000000E+01
  0.100000000000E+01
  0.100000000000E+01
  0.100000000000E+01
  0.100000000000E+01
  0.100000000000E+01
  0.100000000000E+01
  0.100000000000E+01
  0.100000000000E+01
  0.100000000000E+01
  0.100000000000E+01
  0.100000000000E+01
  0.100000000000E+01
  0.100000000000E+01
  0.100000000000E+01
  0.100000000000E+01
  0.100000000000E+01
  0.100000000000E+01
  0.100000000000E+01
  0.100000000000E+01
  0.100000000000E+01
  0.100000000000E+01
  0.100000000000E+01
  0.100000000000E+01
  0.100000000000E+01
  0.100000000000E+01
  0.100000000000E+01
  0.100000000000E+01
  0.100000000000E+01
  0.100000000000E+01
  0.100000000000E+01
  0.100000000000E+01
  0.100000000000E+01
  0.100000000000E+01
  0.100000000000E+01
  0.100000000000E+01
  0.100000000000E+01
  0.100000000000E+01
  0.100000000000E+01
  0.100000000000E+01
  0.100000000000E+01
  0.100000000000E+01
  0.100000000000E+01
  0.100000000000E+01
  0.100000000000E+01
  0.100000000000E+01
  0.100000000000E+01
  0.100000000000E+01
  0.100000000000E+01
  0.100000000000E+01
  0.100000000000E+01
  0.100000000000E+01
  0.100000000000E+01
  0.100000000000E+01
  0.100000000000E+01
  0.100000000000E+01
  0.100000000000E+01
  0.100000000000E+01
  0.100000000000E+01
  0.100000000000E+01
  0.100000000000E+01
  0.100000000000E+01
  0.100000000000E+01
  0.100000000000E+01
  0.100000000000E+01
  0.100000000000E+01
  0.100000000000E+01
  0.100000000000E+01
  0.100000000000E+01
  0.100000000000E+01
  0.100000000000E+01
  0.100000000000E+01
  0.100000000000E+01
  0.100000000000E+01
  0.100000000000E+01
  0.100000000000E+01
  0.100000000000E+01
  0.100000000000E+01
  0.100000000000E+01
  0.100000000000E+01
  0.100000000000E+01
  0.100000000000E+01
  0.100000000000E+01
  0.100000000000E+01
  0.100000000000E+01
  0.100000000000E+01
  0.100000000000E+01
  0.100000000000E+01
  0.100000000000E+01
  0.100000000000E+01
  0.100000000000E+01
  0.100000000000E+01
  0.100000000000E+01
  0.100000000000E+01
  0.100000000000E+01
  0.100000000000E+01
  0.100000000000E+01
  0.100000000000E+01
  0.100000000000E+01
  0.100000000000E+01
  0.100000000000E+01
  0.100000000000E+01
  0.100000000000E+01
  0.100000000000E+01
  0.100000000000E+01
  0.100000000000E+01
  0.100000000000E+01
  0.100000000000E+01
  0.100000000000E+01
  0.100000000000E+01
  0.100000000000E+01
  0.100000000000E+01
  0.100000000000E+01
  0.100000000000E+01
  0.100000000000E+01
  0.100000000000E+01
  0.100000000000E+01
  0.100000000000E+01
  0.100000000000E+01
  0.100000000000E+01
  0.100000000000E+01
  0.100000000000E+01
  0.100000000000E+01
  0.100000000000E+01
  0.100000000000E+01
  0.100000000000E+01
  0.100000000000E+01
  0.100000000000E+01
  0.100000000000E+01
  0.100000000000E+01
  0.100000000000E+01
  0.100000000000E+01
  0.100000000000E+01
  0.100000000000E+01
  0.100000000000E+01
  0.100000000000E+01
  0.100000000000E+01
  0.100000000000E+01
  0.100000000000E+01
  0.100000000000E+01
  0.100000000000E+01
  0.100000000000E+01
  0.100000000000E+01
  0.100000000000E+01
  0.100000000000E+01
  0.100000000000E+01
  0.100000000000E+01
  0.100000000000E+01
  0.100000000000E+01
  0.100000000000E+01
  0.100000000000E+01
  0.100000000000E+01
  0.100000000000E+01
  0.100000000000E+01
  0.100000000000E+01
  0.100000000000E+01
  0.100000000000E+01
  0.100000000000E+01
  0.100000000000E+01
  0.100000000000E+01
  0.100000000000E+01
  0.100000000000E+01
  0.100000000000E+01
  0.100000000000E+01
  0.100000000000E+01
  0.100000000000E+01
  0.100000000000E+01
  0.100000000000E+01
  0.100000000000E+01
  0.100000000000E+01
  0.100000000000E+01
  0.100000000000E+01
  0.100000000000E+01
  0.100000000000E+01
  0.100000000000E+01
  0.100000000000E+01
  0.100000000000E+01
  0.100000000000E+01
  0.100000000000E+01
  0.100000000000E+01
  0.100000000000E+01
  0.100000000000E+01
  0.100000000000E+01
  0.100000000000E+01
  0.100000000000E+01
  0.100000000000E+01
  0.100000000000E+01
  0.100000000000E+01
  0.100000000000E+01
  0.100000000000E+01
  0.100000000000E+01
  0.100000000000E+01
  0.100000000000E+01
  0.100000000000E+01
  0.100000000000E+01
  0.100000000000E+01
  0.100000000000E+01
  0.100000000000E+01
  0.100000000000E+01
  0.100000000000E+01
  0.100000000000E+01
  0.100000000000E+01
  0.100000000000E+01
  0.100000000000E+01
  0.100000000000E+01
  0.100000000000E+01
  0.100000000000E+01
  0.100000000000E+01
  0.100000000000E+01
  0.100000000000E+01
  0.100000000000E+01
  0.100000000000E+01
  0.100000000000E+01
  0.100000000000E+01
  0.100000000000E+01
  0.100000000000E+01
  0.100000000000E+01
  0.100000000000E+01
  0.100000000000E+01
  0.100000000000E+01
  0.100000000000E+01
VECTORS v float
  0.203733938403E+03 -0.468553046610E+02  0.267765698488E+02
  0.237612973518E+03 -0.565781276787E+02  0.314356439672E+02
  0.185896805419E+03 -0.486170370935E+01  0.205713276537E+02
  0.181803376682E+03 -0.741542517418E+01  0.204052758057E+02
  0.175850394643E+03 -0.146241411015E+01  0.172702185836E+02
  0.174474497713E+03 -0.374340931362E+01  0.173583787591E+02
  0.167692478032E+03  0.303862621562E+01  0.340243061145E+01
  0.170729495860E+03 -0.816837868058E+01  0.369677269980E+01
  0.146760009134E+03  0.158011309774E+02 -0.181675961162E+02
  0.155008337697E+03 -0.666802783235E+01 -0.224289494120E+02
  0.885512835493E+02  0.597890522732E+02 -0.166720522437E+02
  0.921455945553E+02  0.517705837284E+02 -0.234034099362E+02
  0.157974653233E+03 -0.140584749492E+02  0.997191514998E+02
  0.138137130555E+03  0.301966136557E+02  0.625678137431E+02
  0.195655566647E+03 -0.273218369607E+02  0.309330829199E+02
  0.187561710891E+03 -0.527347579125E+01  0.267515369901E+02
  0.186968398077E+03 -0.468015272667E+01 -0.396025323453E+01
  0.188820216411E+03 -0.115136120752E+02 -0.413973237155E+01
  0.174422780164E+03  0.288387088939E+01 -0.167078421897E+02
  0.167351913281E+03 -0.883838700686E+01 -0.171608912792E+02
  0.149375570149E+03  0.913804492423E+01 -0.151231454970E+02
  0.137604422554E+03  0.179451875561E+01 -0.146456871562E+02
  0.760519689189E+02  0.633472769097E+02 -0.135751564527E+01
  0.100609418268E+03  0.562698289449E+02 -0.473784034886E+01
  0.196372227938E+03 -0.356180222250E+02  0.247891747488E+02
  0.203795947398E+03 -0.401598111719E+02  0.260677503374E+02
  0.180651424579E+03 -0.170151547653E+02  0.213162974103E+02
  0.185750545754E+03 -0.175846165494E+02  0.219275978911E+02
  0.176623432404E+03 -0.845746083938E+01  0.180268334418E+02
  0.175781030677E+03 -0.884343381817E+01  0.179823763491E+02
  0.170731363082E+03 -0.379375519747E+01  0.360641218472E+01
  0.173273926205E+03 -0.100444782135E+02  0.378812218205E+01
  0.155284263122E+03  0.794520009804E+01 -0.204399745004E+02
  0.157959766488E+03  0.280364680806E+01 -0.215244204858E+02
  0.955311398816E+02  0.652322993938E+02 -0.175627469910E+02
  0.941784576208E+02  0.673962887705E+02 -0.155243046436E+02
  0.169697780314E+03 -0.812303392305E+01  0.103073970881E+03
  0.162402518289E+03  0.354775092785E+01  0.920803031412E+02
  0.199264690843E+03 -0.333144244309E+02  0.322651135866E+02
  0.195672751034E+03 -0.264117417517E+02  0.308092113526E+02
  0.184520741231E+03 -0.152597040368E+02 -0.412829826322E+01
  0.186961321385E+03 -0.212597085566E+02 -0.430271576986E+01
  0.167418835845E+03 -0.171715869752E+01 -0.164737993144E+02
  0.161805652707E+03 -0.428901460555E+01 -0.161775776977E+02
  0.137810333553E+03  0.197064169436E+02 -0.127362683163E+02
  0.138883204516E+03  0.195866002076E+02 -0.128648856769E+02
  0.100627176290E+03  0.578428492224E+02 -0.457165123930E+01
  0.106523225118E+03  0.542315483644E+02 -0.558755274946E+01
  0.194039231441E+03 -0.326887747044E+02  0.242268924316E+02
  0.196365709152E+03 -0.344689834014E+02  0.246656977622E+02
  0.178673863766E+03 -0.167770340145E+02  0.210773478094E+02
  0.180643634553E+03 -0.176928007876E+02  0.213885345596E+02
  0.175505926079E+03 -0.125550691720E+02  0.183170968064E+02
  0.176583705006E+03 -0.126848538187E+02  0.184347134184E+02
  0.173274211813E+03 -0.937535533080E+01  0.377430074692E+01
  0.173909246190E+03 -0.105658796862E+02  0.381202485842E+01
  0.158007578460E+03  0.533580384697E+01 -0.211797737999E+02
  0.159060816996E+03  0.370411634066E+01 -0.215522362036E+02
  0.944176376291E+02  0.683473232068E+02 -0.151116768631E+02
  0.940224775357E+02  0.688781304291E+02 -0.145749384526E+02