# vtk DataFile Version 3.0
TriPan results file. Generated by TriPan, USU AeroLab (c) 2021.
ASCII
DATASET POLYDATA
POINTS                  80 float
  0.190000000000E+02  0.000000000000E+00  0.000000000000E+00
  0.993485144495E+02  0.000000000000E+00  0.117215806098E+02
  0.193396415710E+02  0.339639574289E+00  0.000000000000E+00
  0.993555921426E+02  0.339639574289E+00  0.116730647868E+02
  0.197353687286E+02  0.735364913940E+00  0.000000000000E+00
  0.993638385872E+02  0.735364913940E+00  0.116165374640E+02
  0.201952877045E+02  0.119528055191E+01  0.000000000000E+00
  0.993734227066E+02  0.119528055191E+01  0.115508407133E+02
  0.207282505035E+02  0.172824025154E+01  0.000000000000E+00
  0.993845289653E+02  0.172824025154E+01  0.114747100773E+02
  0.213437728882E+02  0.234375929832E+01  0.000000000000E+00
  0.993973556595E+02  0.234375929832E+01  0.113867862848E+02
  0.220518741608E+02  0.305185556412E+01  0.000000000000E+00
  0.994121115785E+02  0.305185556412E+01  0.112856381365E+02
  0.228628253937E+02  0.386280250549E+01  0.000000000000E+00
  0.994290107583E+02  0.386280250549E+01  0.111697984696E+02
  0.237868041992E+02  0.478677463531E+01  0.000000000000E+00
  0.994482652873E+02  0.478677463531E+01  0.110378134714E+02
  0.248334121704E+02  0.583337688446E+01  0.000000000000E+00
  0.994700752502E+02  0.583337688446E+01  0.108883116101E+02
  0.260110912323E+02  0.701104879379E+01  0.000000000000E+00
  0.994946165659E+02  0.701104879379E+01  0.107200870058E+02
  0.273264064789E+02  0.832635498047E+01  0.000000000000E+00
  0.995220260425E+02  0.832635498047E+01  0.105322018731E+02
  0.287832584381E+02  0.978319931030E+01  0.000000000000E+00
  0.995523849620E+02  0.978319931030E+01  0.103240990442E+02
  0.303820724487E+02  0.113820018768E+02  0.000000000000E+00
  0.995857021879E+02  0.113820018768E+02  0.100957177620E+02
  0.321190223694E+02  0.131189413071E+02  0.000000000000E+00
  0.996218979884E+02  0.131189413071E+02  0.984760456842E+01
  0.339854316711E+02  0.149853391647E+02  0.000000000000E+00
  0.996607915558E+02  0.149853391647E+02  0.958099885526E+01
  0.359674301147E+02  0.169673271179E+02  0.000000000000E+00
  0.997020938520E+02  0.169673271179E+02  0.929788190549E+01
  0.380459861755E+02  0.190458717346E+02  0.000000000000E+00
  0.997454082848E+02  0.190458717346E+02  0.900097226170E+01
  0.401973724365E+02  0.211972446442E+02  0.000000000000E+00
  0.997902404051E+02  0.211972446442E+02  0.869365924742E+01
  0.423940925598E+02  0.233939495087E+02  0.000000000000E+00
  0.998360172248E+02  0.233939495087E+02  0.837987055459E+01
  0.446062088013E+02  0.256060504913E+02  0.000000000000E+00
  0.998821148798E+02  0.256060504913E+02  0.806388261581E+01
  0.468029289246E+02  0.278027553558E+02  0.000000000000E+00
  0.999278916994E+02  0.278027553558E+02  0.775009392298E+01
  0.489543113708E+02  0.299541282654E+02  0.000000000000E+00
  0.999727237403E+02  0.299541282654E+02  0.744278145362E+01
  0.510328712463E+02  0.320326728821E+02  0.000000000000E+00
  0.100016038252E+03  0.320326728821E+02  0.714587126493E+01
  0.530148696899E+02  0.340146598816E+02  0.000000000000E+00
  0.100057340549E+03  0.340146598816E+02  0.686275431515E+01
  0.548812789917E+02  0.358810577393E+02  0.000000000000E+00
  0.100096234116E+03  0.358810577393E+02  0.659614860198E+01
  0.566182289124E+02  0.376179962158E+02  0.000000000000E+00
  0.100132429917E+03  0.376179962158E+02  0.634803540843E+01
  0.582170410156E+02  0.392168006897E+02  0.000000000000E+00
  0.100165747103E+03  0.392168006897E+02  0.611965439865E+01
  0.596738929749E+02  0.406736450195E+02  0.000000000000E+00
  0.100196106022E+03  0.406736450195E+02  0.591155156975E+01
  0.609892082214E+02  0.419889526367E+02  0.000000000000E+00
  0.100223515499E+03  0.419889526367E+02  0.572366643705E+01
  0.621668891907E+02  0.431666221619E+02  0.000000000000E+00
  0.100248056854E+03  0.431666221619E+02  0.555544156033E+01
  0.632134971619E+02  0.442132263184E+02  0.000000000000E+00
  0.100269866817E+03  0.442132263184E+02  0.540593969903E+01
  0.641374740601E+02  0.451371994019E+02  0.000000000000E+00
  0.100289121306E+03  0.451371994019E+02  0.527395497324E+01
  0.649484252930E+02  0.459481430054E+02  0.000000000000E+00
  0.100306020486E+03  0.459481430054E+02  0.515811530636E+01
  0.656565246582E+02  0.466562423706E+02  0.000000000000E+00
  0.100320776366E+03  0.466562423706E+02  0.505696743055E+01
  0.662720489502E+02  0.472717590332E+02  0.000000000000E+00
  0.100333603099E+03  0.472717590332E+02  0.496904336551E+01
  0.668050155640E+02  0.478047180176E+02  0.000000000000E+00
  0.100344709438E+03  0.478047180176E+02  0.489291218463E+01
  0.672649307251E+02  0.482646369934E+02  0.000000000000E+00
  0.100354293478E+03  0.482646369934E+02  0.482721597887E+01
  0.676606597900E+02  0.486603622437E+02  0.000000000000E+00
  0.100362539962E+03  0.486603622437E+02  0.477068838362E+01
  0.680002975464E+02  0.490000000000E+02  0.000000000000E+00
  0.100369617576E+03  0.490000000000E+02  0.472217310556E+01
POLYGONS                  78                 312
3                   0                   1                   3
3                   0                   3                   2
3                   2                   3                   5
3                   2                   5                   4
3                   4                   5                   7
3                   4                   7                   6
3                   6                   7                   9
3                   6                   9                   8
3                   8                   9                  11
3                   8                  11                  10
3                  10                  11                  13
3                  10                  13                  12
3                  12                  13                  15
3                  12                  15                  14
3                  14                  15                  17
3                  14                  17                  16
3                  16                  17                  19
3                  16                  19                  18
3                  18                  19                  21
3                  18                  21                  20
3                  20                  21                  23
3                  20                  23                  22
3                  22                  23                  25
3                  22                  25                  24
3                  24                  25                  27
3                  24                  27                  26
3                  26                  27                  29
3                  26                  29                  28
3                  28                  29                  31
3                  28                  31                  30
3                  30                  31                  33
3                  30                  33                  32
3                  32                  33                  35
3                  32                  35                  34
3                  34                  35                  37
3                  34                  37                  36
3                  36                  37                  39
3                  36                  39                  38
3                  38                  39                  41
3                  38                  41                  40
3                  40                  41                  43
3                  40                  43                  42
3                  42                  43                  45
3                  42                  45                  44
3                  44                  45                  47
3                  44                  47                  46
3                  46                  47                  49
3                  46                  49                  48
3                  48                  49                  51
3                  48                  51                  50
3                  50                  51                  53
3                  50                  53                  52
3                  52                  53                  55
3                  52                  55                  54
3                  54                  55                  57
3                  54                  57                  56
3                  56                  57                  59
3                  56                  59                  58
3                  58                  59                  61
3                  58                  61                  60
3                  60                  61                  63
3                  60                  63                  62
3                  62                  63                  65
3                  62                  65                  64
3                  64                  65                  67
3                  64                  67                  66
3                  66                  67                  69
3                  66                  69                  68
3                  68                  69                  71
3                  68                  71                  70
3                  70                  71                  73
3                  70                  73                  72
3                  72                  73                  75
3                  72                  75                  74
3                  74                  75                  77
3                  74                  77                  76
3                  76                  77                  79
3                  76                  79                  78
POINT_DATA                  80
SCALARS mu float 1
LOOKUP_TABLE default
 -0.266456820654E-03
 -0.266456820654E-03
 -0.440563934347E-04
 -0.440563934347E-04
 -0.484982982520E-04
 -0.484982982520E-04
 -0.497340513554E-04
 -0.497340513554E-04
 -0.528307320238E-04
 -0.528307320238E-04
 -0.577859296413E-04
 -0.577859296413E-04
 -0.638038225418E-04
 -0.638038225418E-04
 -0.690852441316E-04
 -0.690852441316E-04
 -0.763246352768E-04
 -0.763246352768E-04
 -0.837243381220E-04
 -0.837243381220E-04
 -0.935208930457E-04
 -0.935208930457E-04
 -0.991797229943E-04
 -0.991797229943E-04
 -0.109274165574E-03
 -0.109274165574E-03
 -0.118198335272E-03
 -0.118198335272E-03
 -0.126356368604E-03
 -0.126356368604E-03
 -0.132352328805E-03
 -0.132352328805E-03
 -0.137556531989E-03
 -0.137556531989E-03
 -0.140901371381E-03
 -0.140901371381E-03
 -0.144818920461E-03
 -0.144818920461E-03
 -0.144352870969E-03
 -0.144352870969E-03
 -0.143662214853E-03
 -0.143662214853E-03
 -0.140459084854E-03
 -0.140459084854E-03
 -0.135983317286E-03
 -0.135983317286E-03
 -0.130447637630E-03
 -0.130447637630E-03
 -0.120828473321E-03
 -0.120828473321E-03
 -0.112961596457E-03
 -0.112961596457E-03
 -0.102450338403E-03
 -0.102450338403E-03
 -0.926899317761E-04
 -0.926899317761E-04
 -0.813388542582E-04
 -0.813388542582E-04
 -0.720865044741E-04
 -0.720865044741E-04
 -0.596472297119E-04
 -0.596472297119E-04
 -0.511427639509E-04
 -0.511427639509E-04
 -0.412875489673E-04
 -0.412875489673E-04
 -0.318967114907E-04
 -0.318967114907E-04
 -0.272472635885E-04
 -0.272472635885E-04
 -0.403158082065E-04
 -0.403158082065E-04
 -0.171515763157E-04
 -0.171515763157E-04
 -0.103907866702E-04
 -0.103907866702E-04
  0.124012540820E-02
  0.124012540820E-02
  0.000000000000E+00
  0.000000000000E+00
