# vtk DataFile Version 3.0
TriPan results file. Generated by TriPan, USU AeroLab (c) 2021.
ASCII
DATASET POLYDATA
POINTS                  50 float
  0.190003013611E+02  0.000000000000E+00  0.000000000000E+00
  0.993485207295E+02  0.000000000000E+00  0.117215375621E+02
  0.195801982880E+02  0.579897820950E+00  0.000000000000E+00
  0.993606050349E+02  0.579897820950E+00  0.116387026589E+02
  0.203216114044E+02  0.132131123543E+01  0.000000000000E+00
  0.993760551299E+02  0.132131123543E+01  0.115327961075E+02
  0.212622661591E+02  0.226196575165E+01  0.000000000000E+00
  0.993956571642E+02  0.226196575165E+01  0.113984290469E+02
  0.224441299438E+02  0.344382953644E+01  0.000000000000E+00
  0.994202856841E+02  0.344382953644E+01  0.112296066794E+02
  0.239110069275E+02  0.491070652008E+01  0.000000000000E+00
  0.994508535122E+02  0.491070652008E+01  0.110200718340E+02
  0.257042465210E+02  0.670394468307E+01  0.000000000000E+00
  0.994882223171E+02  0.670394468307E+01  0.107639179881E+02
  0.278562793732E+02  0.885597801208E+01  0.000000000000E+00
  0.995330679115E+02  0.885597801208E+01  0.104565126120E+02
  0.303823032379E+02  0.113820018768E+02  0.000000000000E+00
  0.995857069973E+02  0.113820018768E+02  0.100956847951E+02
  0.332713356018E+02  0.142710342407E+02  0.000000000000E+00
  0.996459107129E+02  0.142710342407E+02  0.968300332537E+01
  0.364790649414E+02  0.174787635803E+02  0.000000000000E+00
  0.997127556632E+02  0.174787635803E+02  0.922479784631E+01
  0.399255523682E+02  0.209252490997E+02  0.000000000000E+00
  0.997845760248E+02  0.209252490997E+02  0.873248716319E+01
  0.435003013611E+02  0.245000000000E+02  0.000000000000E+00
  0.998590691923E+02  0.245000000000E+02  0.822185506136E+01
  0.470750503540E+02  0.280747509003E+02  0.000000000000E+00
  0.999335623597E+02  0.280747509003E+02  0.771122295953E+01
  0.505215377808E+02  0.315212364197E+02  0.000000000000E+00
  0.100005382721E+03  0.315212364197E+02  0.721891227640E+01
  0.537292671204E+02  0.347289657593E+02  0.000000000000E+00
  0.100072227672E+03  0.347289657593E+02  0.676070679735E+01
  0.566182975769E+02  0.376179962158E+02  0.000000000000E+00
  0.100132431347E+03  0.376179962158E+02  0.634802560010E+01
  0.591443214417E+02  0.401440200806E+02  0.000000000000E+00
  0.100185070433E+03  0.401440200806E+02  0.598719778312E+01
  0.612963562012E+02  0.422960548401E+02  0.000000000000E+00
  0.100229916067E+03  0.422960548401E+02  0.567979213460E+01
  0.630895957947E+02  0.440892944336E+02  0.000000000000E+00
  0.100267284872E+03  0.440892944336E+02  0.542363828868E+01
  0.645564727783E+02  0.455561714172E+02  0.000000000000E+00
  0.100297852700E+03  0.455561714172E+02  0.521410344337E+01
  0.657383346558E+02  0.467380332947E+02  0.000000000000E+00
  0.100322481181E+03  0.467380332947E+02  0.504528134823E+01
  0.666789932251E+02  0.476786880493E+02  0.000000000000E+00
  0.100342083294E+03  0.476786880493E+02  0.491091374275E+01
  0.674204025269E+02  0.484201011658E+02  0.000000000000E+00
  0.100357533310E+03  0.484201011658E+02  0.480500773625E+01
  0.680002975464E+02  0.490000000000E+02  0.000000000000E+00
  0.100369617576E+03  0.490000000000E+02  0.472217310556E+01
POLYGONS                  48                 192
3                   0                   1                   3
3                   0                   3                   2
3                   2                   3                   5
3                   2                   5                   4
3                   4                   5                   7
3                   4                   7                   6
3                   6                   7                   9
3                   6                   9                   8
3                   8                   9                  11
3                   8                  11                  10
3                  10                  11                  13
3                  10                  13                  12
3                  12                  13                  15
3                  12                  15                  14
3                  14                  15                  17
3                  14                  17                  16
3                  16                  17                  19
3                  16                  19                  18
3                  18                  19                  21
3                  18                  21                  20
3                  20                  21                  23
3                  20                  23                  22
3                  22                  23                  25
3                  22                  25                  24
3                  24                  25                  27
3                  24                  27                  26
3                  26                  27                  29
3                  26                  29                  28
3                  28                  29                  31
3                  28                  31                  30
3                  30                  31                  33
3                  30                  33                  32
3                  32                  33                  35
3                  32                  35                  34
3                  34                  35                  37
3                  34                  37                  36
3                  36                  37                  39
3                  36                  39                  38
3                  38                  39                  41
3                  38                  41                  40
3                  40                  41                  43
3                  40                  43                  42
3                  42                  43                  45
3                  42                  45                  44
3                  44                  45                  47
3                  44                  47                  46
3                  46                  47                  49
3                  46                  49                  48
POINT_DATA                  50
SCALARS mu float 1
LOOKUP_TABLE default
 -0.100775223974E-02
 -0.100775223974E-02
 -0.100809487968E-03
 -0.100809487968E-03
 -0.102985801600E-03
 -0.102985801600E-03
 -0.115510509431E-03
 -0.115510509431E-03
 -0.132795452757E-03
 -0.132795452757E-03
 -0.153736327206E-03
 -0.153736327206E-03
 -0.177347047945E-03
 -0.177347047945E-03
 -0.202131206223E-03
 -0.202131206223E-03
 -0.226152617646E-03
 -0.226152617646E-03
 -0.248065528247E-03
 -0.248065528247E-03
 -0.264466006875E-03
 -0.264466006875E-03
 -0.274100131143E-03
 -0.274100131143E-03
 -0.274161604281E-03
 -0.274161604281E-03
 -0.265626521312E-03
 -0.265626521312E-03
 -0.248095244004E-03
 -0.248095244004E-03
 -0.223076658393E-03
 -0.223076658393E-03
 -0.193014439276E-03
 -0.193014439276E-03
 -0.159460952368E-03
 -0.159460952368E-03
 -0.128066679487E-03
 -0.128066679487E-03
 -0.967189938166E-04
 -0.967189938166E-04
 -0.709130157048E-04
 -0.709130157048E-04
 -0.495822811786E-04
 -0.495822811786E-04
 -0.266438602381E-04
 -0.266438602381E-04
 -0.204922206822E-02
 -0.204922206822E-02
  0.000000000000E+00
  0.000000000000E+00
