# vtk DataFile Version 3.0
TriPan results file. Generated by TriPan, USU AeroLab (c) 2021.
ASCII
DATASET POLYDATA
POINTS                 309 float
  0.145119197349E-04  0.000000000000E+00  0.702222613473E-21
  0.420138497918E+00  0.000000000000E+00 -0.412059144854E+00
  0.420138497918E+00  0.000000000000E+00  0.412059144854E+00
  0.928185622804E+00  0.928162653334E+00  0.370492718948E-21
  0.134831331777E+01  0.928166164882E+00 -0.412060979457E+00
  0.134831331777E+01  0.928166164882E+00  0.412060979457E+00
  0.181353533969E+01  0.000000000000E+00 -0.806793832730E+00
  0.181353533969E+01  0.000000000000E+00  0.806793832730E+00
  0.226198092881E+01  0.226195057449E+01  0.000000000000E+00
  0.268210702775E+01  0.226195568206E+01 -0.412057187748E+00
  0.268210702775E+01  0.226195568206E+01  0.412057187748E+00
  0.274171014569E+01  0.928169171587E+00 -0.806795197448E+00
  0.274171014569E+01  0.928169171587E+00  0.806795197448E+00
  0.407550250541E+01  0.226195991982E+01 -0.806790662114E+00
  0.407550250541E+01  0.226195991982E+01  0.806790662114E+00
  0.413895454185E+01  0.413891468269E+01  0.321459894060E-20
  0.455907863241E+01  0.413892179865E+01 -0.412052224685E+00
  0.455907863241E+01  0.413892179865E+01  0.412052224685E+00
  0.479629669423E+01  0.000000000000E+00 -0.111703721841E+01
  0.479629669423E+01  0.000000000000E+00  0.111703721841E+01
  0.572447154981E+01  0.928172726805E+00 -0.111703822838E+01
  0.572447154981E+01  0.928172726805E+00  0.111703822838E+01
  0.595247250490E+01  0.413892764158E+01 -0.806784693282E+00
  0.595247250490E+01  0.413892764158E+01  0.806784693282E+00
  0.670397027304E+01  0.670391909310E+01  0.247656500064E-20
  0.705826345133E+01  0.226196417166E+01 -0.111703365070E+01
  0.705826345133E+01  0.226196417166E+01  0.111703365070E+01
  0.712409204420E+01  0.670392852846E+01 -0.412046181935E+00
  0.712409204420E+01  0.670392852846E+01  0.412046181935E+00
  0.851748444622E+01  0.670393631870E+01 -0.806777388893E+00
  0.851748444622E+01  0.670393631870E+01  0.806777388893E+00
  0.893523301137E+01  0.413893280970E+01 -0.111702761222E+01
  0.893523301137E+01  0.413893280970E+01  0.111702761222E+01
  0.939523493126E+01  0.000000000000E+00 -0.980728882398E+00
  0.939523493126E+01  0.000000000000E+00  0.980728882398E+00
  0.100722457449E+02  0.100721825083E+02  0.305997667590E-20
  0.103234084887E+02  0.928176637223E+00 -0.980721530569E+00
  0.103234084887E+02  0.928176637223E+00  0.980721530569E+00
  0.104923656357E+02  0.100721943008E+02 -0.412039541942E+00
  0.104923656357E+02  0.100721943008E+02  0.412039541942E+00
  0.115002433555E+02  0.670394260715E+01 -0.111702019620E+01
  0.115002433555E+02  0.670394260715E+01  0.111702019620E+01
  0.116572000425E+02  0.226196842976E+01 -0.980718679272E+00
  0.116572000425E+02  0.226196842976E+01  0.980718679272E+00
  0.118857549503E+02  0.100722042248E+02 -0.806769331235E+00
  0.118857549503E+02  0.100722042248E+02  0.806769331235E+00
  0.135341681758E+02  0.413893754088E+01 -0.980714688122E+00
  0.135341681758E+02  0.413893754088E+01  0.980714688122E+00
  0.139772048849E+02  0.000000000000E+00 -0.540117955762E+00
  0.139772048849E+02  0.000000000000E+00  0.540117955762E+00
  0.142710712716E+02  0.142709972098E+02  0.358380602499E-20
  0.146911892142E+02  0.142710109506E+02 -0.412033276042E+00
  0.146911892142E+02  0.142710109506E+02  0.412033276042E+00
  0.148685126249E+02  0.100722117480E+02 -0.111701198563E+01
  0.148685126249E+02  0.100722117480E+02  0.111701198563E+01
  0.149053790802E+02  0.928177214295E+00 -0.540120306661E+00
  0.149053790802E+02  0.928177214295E+00  0.540120306661E+00
  0.160845774727E+02  0.142710228843E+02 -0.806761707262E+00
  0.160845774727E+02  0.142710228843E+02  0.806761707262E+00
  0.160991788626E+02  0.670394794941E+01 -0.980709307171E+00
  0.160991788626E+02  0.670394794941E+01  0.980709307171E+00
  0.162391706293E+02  0.226196901156E+01 -0.540118505948E+00
  0.162391706293E+02  0.226196901156E+01  0.540118505948E+00
  0.169605804506E+02  0.000000000000E+00 -0.218323365097E+00
  0.169605804506E+02  0.000000000000E+00  0.218323365097E+00
  0.178887555873E+02  0.928176256456E+00 -0.218324870062E+00
  0.178887555873E+02  0.928176256456E+00  0.218324870062E+00
  0.181161386856E+02  0.413893819960E+01 -0.540115296205E+00
  0.181161386856E+02  0.413893819960E+01  0.540115296205E+00
  0.184032178921E+02  0.000000000000E+00 -0.636706128239E-01
  0.184032178921E+02  0.000000000000E+00  0.636706128239E-01
  0.190002907528E+02 -0.840944481527E-07 -0.788455474777E-06
  0.190673339798E+02  0.142710315750E+02 -0.111700419411E+01
  0.190673339798E+02  0.142710315750E+02  0.111700419411E+01
  0.191785074010E+02  0.191784261928E+02  0.261974574614E-20
  0.192225469940E+02  0.226196819618E+01 -0.218321837191E+00
  0.192225469940E+02  0.226196819618E+01  0.218321837191E+00
  0.193313927253E+02  0.928175608321E+00 -0.636692985335E-01
  0.193313927253E+02  0.928175608321E+00  0.636692985335E-01
  0.194674474091E+02  0.100722178131E+02 -0.980702613060E+00
  0.194674474091E+02  0.100722178131E+02  0.980702613060E+00
  0.195986242999E+02  0.191784409772E+02 -0.412028700899E+00
  0.195986242999E+02  0.191784409772E+02  0.412028700899E+00
  0.199284648759E+02  0.928183688477E+00 -0.100715878959E-05
  0.206651820729E+02  0.226196769971E+01 -0.636648302229E-01
  0.206651820729E+02  0.226196769971E+01  0.636648302229E-01
  0.206811482308E+02  0.670394879607E+01 -0.540110142948E+00
  0.206811482308E+02  0.670394879607E+01  0.540110142948E+00
  0.209920110930E+02  0.191784543764E+02 -0.806756130456E+00
  0.209920110930E+02  0.191784543764E+02  0.806756130456E+00
  0.210995148431E+02  0.413893759147E+01 -0.218316865234E+00
  0.210995148431E+02  0.413893759147E+01  0.218316865234E+00
  0.212622529717E+02  0.226197893907E+01 -0.139070631409E-05
  0.225421517127E+02  0.413893721166E+01 -0.636587391445E-01
  0.225421517127E+02  0.413893721166E+01  0.636587391445E-01
  0.231392185671E+02  0.413895249540E+01 -0.188590327224E-05
  0.236645241797E+02  0.670394839650E+01 -0.218310037539E+00
  0.236645241797E+02  0.670394839650E+01  0.218310037539E+00
  0.236662670754E+02  0.142710383750E+02 -0.980695478375E+00
  0.236662670754E+02  0.142710383750E+02  0.980695478375E+00
  0.239747667464E+02  0.191784639207E+02 -0.111699848317E+01
  0.239747667464E+02  0.191784639207E+02  0.111699848317E+01
  0.240494184145E+02  0.100722189299E+02 -0.540103376168E+00
  0.240494184145E+02  0.100722189299E+02  0.540103376168E+00
  0.245000413633E+02  0.244999586367E+02  0.000000000000E+00
  0.249201584372E+02  0.244999732461E+02 -0.412027011240E+00
  0.249201584372E+02  0.244999732461E+02  0.412027011240E+00
  0.251071609793E+02  0.670394808665E+01 -0.636512186147E-01
  0.251071609793E+02  0.670394808665E+01  0.636512186147E-01
  0.257042230406E+02  0.670396816347E+01 -0.247617573531E-05
  0.263135446900E+02  0.244999871856E+02 -0.806754065860E+00
  0.263135446900E+02  0.244999871856E+02  0.806754065860E+00
  0.270327922951E+02  0.100722186912E+02 -0.218302122370E+00
  0.270327922951E+02  0.100722186912E+02  0.218302122370E+00
  0.282482359082E+02  0.142710397571E+02 -0.540096384726E+00
  0.282482359082E+02  0.142710397571E+02  0.540096384726E+00
  0.284754290580E+02  0.100722184182E+02 -0.636429141243E-01
  0.284754290580E+02  0.100722184182E+02  0.636429141243E-01
  0.285736992607E+02  0.191784713021E+02 -0.980689568383E+00
  0.285736992607E+02  0.191784713021E+02  0.980689568383E+00
  0.290724860452E+02  0.100722435691E+02 -0.310492037916E-05
  0.292962981203E+02  0.244999970457E+02 -0.111699636567E+01
  0.292962981203E+02  0.244999970457E+02  0.111699636567E+01
  0.298215722923E+02  0.298214941139E+02 -0.252200432150E-20
  0.302416907090E+02  0.298215073806E+02 -0.412028695858E+00
  0.302416907090E+02  0.298215073806E+02  0.412028695858E+00
  0.312316115874E+02  0.142710396272E+02 -0.218294479658E+00
  0.312316115874E+02  0.142710396272E+02  0.218294479658E+00
  0.316350755952E+02  0.298215207793E+02 -0.806756113011E+00
  0.316350755952E+02  0.298215207793E+02  0.806756113011E+00
  0.326742502400E+02  0.142710393718E+02 -0.636350629714E-01
  0.326742502400E+02  0.142710393718E+02  0.636350629714E-01
  0.331556679204E+02  0.191784728572E+02 -0.540091052704E+00
  0.331556679204E+02  0.191784728572E+02  0.540091052704E+00
  0.332713008060E+02  0.142710690365E+02 -0.366946003233E-05
  0.338952322807E+02  0.245000046883E+02 -0.980686650712E+00
  0.338952322807E+02  0.245000046883E+02  0.980686650712E+00
  0.346178312461E+02  0.298215303261E+02 -0.111699846182E+01
  0.346178312461E+02  0.298215303261E+02  0.111699846182E+01
  0.347290001994E+02  0.347289313192E+02 -0.111102197025E-20
  0.351491207386E+02  0.347289424633E+02 -0.412033265542E+00
  0.351491207386E+02  0.347289424633E+02  0.412033265542E+00
  0.361390435369E+02  0.191784727900E+02 -0.218288838176E+00
  0.361390435369E+02  0.191784727900E+02  0.218288838176E+00
  0.365425070906E+02  0.347289543962E+02 -0.806761672327E+00
  0.365425070906E+02  0.347289543962E+02  0.806761672327E+00
  0.375816821825E+02  0.191784725416E+02 -0.636293256172E-01
  0.375816821825E+02  0.191784725416E+02  0.636293256172E-01
  0.381787298283E+02  0.191785051266E+02 -0.404213918334E-05
  0.384772009150E+02  0.245000062688E+02 -0.540089009297E+00
  0.384772009150E+02  0.245000062688E+02  0.540089009297E+00
  0.389278125514E+02  0.389277553808E+02 -0.922149802381E-21
  0.392167655509E+02  0.298215378243E+02 -0.980687720153E+00
  0.392167655509E+02  0.298215378243E+02  0.980687720153E+00
  0.393479354844E+02  0.389277641311E+02 -0.412039525323E+00
  0.393479354844E+02  0.389277641311E+02  0.412039525323E+00
  0.395252635926E+02  0.347289630920E+02 -0.111700415312E+01
  0.395252635926E+02  0.347289630920E+02  0.111700415312E+01
  0.407413276606E+02  0.389277740545E+02 -0.806769279584E+00
  0.407413276606E+02  0.389277740545E+02  0.806769279584E+00
  0.414605765133E+02  0.245000062199E+02 -0.218286729666E+00
[...]
POINT_DATA                 309
SCALARS phi float 1
LOOKUP_TABLE default
 -0.111022302463E-15
 -0.666133814775E-15
 -0.333066907388E-15
 -0.333066907388E-15
 -0.444089209850E-15
  0.222044604925E-15
 -0.122124532709E-14
  0.000000000000E+00
 -0.999200722163E-15
 -0.777156117238E-15
 -0.222044604925E-15
 -0.333066907388E-15
  0.444089209850E-15
  0.444089209850E-15
 -0.111022302463E-15
 -0.111022302463E-15
  0.666133814775E-15
 -0.666133814775E-15
 -0.666133814775E-15
 -0.555111512313E-16
 -0.133226762955E-14
 -0.555111512313E-15
 -0.122124532709E-14
 -0.222044604925E-15
  0.222044604925E-15
  0.111022302463E-15
 -0.444089209850E-15
  0.222044604925E-15
 -0.222044604925E-15
  0.666133814775E-15
 -0.444089209850E-15
 -0.555111512313E-15
 -0.360822483003E-15
  0.555111512313E-15
  0.319189119580E-15
  0.999200722163E-15
  0.832667268469E-15
 -0.333066907388E-15
  0.155431223448E-14
 -0.222044604925E-15
  0.133226762955E-14
  0.388578058619E-15
 -0.416333634234E-15
  0.222044604925E-15
  0.777156117238E-15
  0.555111512313E-16
  0.263677968348E-15
  0.111022302463E-15
  0.555111512313E-16
 -0.333066907388E-15
  0.555111512313E-15
 -0.111022302463E-15
 -0.333066907388E-15
 -0.555111512313E-16
  0.000000000000E+00
 -0.555111512313E-16
  0.721644966006E-15
 -0.888178419700E-15
  0.166533453694E-15
  0.832667268469E-16
  0.832667268469E-16
 -0.333066907388E-15
  0.555111512313E-16
  0.666133814775E-15
 -0.166533453694E-15
 -0.122124532709E-14
 -0.721644966006E-15
 -0.222044604925E-15
 -0.388578058619E-15
  0.999200722163E-15
 -0.499600361081E-15
 -0.555111512313E-16
 -0.555111512313E-16
 -0.277555756156E-16
  0.000000000000E+00
  0.166533453694E-15
  0.610622663544E-15
 -0.721644966006E-15
 -0.388578058619E-15
 -0.655725473919E-15
 -0.721644966006E-15
 -0.999200722163E-15
  0.000000000000E+00
  0.444089209850E-15
  0.444089209850E-15
  0.166533453694E-15
 -0.444089209850E-15
  0.172084568817E-14
  0.111022302463E-15
 -0.721644966006E-15
  0.555111512313E-15
 -0.888178419700E-15
 -0.888178419700E-15
 -0.388578058619E-15
  0.000000000000E+00
 -0.388578058619E-15
  0.333066907388E-15
 -0.111022302463E-15
  0.402455846427E-15
 -0.721644966006E-15
 -0.111022302463E-15
  0.138777878078E-16
 -0.555111512313E-16
 -0.999200722163E-15
 -0.666133814775E-15
 -0.333066907388E-15
 -0.111022302463E-15
  0.277555756156E-15
  0.388578058619E-15
  0.666133814775E-15
  0.210942374679E-14
 -0.555111512313E-16
 -0.166533453694E-15
 -0.388578058619E-15
  0.999200722163E-15
 -0.444089209850E-15
  0.555111512313E-16
  0.277555756156E-15
 -0.333066907388E-15
  0.555111512313E-16
  0.666133814775E-15
  0.666133814775E-15
 -0.333066907388E-15
  0.555111512313E-15
  0.000000000000E+00
 -0.888178419700E-15
 -0.111022302463E-15
 -0.333066907388E-15
 -0.555111512313E-15
  0.222044604925E-15
  0.000000000000E+00
 -0.333066907388E-15
  0.000000000000E+00
  0.166533453694E-14
 -0.333066907388E-15
  0.166533453694E-15
  0.555111512313E-16
 -0.333066907388E-15
 -0.194289029309E-15
 -0.133226762955E-14
 -0.155431223448E-14
  0.555111512313E-15
 -0.721644966006E-15
 -0.499600361081E-15
 -0.666133814775E-15
  0.444089209850E-15
  0.555111512313E-15
  0.111022302463E-15
  0.721644966006E-15
 -0.388578058619E-15
 -0.666133814775E-15
 -0.133226762955E-14
 -0.693889390391E-16
 -0.277555756156E-15
 -0.777156117238E-15
 -0.333066907388E-15
  0.105471187339E-14
  0.208166817117E-16
  0.144328993201E-14
  0.222044604925E-15
  0.555111512313E-15
  0.111022302463E-15
  0.222044604925E-15
 -0.333066907388E-15
  0.333066907388E-15
 -0.555111512313E-16
 -0.555111512313E-16
 -0.111022302463E-15
 -0.222044604925E-15
  0.333066907388E-15
 -0.555111512313E-16
  0.555111512313E-15
 -0.222044604925E-15
  0.499600361081E-15
  0.277555756156E-16
  0.111022302463E-15
  0.333066907388E-15
  0.333066907388E-15
  0.111022302463E-15
  0.555111512313E-16
  0.333066907388E-15
  0.188737914186E-14
 -0.999200722163E-15
 -0.166533453694E-15
 -0.555111512313E-16
 -0.511309744544E-15
 -0.111022302463E-15
  0.000000000000E+00
 -0.610622663544E-15
  0.555111512313E-16
  0.333066907388E-15
 -0.111022302463E-15
 -0.832667268469E-15
 -0.666133814775E-15
  0.222044604925E-15
 -0.277555756156E-15
 -0.166533453694E-15
 -0.444089209850E-15
 -0.333066907388E-15
 -0.721644966006E-15
  0.111022302463E-15
  0.555111512313E-15
  0.499600361081E-15
 -0.555111512313E-16
  0.346944695195E-16
 -0.444089209850E-15
  0.388578058619E-15
 -0.166533453694E-15
  0.111022302463E-15
  0.166533453694E-15
 -0.555111512313E-16
 -0.138777878078E-15
  0.416333634234E-15
 -0.124900090270E-15
 -0.111022302463E-15
  0.374700270811E-15
  0.360822483003E-15
 -0.555111512313E-15
  0.111022302463E-15
 -0.416333634234E-15
  0.666133814775E-15
  0.138777878078E-15
  0.166533453694E-15
 -0.499600361081E-15
  0.555111512313E-15
 -0.610622663544E-15
  0.499600361081E-15
  0.444089209850E-15
 -0.277555756156E-15
  0.000000000000E+00
  0.222044604925E-15
 -0.133226762955E-14
  0.867361737988E-16
 -0.388578058619E-15
  0.555111512313E-16
 -0.277555756156E-15
 -0.222044604925E-15
  0.305311331772E-15
  0.116573417586E-14
 -0.444089209850E-15
  0.222044604925E-15
  0.388578058619E-15
 -0.555111512313E-16
 -0.249800180541E-15
  0.166533453694E-15
  0.333066907388E-15
 -0.555111512313E-16
  0.777156117238E-15
  0.277555756156E-15
  0.155431223448E-14
  0.194289029309E-15
  0.111022302463E-15
 -0.499600361081E-15
 -0.777156117238E-15
 -0.333066907388E-15
  0.111022302463E-15
  0.388578058619E-15
 -0.111022302463E-15
  0.222044604925E-15
 -0.499600361081E-15
  0.555111512313E-16
 -0.555111512313E-15
  0.555111512313E-16
 -0.111022302463E-15
  0.111022302463E-15
  0.444089209850E-15
  0.222044604925E-15
 -0.222044604925E-15
  0.555111512313E-16
 -0.610622663544E-15
 -0.666133814775E-15
  0.277555756156E-15
 -0.111022302463E-15
 -0.277555756156E-15
  0.166533453694E-15
  0.222044604925E-15
 -0.222044604925E-15
  0.555111512313E-16
 -0.222044604925E-15
 -0.555111512313E-15
 -0.166533453694E-15
  0.277555756156E-15
 -0.111022302463E-15
 -0.166533453694E-15
  0.000000000000E+00
  0.277555756156E-15
 -0.333066907388E-15
  0.915933995316E-15
  0.444089209850E-15
  0.119348975147E-14
 -0.119348975147E-14
 -0.416333634234E-15
 -0.138777878078E-15
 -0.721644966006E-15
  0.555111512313E-15
 -0.832667268469E-15
 -0.388578058619E-15
  0.444089209850E-15
  0.222044604925E-15
 -0.333066907388E-15
 -0.277555756156E-15
  0.111022302463E-14
 -0.277555756156E-15
  0.000000000000E+00
  0.166533453694E-15
 -0.111022302463E-15
 -0.721644966006E-15
  0.555111512313E-16
  0.000000000000E+00
SCALARS phi_mu float 1
LOOKUP_TABLE default
  0.666395259446E+00
  0.768065621166E+00
  0.710787608565E+00
  0.800934723542E+00
  0.841966025155E+00
  0.761217266252E+00
  0.823483339220E+00
  0.674086925762E+00
  0.823178566509E+00
  0.852801540897E+00
  0.765994353456E+00
  0.817616065892E+00
  0.648237998571E+00
  0.794583030185E+00
  0.616535195877E+00
  0.806869029586E+00
  0.830242758791E+00
  0.740974368894E+00
  0.695699179645E+00
  0.454714081446E+00
  0.631259734240E+00
  0.381078516347E+00
  0.751863444638E+00
  0.570102775033E+00
  0.768127848937E+00
  0.567102473956E+00
  0.312186222829E+00
  0.788180186891E+00
  0.698004571284E+00
  0.699824503032E+00
  0.516826435302E+00
  0.499584833828E+00
  0.242978666614E+00
  0.294689296958E+00
  0.432332360303E-01
  0.724262595725E+00
  0.217263420072E+00
 -0.319204293485E-01
  0.743137413594E+00
  0.652741488096E+00
  0.437269692453E+00
  0.180598783994E+00
  0.141503044151E+00
 -0.104798030625E+00
  0.651919104418E+00
  0.468741654588E+00
  0.736333011089E-01
 -0.170215820931E+00
 -0.132628067261E+00
 -0.295152864339E+00
  0.688702639923E+00
  0.707576834950E+00
  0.617194524230E+00
  0.389870742983E+00
  0.133632715629E+00
 -0.186387380736E+00
 -0.341738454843E+00
  0.616980023194E+00
  0.433922677671E+00
  0.223093905306E-01
 -0.219875200719E+00
 -0.233119015970E+00
 -0.383750674707E+00
 -0.340485023570E+00
 -0.414051503557E+00
 -0.362110337365E+00
 -0.429423412250E+00
 -0.266802076522E+00
 -0.415002963200E+00
 -0.398163416382E+00
 -0.421763325102E+00
 -0.397694536101E+00
  0.358929384532E+00
  0.103073641837E+00
  0.664418226668E+00
 -0.371228350718E+00
 -0.436475583489E+00
 -0.387969248932E+00
 -0.408623052638E+00
 -0.110927403792E-01
 -0.252349436765E+00
  0.683555268355E+00
  0.593226497967E+00
 -0.367500763774E+00
 -0.381094002708E+00
 -0.401312733011E+00
 -0.289338749819E+00
 -0.436413140011E+00
  0.594066752085E+00
  0.411142637705E+00
 -0.378273877527E+00
 -0.442722213857E+00
 -0.357922369186E+00
 -0.381167288496E+00
 -0.401202056661E+00
 -0.356280985631E+00
 -0.386589690810E+00
 -0.450675878527E+00
 -0.323856524218E-01
 -0.273176194714E+00
  0.339036020555E+00
  0.834238572829E-01
 -0.305635998041E+00
 -0.452196820153E+00
  0.647612667377E+00
  0.666920708933E+00
  0.576640117931E+00
 -0.385477326629E+00
 -0.405420163302E+00
 -0.359361348927E+00
  0.578086933302E+00
  0.395267023797E+00
 -0.395465517531E+00
 -0.459375255821E+00
 -0.318276250695E+00
 -0.464589934525E+00
 -0.391894252111E+00
 -0.411788682439E+00
 -0.472178995883E-01
 -0.287761303420E+00
 -0.364935797722E+00
  0.324577974618E+00
  0.691323962748E-01
  0.634008405289E+00
  0.653355811581E+00
  0.563121997371E+00
 -0.404128833416E+00
 -0.467947397203E+00
  0.564701820946E+00
  0.381980689919E+00
 -0.399069151318E+00
 -0.418936768190E+00
 -0.328844694733E+00
 -0.475023486521E+00
 -0.371566840127E+00
 -0.593475489185E-01
 -0.299725139163E+00
  0.311608489156E+00
  0.563217667459E-01
  0.620455433506E+00
  0.639702480477E+00
  0.549529129526E+00
 -0.412529958199E+00
 -0.476295336361E+00
  0.550763421155E+00
  0.368172932727E+00
 -0.406575131308E+00
 -0.426426326996E+00
 -0.378728182435E+00
 -0.338888939334E+00
 -0.484969649440E+00
  0.604590234301E+00
 -0.716003205536E-01
 -0.311805512130E+00
  0.623538017292E+00
  0.533461399073E+00
  0.297087073767E+00
  0.420266506148E-01
  0.533667804039E+00
  0.351296064086E+00
 -0.421317202496E+00
 -0.485041124049E+00
  0.584454773178E+00
  0.602755727866E+00
  0.512849648514E+00
 -0.414760848471E+00
 -0.434599303820E+00
 -0.386662985778E+00
  0.278038534388E+00
  0.233988150322E-01
 -0.350109169285E+00
 -0.496074177522E+00
  0.510809085744E+00
  0.328849483359E+00
 -0.866269072953E-01
 -0.326550791185E+00
  0.558277401772E+00
  0.575275862989E+00
  0.485684802421E+00
  0.479033748705E+00
  0.297915932464E+00
  0.524111267939E+00
 -0.431477371756E+00
 -0.495148828761E+00
  0.250881481628E+00
 -0.284552914357E-02
  0.538488414359E+00
  0.449517956904E+00
  0.478283555696E+00
 -0.424248474763E+00
 -0.444071258294E+00
 -0.107206332776E+00
 -0.346522373871E+00
  0.486877896340E+00
  0.399389897141E+00
  0.433571815857E+00
  0.254422242603E+00
 -0.364108898006E+00
 -0.509860710443E+00
 -0.395836820538E+00
  0.399305669504E+00
  0.394885566682E+00
  0.315724477229E+00
  0.211362315330E+00
 -0.401011000057E-01
  0.339509597697E+00
  0.286800490526E+00
  0.297924058512E+00
  0.367276165843E+00
  0.194156845581E+00
  0.280559080480E+00
  0.128846501998E+00
  0.203603911691E+00
  0.107055809542E+00
  0.158957349941E+00
 -0.863583426463E-01
  0.137710769066E+00
 -0.443317425097E+00
 -0.506887644017E+00
 -0.134935163914E+00
 -0.372729174539E+00
  0.104189598945E+00
 -0.126521007199E+00
 -0.380788466138E+00
 -0.526045745189E+00
 -0.434548052299E+00
 -0.454340592007E+00
 -0.405406525754E+00
  0.526207270724E-01
 -0.148988763421E+00
 -0.165020142025E+00
 -0.398964547798E+00
 -0.165096394079E-01
 -0.142254396390E+00
 -0.923430980865E-01
 -0.453535639885E+00
 -0.516875055991E+00
 -0.187116526317E+00
 -0.412574449104E+00
 -0.394158010816E+00
 -0.538233676225E+00
 -0.440825463131E+00
 -0.460549852380E+00
 -0.198380607394E+00
 -0.407743148747E+00
 -0.409962348439E+00
 -0.205132248421E+00
 -0.385443626471E+00
 -0.393375071951E+00
 -0.534926839093E+00
 -0.232654950388E+00
 -0.344031947883E+00
 -0.452574189883E+00
 -0.515414876535E+00
 -0.287703120577E+00
 -0.432997710184E+00
 -0.452582136575E+00
 -0.374410905333E+00
 -0.511076693815E+00
 -0.399457127516E+00
 -0.431787693571E+00
 -0.493691636124E+00
 -0.342821006473E+00
 -0.469797838517E+00
 -0.309264966529E+00
 -0.413308214583E+00
 -0.404656520718E+00
 -0.423995773557E+00
 -0.307479252472E+00
 -0.371803117392E+00
 -0.332169994331E+00
 -0.391843143013E+00
 -0.452096356541E+00
 -0.368590733214E+00
 -0.339056604965E+00
 -0.395968300215E+00
 -0.358826378961E+00
 -0.377768276115E+00
 -0.321492253210E+00
 -0.280581555128E+00
 -0.323808041731E+00
 -0.274939457769E+00
 -0.301722899788E+00
 -0.283238022337E+00
 -0.301820089433E+00
 -0.320034141754E+00
 -0.265154146086E+00
 -0.232649152591E+00
 -0.245492591267E+00
 -0.229751878730E+00
 -0.237727805670E+00
 -0.231728194285E+00
 -0.196199655234E+00
 -0.397694968706E+00
 -0.367501012949E+00
 -0.357922700309E+00
 -0.356281426864E+00
 -0.359361923454E+00
 -0.364936515466E+00
 -0.371567686979E+00
 -0.378729114192E+00
 -0.386663934020E+00
 -0.395837710921E+00
 -0.405407299434E+00
 -0.409962975599E+00
 -0.399457608662E+00
 -0.368591088920E+00
 -0.321492510992E+00
 -0.265154332530E+00
SCALARS phi_sigma float 1
LOOKUP_TABLE default
 -0.666395259446E+00
 -0.768065621166E+00
 -0.710787608565E+00
 -0.800934723542E+00
 -0.841966025155E+00
 -0.761217266252E+00
 -0.823483339220E+00
 -0.674086925762E+00
 -0.823178566509E+00
 -0.852801540897E+00
 -0.765994353456E+00
 -0.817616065892E+00
 -0.648237998571E+00
 -0.794583030185E+00
 -0.616535195877E+00
 -0.806869029586E+00
 -0.830242758791E+00
 -0.740974368894E+00
 -0.695699179645E+00
 -0.454714081446E+00
 -0.631259734240E+00
 -0.381078516347E+00
 -0.751863444638E+00
 -0.570102775033E+00
 -0.768127848937E+00
 -0.567102473956E+00
 -0.312186222829E+00
 -0.788180186891E+00
 -0.698004571284E+00
 -0.699824503032E+00
 -0.516826435302E+00
 -0.499584833828E+00
 -0.242978666614E+00
 -0.294689296958E+00
 -0.432332360303E-01
 -0.724262595725E+00
 -0.217263420072E+00
  0.319204293485E-01
 -0.743137413594E+00
 -0.652741488096E+00
 -0.437269692453E+00
 -0.180598783994E+00
 -0.141503044151E+00
  0.104798030625E+00
 -0.651919104418E+00
 -0.468741654588E+00
 -0.736333011089E-01
  0.170215820931E+00
  0.132628067261E+00
  0.295152864339E+00
 -0.688702639923E+00
 -0.707576834950E+00
 -0.617194524230E+00
 -0.389870742983E+00
 -0.133632715629E+00
  0.186387380736E+00
  0.341738454843E+00
 -0.616980023194E+00
 -0.433922677671E+00
 -0.223093905306E-01
  0.219875200719E+00
  0.233119015970E+00
  0.383750674707E+00
  0.340485023570E+00
  0.414051503557E+00
  0.362110337365E+00
  0.429423412250E+00
  0.266802076522E+00
  0.415002963200E+00
  0.398163416382E+00
  0.421763325102E+00
  0.397694536101E+00
 -0.358929384532E+00
 -0.103073641837E+00
 -0.664418226668E+00
  0.371228350718E+00
  0.436475583489E+00
  0.387969248932E+00
  0.408623052638E+00
  0.110927403792E-01
  0.252349436765E+00
 -0.683555268355E+00
 -0.593226497967E+00
  0.367500763774E+00
  0.381094002708E+00
  0.401312733011E+00
  0.289338749819E+00
  0.436413140011E+00
 -0.594066752085E+00
 -0.411142637705E+00
  0.378273877527E+00
  0.442722213857E+00
  0.357922369186E+00
  0.381167288496E+00
  0.401202056661E+00
  0.356280985631E+00
  0.386589690810E+00
  0.450675878527E+00
  0.323856524218E-01
  0.273176194714E+00
 -0.339036020555E+00
 -0.834238572829E-01
  0.305635998041E+00
  0.452196820153E+00
 -0.647612667377E+00
 -0.666920708933E+00
 -0.576640117931E+00
  0.385477326629E+00
  0.405420163302E+00
  0.359361348927E+00
 -0.578086933302E+00
 -0.395267023797E+00
  0.395465517531E+00
  0.459375255821E+00
  0.318276250695E+00
  0.464589934525E+00
  0.391894252111E+00
  0.411788682439E+00
  0.472178995883E-01
  0.287761303420E+00
  0.364935797722E+00
 -0.324577974618E+00
 -0.691323962748E-01
 -0.634008405289E+00
 -0.653355811581E+00
 -0.563121997371E+00
  0.404128833416E+00
  0.467947397203E+00
 -0.564701820946E+00
 -0.381980689919E+00
  0.399069151318E+00
  0.418936768190E+00
  0.328844694733E+00
  0.475023486521E+00
  0.371566840127E+00
  0.593475489185E-01
  0.299725139163E+00
 -0.311608489156E+00
 -0.563217667459E-01
 -0.620455433506E+00
 -0.639702480477E+00
 -0.549529129526E+00
  0.412529958199E+00
  0.476295336361E+00
 -0.550763421155E+00
 -0.368172932727E+00
  0.406575131308E+00
  0.426426326996E+00
  0.378728182435E+00
  0.338888939334E+00
  0.484969649440E+00
 -0.604590234301E+00
  0.716003205536E-01
  0.311805512130E+00
 -0.623538017292E+00
 -0.533461399073E+00
 -0.297087073767E+00
 -0.420266506148E-01
 -0.533667804039E+00
 -0.351296064086E+00
  0.421317202496E+00
  0.485041124049E+00
 -0.584454773178E+00
 -0.602755727866E+00
 -0.512849648514E+00
  0.414760848471E+00
  0.434599303820E+00
  0.386662985778E+00
 -0.278038534388E+00
 -0.233988150322E-01
  0.350109169285E+00
  0.496074177522E+00
 -0.510809085744E+00
 -0.328849483359E+00
  0.866269072953E-01
  0.326550791185E+00
 -0.558277401772E+00
 -0.575275862989E+00
 -0.485684802421E+00
 -0.479033748705E+00
 -0.297915932464E+00
 -0.524111267939E+00
  0.431477371756E+00
  0.495148828761E+00
 -0.250881481628E+00
  0.284552914357E-02
 -0.538488414359E+00
 -0.449517956904E+00
 -0.478283555696E+00
  0.424248474763E+00
  0.444071258294E+00
  0.107206332776E+00
  0.346522373871E+00
 -0.486877896340E+00
 -0.399389897141E+00
 -0.433571815857E+00
 -0.254422242603E+00
  0.364108898006E+00
  0.509860710443E+00
  0.395836820538E+00
 -0.399305669504E+00
 -0.394885566682E+00
 -0.315724477229E+00
 -0.211362315330E+00
  0.401011000057E-01
 -0.339509597697E+00
 -0.286800490526E+00
 -0.297924058512E+00
 -0.367276165843E+00
 -0.194156845581E+00
 -0.280559080480E+00
 -0.128846501998E+00
 -0.203603911691E+00
 -0.107055809542E+00
 -0.158957349941E+00
  0.863583426463E-01
 -0.137710769066E+00
  0.443317425097E+00
  0.506887644017E+00
  0.134935163914E+00
  0.372729174539E+00
 -0.104189598945E+00
  0.126521007199E+00
  0.380788466138E+00
  0.526045745189E+00
  0.434548052299E+00
  0.454340592007E+00
  0.405406525754E+00
 -0.526207270724E-01
  0.148988763421E+00
  0.165020142025E+00
  0.398964547798E+00
  0.165096394079E-01
  0.142254396390E+00
  0.923430980865E-01
  0.453535639885E+00
  0.516875055991E+00
  0.187116526317E+00
  0.412574449104E+00
  0.394158010816E+00
  0.538233676225E+00
  0.440825463131E+00
  0.460549852380E+00
  0.198380607394E+00
  0.407743148747E+00
  0.409962348439E+00
  0.205132248421E+00
  0.385443626471E+00
  0.393375071951E+00
  0.534926839093E+00
  0.232654950388E+00
  0.344031947883E+00
  0.452574189883E+00
  0.515414876535E+00
  0.287703120577E+00
  0.432997710184E+00
  0.452582136575E+00
  0.374410905333E+00
  0.511076693815E+00
  0.399457127516E+00
  0.431787693571E+00
  0.493691636124E+00
  0.342821006473E+00
  0.469797838517E+00
  0.309264966529E+00
  0.413308214583E+00
  0.404656520718E+00
  0.423995773557E+00
  0.307479252472E+00
  0.371803117392E+00
  0.332169994331E+00
  0.391843143013E+00
  0.452096356541E+00
  0.368590733214E+00
  0.339056604965E+00
  0.395968300215E+00
  0.358826378961E+00
  0.377768276115E+00
  0.321492253210E+00
  0.280581555128E+00
  0.323808041731E+00
  0.274939457769E+00
  0.301722899788E+00
  0.283238022337E+00
  0.301820089433E+00
  0.320034141754E+00
  0.265154146086E+00
  0.232649152591E+00
  0.245492591267E+00
  0.229751878730E+00
  0.237727805670E+00
  0.231728194285E+00
  0.196199655234E+00
  0.397694968706E+00
  0.367501012949E+00
  0.357922700309E+00
  0.356281426864E+00
  0.359361923454E+00
  0.364936515466E+00
  0.371567686979E+00
  0.378729114192E+00
  0.386663934020E+00
  0.395837710921E+00
  0.405407299434E+00
  0.409962975599E+00
  0.399457608662E+00
  0.368591088920E+00
  0.321492510992E+00
  0.265154332530E+00
