# vtk DataFile Version 3.0
TriPan results file. Generated by TriPan, USU AeroLab (c) 2021.
ASCII
DATASET POLYDATA
POINTS                 309 float
  0.145119197349E-04  0.000000000000E+00  0.702222613473E-21
  0.420138497918E+00  0.000000000000E+00 -0.412059144854E+00
  0.420138497918E+00  0.000000000000E+00  0.412059144854E+00
  0.928185622804E+00  0.928162653334E+00  0.370492718948E-21
  0.134831331777E+01  0.928166164882E+00 -0.412060979457E+00
  0.134831331777E+01  0.928166164882E+00  0.412060979457E+00
  0.181353533969E+01  0.000000000000E+00 -0.806793832730E+00
  0.181353533969E+01  0.000000000000E+00  0.806793832730E+00
  0.226198092881E+01  0.226195057449E+01  0.000000000000E+00
  0.268210702775E+01  0.226195568206E+01 -0.412057187748E+00
  0.268210702775E+01  0.226195568206E+01  0.412057187748E+00
  0.274171014569E+01  0.928169171587E+00 -0.806795197448E+00
  0.274171014569E+01  0.928169171587E+00  0.806795197448E+00
  0.407550250541E+01  0.226195991982E+01 -0.806790662114E+00
  0.407550250541E+01  0.226195991982E+01  0.806790662114E+00
  0.413895454185E+01  0.413891468269E+01  0.321459894060E-20
  0.455907863241E+01  0.413892179865E+01 -0.412052224685E+00
  0.455907863241E+01  0.413892179865E+01  0.412052224685E+00
  0.479629669423E+01  0.000000000000E+00 -0.111703721841E+01
  0.479629669423E+01  0.000000000000E+00  0.111703721841E+01
  0.572447154981E+01  0.928172726805E+00 -0.111703822838E+01
  0.572447154981E+01  0.928172726805E+00  0.111703822838E+01
  0.595247250490E+01  0.413892764158E+01 -0.806784693282E+00
  0.595247250490E+01  0.413892764158E+01  0.806784693282E+00
  0.670397027304E+01  0.670391909310E+01  0.247656500064E-20
  0.705826345133E+01  0.226196417166E+01 -0.111703365070E+01
  0.705826345133E+01  0.226196417166E+01  0.111703365070E+01
  0.712409204420E+01  0.670392852846E+01 -0.412046181935E+00
  0.712409204420E+01  0.670392852846E+01  0.412046181935E+00
  0.851748444622E+01  0.670393631870E+01 -0.806777388893E+00
  0.851748444622E+01  0.670393631870E+01  0.806777388893E+00
  0.893523301137E+01  0.413893280970E+01 -0.111702761222E+01
  0.893523301137E+01  0.413893280970E+01  0.111702761222E+01
  0.939523493126E+01  0.000000000000E+00 -0.980728882398E+00
  0.939523493126E+01  0.000000000000E+00  0.980728882398E+00
  0.100722457449E+02  0.100721825083E+02  0.305997667590E-20
  0.103234084887E+02  0.928176637223E+00 -0.980721530569E+00
  0.103234084887E+02  0.928176637223E+00  0.980721530569E+00
  0.104923656357E+02  0.100721943008E+02 -0.412039541942E+00
  0.104923656357E+02  0.100721943008E+02  0.412039541942E+00
  0.115002433555E+02  0.670394260715E+01 -0.111702019620E+01
  0.115002433555E+02  0.670394260715E+01  0.111702019620E+01
  0.116572000425E+02  0.226196842976E+01 -0.980718679272E+00
  0.116572000425E+02  0.226196842976E+01  0.980718679272E+00
  0.118857549503E+02  0.100722042248E+02 -0.806769331235E+00
  0.118857549503E+02  0.100722042248E+02  0.806769331235E+00
  0.135341681758E+02  0.413893754088E+01 -0.980714688122E+00
  0.135341681758E+02  0.413893754088E+01  0.980714688122E+00
  0.139772048849E+02  0.000000000000E+00 -0.540117955762E+00
  0.139772048849E+02  0.000000000000E+00  0.540117955762E+00
  0.142710712716E+02  0.142709972098E+02  0.358380602499E-20
  0.146911892142E+02  0.142710109506E+02 -0.412033276042E+00
  0.146911892142E+02  0.142710109506E+02  0.412033276042E+00
  0.148685126249E+02  0.100722117480E+02 -0.111701198563E+01
  0.148685126249E+02  0.100722117480E+02  0.111701198563E+01
  0.149053790802E+02  0.928177214295E+00 -0.540120306661E+00
  0.149053790802E+02  0.928177214295E+00  0.540120306661E+00
  0.160845774727E+02  0.142710228843E+02 -0.806761707262E+00
  0.160845774727E+02  0.142710228843E+02  0.806761707262E+00
  0.160991788626E+02  0.670394794941E+01 -0.980709307171E+00
  0.160991788626E+02  0.670394794941E+01  0.980709307171E+00
  0.162391706293E+02  0.226196901156E+01 -0.540118505948E+00
  0.162391706293E+02  0.226196901156E+01  0.540118505948E+00
  0.169605804506E+02  0.000000000000E+00 -0.218323365097E+00
  0.169605804506E+02  0.000000000000E+00  0.218323365097E+00
  0.178887555873E+02  0.928176256456E+00 -0.218324870062E+00
  0.178887555873E+02  0.928176256456E+00  0.218324870062E+00
  0.181161386856E+02  0.413893819960E+01 -0.540115296205E+00
  0.181161386856E+02  0.413893819960E+01  0.540115296205E+00
  0.184032178921E+02  0.000000000000E+00 -0.636706128239E-01
  0.184032178921E+02  0.000000000000E+00  0.636706128239E-01
  0.190002907528E+02 -0.840944481527E-07 -0.788455474777E-06
  0.190673339798E+02  0.142710315750E+02 -0.111700419411E+01
  0.190673339798E+02  0.142710315750E+02  0.111700419411E+01
  0.191785074010E+02  0.191784261928E+02  0.261974574614E-20
  0.192225469940E+02  0.226196819618E+01 -0.218321837191E+00
  0.192225469940E+02  0.226196819618E+01  0.218321837191E+00
  0.193313927253E+02  0.928175608321E+00 -0.636692985335E-01
  0.193313927253E+02  0.928175608321E+00  0.636692985335E-01
  0.194674474091E+02  0.100722178131E+02 -0.980702613060E+00
  0.194674474091E+02  0.100722178131E+02  0.980702613060E+00
  0.195986242999E+02  0.191784409772E+02 -0.412028700899E+00
  0.195986242999E+02  0.191784409772E+02  0.412028700899E+00
  0.199284648759E+02  0.928183688477E+00 -0.100715878959E-05
  0.206651820729E+02  0.226196769971E+01 -0.636648302229E-01
  0.206651820729E+02  0.226196769971E+01  0.636648302229E-01
  0.206811482308E+02  0.670394879607E+01 -0.540110142948E+00
  0.206811482308E+02  0.670394879607E+01  0.540110142948E+00
  0.209920110930E+02  0.191784543764E+02 -0.806756130456E+00
  0.209920110930E+02  0.191784543764E+02  0.806756130456E+00
  0.210995148431E+02  0.413893759147E+01 -0.218316865234E+00
  0.210995148431E+02  0.413893759147E+01  0.218316865234E+00
  0.212622529717E+02  0.226197893907E+01 -0.139070631409E-05
  0.225421517127E+02  0.413893721166E+01 -0.636587391445E-01
  0.225421517127E+02  0.413893721166E+01  0.636587391445E-01
  0.231392185671E+02  0.413895249540E+01 -0.188590327224E-05
  0.236645241797E+02  0.670394839650E+01 -0.218310037539E+00
  0.236645241797E+02  0.670394839650E+01  0.218310037539E+00
  0.236662670754E+02  0.142710383750E+02 -0.980695478375E+00
  0.236662670754E+02  0.142710383750E+02  0.980695478375E+00
  0.239747667464E+02  0.191784639207E+02 -0.111699848317E+01
  0.239747667464E+02  0.191784639207E+02  0.111699848317E+01
  0.240494184145E+02  0.100722189299E+02 -0.540103376168E+00
  0.240494184145E+02  0.100722189299E+02  0.540103376168E+00
  0.245000413633E+02  0.244999586367E+02  0.000000000000E+00
  0.249201584372E+02  0.244999732461E+02 -0.412027011240E+00
  0.249201584372E+02  0.244999732461E+02  0.412027011240E+00
  0.251071609793E+02  0.670394808665E+01 -0.636512186147E-01
  0.251071609793E+02  0.670394808665E+01  0.636512186147E-01
  0.257042230406E+02  0.670396816347E+01 -0.247617573531E-05
  0.263135446900E+02  0.244999871856E+02 -0.806754065860E+00
  0.263135446900E+02  0.244999871856E+02  0.806754065860E+00
  0.270327922951E+02  0.100722186912E+02 -0.218302122370E+00
  0.270327922951E+02  0.100722186912E+02  0.218302122370E+00
  0.282482359082E+02  0.142710397571E+02 -0.540096384726E+00
  0.282482359082E+02  0.142710397571E+02  0.540096384726E+00
  0.284754290580E+02  0.100722184182E+02 -0.636429141243E-01
  0.284754290580E+02  0.100722184182E+02  0.636429141243E-01
  0.285736992607E+02  0.191784713021E+02 -0.980689568383E+00
  0.285736992607E+02  0.191784713021E+02  0.980689568383E+00
  0.290724860452E+02  0.100722435691E+02 -0.310492037916E-05
  0.292962981203E+02  0.244999970457E+02 -0.111699636567E+01
  0.292962981203E+02  0.244999970457E+02  0.111699636567E+01
  0.298215722923E+02  0.298214941139E+02 -0.252200432150E-20
  0.302416907090E+02  0.298215073806E+02 -0.412028695858E+00
  0.302416907090E+02  0.298215073806E+02  0.412028695858E+00
  0.312316115874E+02  0.142710396272E+02 -0.218294479658E+00
  0.312316115874E+02  0.142710396272E+02  0.218294479658E+00
  0.316350755952E+02  0.298215207793E+02 -0.806756113011E+00
  0.316350755952E+02  0.298215207793E+02  0.806756113011E+00
  0.326742502400E+02  0.142710393718E+02 -0.636350629714E-01
  0.326742502400E+02  0.142710393718E+02  0.636350629714E-01
  0.331556679204E+02  0.191784728572E+02 -0.540091052704E+00
  0.331556679204E+02  0.191784728572E+02  0.540091052704E+00
  0.332713008060E+02  0.142710690365E+02 -0.366946003233E-05
  0.338952322807E+02  0.245000046883E+02 -0.980686650712E+00
  0.338952322807E+02  0.245000046883E+02  0.980686650712E+00
  0.346178312461E+02  0.298215303261E+02 -0.111699846182E+01
  0.346178312461E+02  0.298215303261E+02  0.111699846182E+01
  0.347290001994E+02  0.347289313192E+02 -0.111102197025E-20
  0.351491207386E+02  0.347289424633E+02 -0.412033265542E+00
  0.351491207386E+02  0.347289424633E+02  0.412033265542E+00
  0.361390435369E+02  0.191784727900E+02 -0.218288838176E+00
  0.361390435369E+02  0.191784727900E+02  0.218288838176E+00
  0.365425070906E+02  0.347289543962E+02 -0.806761672327E+00
  0.365425070906E+02  0.347289543962E+02  0.806761672327E+00
  0.375816821825E+02  0.191784725416E+02 -0.636293256172E-01
  0.375816821825E+02  0.191784725416E+02  0.636293256172E-01
  0.381787298283E+02  0.191785051266E+02 -0.404213918334E-05
  0.384772009150E+02  0.245000062688E+02 -0.540089009297E+00
  0.384772009150E+02  0.245000062688E+02  0.540089009297E+00
  0.389278125514E+02  0.389277553808E+02 -0.922149802381E-21
  0.392167655509E+02  0.298215378243E+02 -0.980687720153E+00
  0.392167655509E+02  0.298215378243E+02  0.980687720153E+00
  0.393479354844E+02  0.389277641311E+02 -0.412039525323E+00
  0.393479354844E+02  0.389277641311E+02  0.412039525323E+00
  0.395252635926E+02  0.347289630920E+02 -0.111700415312E+01
  0.395252635926E+02  0.347289630920E+02  0.111700415312E+01
  0.407413276606E+02  0.389277740545E+02 -0.806769279584E+00
  0.407413276606E+02  0.389277740545E+02  0.806769279584E+00
  0.414605765133E+02  0.245000062199E+02 -0.218286729666E+00
[...]
POINT_DATA                 309
SCALARS phi float 1
LOOKUP_TABLE default
 -0.143599188267E-04
 -0.356254585932E+00
 -0.475221171410E+00
 -0.918463610808E+00
 -0.127470724210E+01
 -0.139367435725E+01
 -0.167807429532E+01
 -0.191100568069E+01
 -0.223828846344E+01
 -0.259453106278E+01
 -0.271349708322E+01
 -0.259652700562E+01
 -0.282945878500E+01
 -0.391634959753E+01
 -0.414928006750E+01
 -0.409560225894E+01
 -0.445184358740E+01
 -0.457080817494E+01
 -0.458480802174E+01
 -0.490731052020E+01
 -0.550326083231E+01
 -0.582576362235E+01
 -0.577366067897E+01
 -0.600658942567E+01
 -0.663375147432E+01
 -0.682308297693E+01
 -0.714558444534E+01
 -0.698999137997E+01
 -0.710895422290E+01
 -0.831180719862E+01
 -0.854473383645E+01
 -0.868039363358E+01
 -0.900289335860E+01
 -0.915525296317E+01
 -0.943840155452E+01
 -0.996674691838E+01
 -0.100737056963E+02
 -0.103568521651E+02
 -0.103229859219E+02
 -0.104419468478E+02
 -0.112185385889E+02
 -0.115410361728E+02
 -0.113935272476E+02
 -0.116766728932E+02
 -0.116447988901E+02
 -0.118777232016E+02
 -0.132508361969E+02
 -0.135339806902E+02
 -0.137528353165E+02
 -0.139087740689E+02
 -0.141215930609E+02
 -0.144778310412E+02
 -0.145967901580E+02
 -0.145515290807E+02
 -0.148740242941E+02
 -0.146712872801E+02
 -0.148272267112E+02
 -0.157996431604E+02
 -0.160325652707E+02
 -0.157889811975E+02
 -0.160721241372E+02
 -0.159911086752E+02
 -0.161470475864E+02
 -0.167514154219E+02
 -0.168144480851E+02
 -0.176698684392E+02
 -0.177329015368E+02
 -0.178484174355E+02
 -0.180043554200E+02
 -0.182012674584E+02
 -0.182196499539E+02
 -0.188012775859E+02
 -0.187063722199E+02
 -0.190288651838E+02
 -0.189776276692E+02
 -0.189896898711E+02
 -0.190527220931E+02
 -0.191197205823E+02
 -0.191381026984E+02
 -0.191219707551E+02
 -0.194051117622E+02
 -0.193338652771E+02
 -0.194528230730E+02
 -0.197197297859E+02
 -0.204395401840E+02
 -0.204579210100E+02
 -0.203865612736E+02
 -0.205424977703E+02
 -0.206556760908E+02
 -0.208885965911E+02
 -0.208469986808E+02
 -0.209100294674E+02
 -0.210395474484E+02
 -0.222968509271E+02
 -0.223152299946E+02
 -0.228968532388E+02
 -0.233851425542E+02
 -0.234481713695E+02
 -0.232768121285E+02
 -0.235599510757E+02
 -0.235624043250E+02
 -0.238848956401E+02
 -0.237195524618E+02
 -0.238754870048E+02
 -0.242434227623E+02
 -0.245996607872E+02
 -0.247186180954E+02
 -0.248349948312E+02
 -0.248533717275E+02
 -0.254349912292E+02
 -0.259214711205E+02
 -0.261543910247E+02
 -0.267181318615E+02
 -0.267811583916E+02
 -0.278743916646E+02
 -0.280303241891E+02
 -0.281679841584E+02
 -0.281863586570E+02
 -0.281328436871E+02
 -0.284159809280E+02
 -0.287679742459E+02
 -0.288281971624E+02
 -0.291506878662E+02
 -0.295092148538E+02
 -0.298654539644E+02
 -0.299844117588E+02
 -0.308729729382E+02
 -0.309359972617E+02
 -0.311872628930E+02
 -0.314201833882E+02
 -0.323228271350E+02
 -0.323411993669E+02
 -0.327304229684E+02
 -0.328863539536E+02
 -0.329228096537E+02
 -0.333986382689E+02
 -0.336817746675E+02
 -0.340939911252E+02
 -0.344164824342E+02
 -0.343652413258E+02
 -0.347214818770E+02
 -0.348404409908E+02
 -0.357290042246E+02
 -0.357920269194E+02
 -0.360432921133E+02
 -0.362762142135E+02
 -0.371788584285E+02
 -0.371972290039E+02
 -0.377788371755E+02
 -0.379962173990E+02
 -0.381521477942E+02
 -0.385200744316E+02
 -0.386644325228E+02
 -0.389475692301E+02
 -0.388763164479E+02
 -0.389952773689E+02
 -0.389500211685E+02
 -0.392725141206E+02
 -0.401981322528E+02
 -0.404310565494E+02
 -0.409947986466E+02
 -0.410578207326E+02
 -0.418530594664E+02
 -0.422093027556E+02
 -0.423282655918E+02
 -0.424446490775E+02
 -0.424630190405E+02
 -0.430446307630E+02
 -0.431048624364E+02
 -0.434273576335E+02
 -0.432620116592E+02
 -0.434179425983E+02
 -0.435311166925E+02
 -0.437640433115E+02
 -0.435204632048E+02
 -0.438036012828E+02
 -0.443911979062E+02
 -0.447474421959E+02
 -0.448664067749E+02
 -0.460692578758E+02
 -0.463021866016E+02
 -0.462485023612E+02
 -0.462605929110E+02
 -0.463236155863E+02
 -0.464378480728E+02
 -0.467603456381E+02
 -0.466047473881E+02
 -0.467237133988E+02
 -0.475683224235E+02
 -0.477104433381E+02
 -0.477288139099E+02
 -0.476753015295E+02
 -0.479584416243E+02
 -0.479245679707E+02
 -0.480435350761E+02
 -0.479265682821E+02
 -0.481594987318E+02
 -0.481180425088E+02
 -0.482739749290E+02
 -0.483104273648E+02
 -0.484867689168E+02
 -0.488430161475E+02
 -0.489619845441E+02
 -0.489759903457E+02
 -0.492984900526E+02
 -0.491487664706E+02
 -0.492328903929E+02
 -0.493102568022E+02
 -0.492463861969E+02
 -0.494793179593E+02
 -0.501648359933E+02
 -0.503977689806E+02
 -0.507634826309E+02
 -0.509281916508E+02
 -0.508333016477E+02
 -0.511558031009E+02
 -0.510796745603E+02
 -0.511166237727E+02
 -0.511796480510E+02
 -0.510082918169E+02
 -0.512914340422E+02
 -0.521531202468E+02
 -0.524756230258E+02
 -0.522728848908E+02
 -0.524288192528E+02
 -0.525664741900E+02
 -0.525848464139E+02
 -0.531664630574E+02
 -0.530715707869E+02
 -0.533940746116E+02
 -0.535464349109E+02
 -0.538295789626E+02
 -0.539004206478E+02
 -0.541284656348E+02
 -0.543381994155E+02
 -0.552714623873E+02
 -0.553344888313E+02
 -0.554037431446E+02
 -0.556868885559E+02
 -0.556058717266E+02
 -0.557618079760E+02
 -0.567213165621E+02
 -0.567396910461E+02
 -0.567235660805E+02
 -0.570067124335E+02
 -0.573213077746E+02
 -0.576420170958E+02
 -0.579251640257E+02
 -0.581440151150E+02
 -0.582999528662E+02
 -0.583697238819E+02
 -0.585699381330E+02
 -0.586044529901E+02
 -0.586674816525E+02
 -0.587540801130E+02
 -0.600543071381E+02
 -0.600726840082E+02
 -0.600013235832E+02
 -0.601572623509E+02
 -0.606543045525E+02
 -0.611425963565E+02
 -0.612056269050E+02
 -0.613211466975E+02
 -0.614770860635E+02
 -0.622395977995E+02
 -0.623955377062E+02
 -0.625924504652E+02
 -0.626108294859E+02
 -0.626403806176E+02
 -0.627506467606E+02
 -0.628520599617E+02
 -0.629999047939E+02
 -0.630629367392E+02
 -0.631924533586E+02
 -0.643197278748E+02
 -0.643827607594E+02
 -0.644497550818E+02
 -0.644681358231E+02
 -0.650497661483E+02
 -0.652381827266E+02
 -0.653012164304E+02
 -0.654001851121E+02
 -0.654447569138E+02
 -0.654857510497E+02
 -0.657695781208E+02
 -0.657879600994E+02
 -0.663695924655E+02
 -0.666880329320E+02
 -0.667064160217E+02
 -0.667352820532E+02
 -0.667482815387E+02
 -0.667602404792E+02
 -0.672880459910E+02
 -0.188012779514E+02
 -0.197197303715E+02
 -0.210395482571E+02
 -0.228968543353E+02
 -0.254349926690E+02
 -0.287679760512E+02
 -0.329228117874E+02
 -0.377788395258E+02
 -0.430446331594E+02
 -0.483104296233E+02
 -0.531664650339E+02
 -0.573213093960E+02
 -0.606543058148E+02
 -0.631924543041E+02
 -0.650497668394E+02
 -0.663695929666E+02
SCALARS phi_mu float 1
LOOKUP_TABLE default
 -0.143599188267E-04
 -0.356254585932E+00
 -0.475221171410E+00
 -0.918463610808E+00
 -0.127470724210E+01
 -0.139367435725E+01
 -0.167807429532E+01
 -0.191100568069E+01
 -0.223828846344E+01
 -0.259453106278E+01
 -0.271349708322E+01
 -0.259652700562E+01
 -0.282945878500E+01
 -0.391634959753E+01
 -0.414928006750E+01
 -0.409560225894E+01
 -0.445184358740E+01
 -0.457080817494E+01
 -0.458480802174E+01
 -0.490731052020E+01
 -0.550326083231E+01
 -0.582576362235E+01
 -0.577366067897E+01
 -0.600658942567E+01
 -0.663375147432E+01
 -0.682308297693E+01
 -0.714558444534E+01
 -0.698999137997E+01
 -0.710895422290E+01
 -0.831180719862E+01
 -0.854473383645E+01
 -0.868039363358E+01
 -0.900289335860E+01
 -0.915525296317E+01
 -0.943840155452E+01
 -0.996674691838E+01
 -0.100737056963E+02
 -0.103568521651E+02
 -0.103229859219E+02
 -0.104419468478E+02
 -0.112185385889E+02
 -0.115410361728E+02
 -0.113935272476E+02
 -0.116766728932E+02
 -0.116447988901E+02
 -0.118777232016E+02
 -0.132508361969E+02
 -0.135339806902E+02
 -0.137528353165E+02
 -0.139087740689E+02
 -0.141215930609E+02
 -0.144778310412E+02
 -0.145967901580E+02
 -0.145515290807E+02
 -0.148740242941E+02
 -0.146712872801E+02
 -0.148272267112E+02
 -0.157996431604E+02
 -0.160325652707E+02
 -0.157889811975E+02
 -0.160721241372E+02
 -0.159911086752E+02
 -0.161470475864E+02
 -0.167514154219E+02
 -0.168144480851E+02
 -0.176698684392E+02
 -0.177329015368E+02
 -0.178484174355E+02
 -0.180043554200E+02
 -0.182012674584E+02
 -0.182196499539E+02
 -0.188012775859E+02
 -0.187063722199E+02
 -0.190288651838E+02
 -0.189776276692E+02
 -0.189896898711E+02
 -0.190527220931E+02
 -0.191197205823E+02
 -0.191381026984E+02
 -0.191219707551E+02
 -0.194051117622E+02
 -0.193338652771E+02
 -0.194528230730E+02
 -0.197197297859E+02
 -0.204395401840E+02
 -0.204579210100E+02
 -0.203865612736E+02
 -0.205424977703E+02
 -0.206556760908E+02
 -0.208885965911E+02
 -0.208469986808E+02
 -0.209100294674E+02
 -0.210395474484E+02
 -0.222968509271E+02
 -0.223152299946E+02
 -0.228968532388E+02
 -0.233851425542E+02
 -0.234481713695E+02
 -0.232768121285E+02
 -0.235599510757E+02
 -0.235624043250E+02
 -0.238848956401E+02
 -0.237195524618E+02
 -0.238754870048E+02
 -0.242434227623E+02
 -0.245996607872E+02
 -0.247186180954E+02
 -0.248349948312E+02
 -0.248533717275E+02
 -0.254349912292E+02
 -0.259214711205E+02
 -0.261543910247E+02
 -0.267181318615E+02
 -0.267811583916E+02
 -0.278743916646E+02
 -0.280303241891E+02
 -0.281679841584E+02
 -0.281863586570E+02
 -0.281328436871E+02
 -0.284159809280E+02
 -0.287679742459E+02
 -0.288281971624E+02
 -0.291506878662E+02
 -0.295092148538E+02
 -0.298654539644E+02
 -0.299844117588E+02
 -0.308729729382E+02
 -0.309359972617E+02
 -0.311872628930E+02
 -0.314201833882E+02
 -0.323228271350E+02
 -0.323411993669E+02
 -0.327304229684E+02
 -0.328863539536E+02
 -0.329228096537E+02
 -0.333986382689E+02
 -0.336817746675E+02
 -0.340939911252E+02
 -0.344164824342E+02
 -0.343652413258E+02
 -0.347214818770E+02
 -0.348404409908E+02
 -0.357290042246E+02
 -0.357920269194E+02
 -0.360432921133E+02
 -0.362762142135E+02
 -0.371788584285E+02
 -0.371972290039E+02
 -0.377788371755E+02
 -0.379962173990E+02
 -0.381521477942E+02
 -0.385200744316E+02
 -0.386644325228E+02
 -0.389475692301E+02
 -0.388763164479E+02
 -0.389952773689E+02
 -0.389500211685E+02
 -0.392725141206E+02
 -0.401981322528E+02
 -0.404310565494E+02
 -0.409947986466E+02
 -0.410578207326E+02
 -0.418530594664E+02
 -0.422093027556E+02
 -0.423282655918E+02
 -0.424446490775E+02
 -0.424630190405E+02
 -0.430446307630E+02
 -0.431048624364E+02
 -0.434273576335E+02
 -0.432620116592E+02
 -0.434179425983E+02
 -0.435311166925E+02
 -0.437640433115E+02
 -0.435204632048E+02
 -0.438036012828E+02
 -0.443911979062E+02
 -0.447474421959E+02
 -0.448664067749E+02
 -0.460692578758E+02
 -0.463021866016E+02
 -0.462485023612E+02
 -0.462605929110E+02
 -0.463236155863E+02
 -0.464378480728E+02
 -0.467603456381E+02
 -0.466047473881E+02
 -0.467237133988E+02
 -0.475683224235E+02
 -0.477104433381E+02
 -0.477288139099E+02
 -0.476753015295E+02
 -0.479584416243E+02
 -0.479245679707E+02
 -0.480435350761E+02
 -0.479265682821E+02
 -0.481594987318E+02
 -0.481180425088E+02
 -0.482739749290E+02
 -0.483104273648E+02
 -0.484867689168E+02
 -0.488430161475E+02
 -0.489619845441E+02
 -0.489759903457E+02
 -0.492984900526E+02
 -0.491487664706E+02
 -0.492328903929E+02
 -0.493102568022E+02
 -0.492463861969E+02
 -0.494793179593E+02
 -0.501648359933E+02
 -0.503977689806E+02
 -0.507634826309E+02
 -0.509281916508E+02
 -0.508333016477E+02
 -0.511558031009E+02
 -0.510796745603E+02
 -0.511166237727E+02
 -0.511796480510E+02
 -0.510082918169E+02
 -0.512914340422E+02
 -0.521531202468E+02
 -0.524756230258E+02
 -0.522728848908E+02
 -0.524288192528E+02
 -0.525664741900E+02
 -0.525848464139E+02
 -0.531664630574E+02
 -0.530715707869E+02
 -0.533940746116E+02
 -0.535464349109E+02
 -0.538295789626E+02
 -0.539004206478E+02
 -0.541284656348E+02
 -0.543381994155E+02
 -0.552714623873E+02
 -0.553344888313E+02
 -0.554037431446E+02
 -0.556868885559E+02
 -0.556058717266E+02
 -0.557618079760E+02
 -0.567213165621E+02
 -0.567396910461E+02
 -0.567235660805E+02
 -0.570067124335E+02
 -0.573213077746E+02
 -0.576420170958E+02
 -0.579251640257E+02
 -0.581440151150E+02
 -0.582999528662E+02
 -0.583697238819E+02
 -0.585699381330E+02
 -0.586044529901E+02
 -0.586674816525E+02
 -0.587540801130E+02
 -0.600543071381E+02
 -0.600726840082E+02
 -0.600013235832E+02
 -0.601572623509E+02
 -0.606543045525E+02
 -0.611425963565E+02
 -0.612056269050E+02
 -0.613211466975E+02
 -0.614770860635E+02
 -0.622395977995E+02
 -0.623955377062E+02
 -0.625924504652E+02
 -0.626108294859E+02
 -0.626403806176E+02
 -0.627506467606E+02
 -0.628520599617E+02
 -0.629999047939E+02
 -0.630629367392E+02
 -0.631924533586E+02
 -0.643197278748E+02
 -0.643827607594E+02
 -0.644497550818E+02
 -0.644681358231E+02
 -0.650497661483E+02
 -0.652381827266E+02
 -0.653012164304E+02
 -0.654001851121E+02
 -0.654447569138E+02
 -0.654857510497E+02
 -0.657695781208E+02
 -0.657879600994E+02
 -0.663695924655E+02
 -0.666880329320E+02
 -0.667064160217E+02
 -0.667352820532E+02
 -0.667482815387E+02
 -0.667602404792E+02
 -0.672880459910E+02
 -0.188012779514E+02
 -0.197197303715E+02
 -0.210395482571E+02
 -0.228968543353E+02
 -0.254349926690E+02
 -0.287679760512E+02
 -0.329228117874E+02
 -0.377788395258E+02
 -0.430446331594E+02
 -0.483104296233E+02
 -0.531664650339E+02
 -0.573213093960E+02
 -0.606543058148E+02
 -0.631924543041E+02
 -0.650497668394E+02
 -0.663695929666E+02
SCALARS phi_sigma float 1
LOOKUP_TABLE default
  0.000000000000E+00
  0.000000000000E+00
  0.000000000000E+00
  0.000000000000E+00
  0.000000000000E+00
  0.000000000000E+00
  0.000000000000E+00
  0.000000000000E+00
  0.000000000000E+00
  0.000000000000E+00
  0.000000000000E+00
  0.000000000000E+00
  0.000000000000E+00
  0.000000000000E+00
  0.000000000000E+00
  0.000000000000E+00
  0.000000000000E+00
  0.000000000000E+00
  0.000000000000E+00
  0.000000000000E+00
  0.000000000000E+00
  0.000000000000E+00
  0.000000000000E+00
  0.000000000000E+00
  0.000000000000E+00
  0.000000000000E+00
  0.000000000000E+00
  0.000000000000E+00
  0.000000000000E+00
  0.000000000000E+00
  0.000000000000E+00
  0.000000000000E+00
  0.000000000000E+00
  0.000000000000E+00
  0.000000000000E+00
  0.000000000000E+00
  0.000000000000E+00
  0.000000000000E+00
  0.000000000000E+00
  0.000000000000E+00
  0.000000000000E+00
  0.000000000000E+00
  0.000000000000E+00
  0.000000000000E+00
  0.000000000000E+00
  0.000000000000E+00
  0.000000000000E+00
  0.000000000000E+00
  0.000000000000E+00
  0.000000000000E+00
  0.000000000000E+00
  0.000000000000E+00
  0.000000000000E+00
  0.000000000000E+00
  0.000000000000E+00
  0.000000000000E+00
  0.000000000000E+00
  0.000000000000E+00
  0.000000000000E+00
  0.000000000000E+00
  0.000000000000E+00
  0.000000000000E+00
  0.000000000000E+00
  0.000000000000E+00
  0.000000000000E+00
  0.000000000000E+00
  0.000000000000E+00
  0.000000000000E+00
  0.000000000000E+00
  0.000000000000E+00
  0.000000000000E+00
  0.000000000000E+00
  0.000000000000E+00
  0.000000000000E+00
  0.000000000000E+00
  0.000000000000E+00
  0.000000000000E+00
  0.000000000000E+00
  0.000000000000E+00
  0.000000000000E+00
  0.000000000000E+00
  0.000000000000E+00
  0.000000000000E+00
  0.000000000000E+00
  0.000000000000E+00
  0.000000000000E+00
  0.000000000000E+00
  0.000000000000E+00
  0.000000000000E+00
  0.000000000000E+00
  0.000000000000E+00
  0.000000000000E+00
  0.000000000000E+00
  0.000000000000E+00
  0.000000000000E+00
  0.000000000000E+00
  0.000000000000E+00
  0.000000000000E+00
  0.000000000000E+00
  0.000000000000E+00
  0.000000000000E+00
  0.000000000000E+00
  0.000000000000E+00
  0.000000000000E+00
  0.000000000000E+00
  0.000000000000E+00
  0.000000000000E+00
  0.000000000000E+00
  0.000000000000E+00
  0.000000000000E+00
  0.000000000000E+00
  0.000000000000E+00
  0.000000000000E+00
  0.000000000000E+00
  0.000000000000E+00
  0.000000000000E+00
  0.000000000000E+00
  0.000000000000E+00
  0.000000000000E+00
  0.000000000000E+00
  0.000000000000E+00
  0.000000000000E+00
  0.000000000000E+00
  0.000000000000E+00
  0.000000000000E+00
  0.000000000000E+00
  0.000000000000E+00
  0.000000000000E+00
  0.000000000000E+00
  0.000000000000E+00
  0.000000000000E+00
  0.000000000000E+00
  0.000000000000E+00
  0.000000000000E+00
  0.000000000000E+00
  0.000000000000E+00
  0.000000000000E+00
  0.000000000000E+00
  0.000000000000E+00
  0.000000000000E+00
  0.000000000000E+00
  0.000000000000E+00
  0.000000000000E+00
  0.000000000000E+00
  0.000000000000E+00
  0.000000000000E+00
  0.000000000000E+00
  0.000000000000E+00
  0.000000000000E+00
  0.000000000000E+00
  0.000000000000E+00
  0.000000000000E+00
  0.000000000000E+00
  0.000000000000E+00
  0.000000000000E+00
  0.000000000000E+00
  0.000000000000E+00
  0.000000000000E+00
  0.000000000000E+00
  0.000000000000E+00
  0.000000000000E+00
  0.000000000000E+00
  0.000000000000E+00
  0.000000000000E+00
  0.000000000000E+00
  0.000000000000E+00
  0.000000000000E+00
  0.000000000000E+00
  0.000000000000E+00
  0.000000000000E+00
  0.000000000000E+00
  0.000000000000E+00
  0.000000000000E+00
  0.000000000000E+00
  0.000000000000E+00
  0.000000000000E+00
  0.000000000000E+00
  0.000000000000E+00
  0.000000000000E+00
  0.000000000000E+00
  0.000000000000E+00
  0.000000000000E+00
  0.000000000000E+00
  0.000000000000E+00
  0.000000000000E+00
  0.000000000000E+00
  0.000000000000E+00
  0.000000000000E+00
  0.000000000000E+00
  0.000000000000E+00
  0.000000000000E+00
  0.000000000000E+00
  0.000000000000E+00
  0.000000000000E+00
  0.000000000000E+00
  0.000000000000E+00
  0.000000000000E+00
  0.000000000000E+00
  0.000000000000E+00
  0.000000000000E+00
  0.000000000000E+00
  0.000000000000E+00
  0.000000000000E+00
  0.000000000000E+00
  0.000000000000E+00
  0.000000000000E+00
  0.000000000000E+00
  0.000000000000E+00
  0.000000000000E+00
  0.000000000000E+00
  0.000000000000E+00
  0.000000000000E+00
  0.000000000000E+00
  0.000000000000E+00
  0.000000000000E+00
  0.000000000000E+00
  0.000000000000E+00
  0.000000000000E+00
  0.000000000000E+00
  0.000000000000E+00
  0.000000000000E+00
  0.000000000000E+00
  0.000000000000E+00
  0.000000000000E+00
  0.000000000000E+00
  0.000000000000E+00
  0.000000000000E+00
  0.000000000000E+00
  0.000000000000E+00
  0.000000000000E+00
  0.000000000000E+00
  0.000000000000E+00
  0.000000000000E+00
  0.000000000000E+00
  0.000000000000E+00
  0.000000000000E+00
  0.000000000000E+00
  0.000000000000E+00
  0.000000000000E+00
  0.000000000000E+00
  0.000000000000E+00
  0.000000000000E+00
  0.000000000000E+00
  0.000000000000E+00
  0.000000000000E+00
  0.000000000000E+00
  0.000000000000E+00
  0.000000000000E+00
  0.000000000000E+00
  0.000000000000E+00
  0.000000000000E+00
  0.000000000000E+00
  0.000000000000E+00
  0.000000000000E+00
  0.000000000000E+00
  0.000000000000E+00
  0.000000000000E+00
  0.000000000000E+00
  0.000000000000E+00
  0.000000000000E+00
  0.000000000000E+00
  0.000000000000E+00
  0.000000000000E+00
  0.000000000000E+00
  0.000000000000E+00
  0.000000000000E+00
  0.000000000000E+00
  0.000000000000E+00
  0.000000000000E+00
  0.000000000000E+00
  0.000000000000E+00
  0.000000000000E+00
  0.000000000000E+00
  0.000000000000E+00
  0.000000000000E+00
  0.000000000000E+00
  0.000000000000E+00
  0.000000000000E+00
  0.000000000000E+00
  0.000000000000E+00
  0.000000000000E+00
  0.000000000000E+00
  0.000000000000E+00
  0.000000000000E+00
  0.000000000000E+00
  0.000000000000E+00
  0.000000000000E+00
  0.000000000000E+00
  0.000000000000E+00
  0.000000000000E+00
  0.000000000000E+00
  0.000000000000E+00
  0.000000000000E+00
  0.000000000000E+00
  0.000000000000E+00
  0.000000000000E+00
  0.000000000000E+00
  0.000000000000E+00
  0.000000000000E+00
  0.000000000000E+00
  0.000000000000E+00
  0.000000000000E+00
  0.000000000000E+00
  0.000000000000E+00
  0.000000000000E+00
  0.000000000000E+00
  0.000000000000E+00
  0.000000000000E+00
  0.000000000000E+00
