# vtk DataFile Version 3.0
TriPan results file. Generated by TriPan, USU AeroLab (c) 2021.
ASCII
DATASET POLYDATA
POINTS                  34 float
     19.928474426300      0.928174138069      0.000000000000
     99.367862661360      0.928174138069     11.588953438237
     19.000301361100      0.000000000000      0.000000000000
     99.348520729456      0.000000000000     11.721537562070
     21.262266159100      2.261965751650      0.000000000000
     99.395657164171      2.261965751650     11.398429046936
     23.139236450200      4.138934612270      0.000000000000
     99.434770808940      4.138934612270     11.130314757870
     25.704246521000      6.703944683070      0.000000000000
     99.488222317051      6.703944683070     10.763917988118
     29.072515487700     10.072214126600      0.000000000000
     99.558412706572     10.072214126600     10.282780357079
     33.271335601800     14.271034240700      0.000000000000
     99.645910712892     14.271034240700      9.683003325367
     38.178768158000     19.178466796900      0.000000000000
     99.748175290356     19.178466796900      8.982005127801
     43.500301361100     24.500000000000      0.000000000000
     99.859069192258     24.500000000000      8.221855061359
     48.821834564200     29.821533203100      0.000000000000
     99.969963094159     29.821533203100      7.461704994916
     53.729267120400     34.728965759300      0.000000000000
    100.072227671624     34.728965759300      6.760706797351
     57.928085327100     38.927783966100      0.000000000000
    100.159725638196     38.927783966100      6.160930038100
     61.296356201200     42.296054840100      0.000000000000
    100.229916067464     42.296054840100      5.679792134600
     63.861366272000     44.861064910900      0.000000000000
    100.283367575575     44.861064910900      5.313395364848
     65.738334655800     46.738033294700      0.000000000000
    100.322481180599     46.738033294700      5.045281348229
     67.072128295900     48.071826934800      0.000000000000
    100.350275723156     48.071826934800      4.854756684481
     68.000297546400     49.000000000000      0.000000000000
    100.369617575566     49.000000000000      4.722173105556
POLYGONS                  32                 128
3                   0                   1                   3
3                   0                   3                   2
3                   4                   5                   1
3                   4                   1                   0
3                   6                   7                   5
3                   6                   5                   4
3                   8                   9                   7
3                   8                   7                   6
3                  10                  11                   9
3                  10                   9                   8
3                  12                  13                  11
3                  12                  11                  10
3                  14                  15                  13
3                  14                  13                  12
3                  16                  17                  15
3                  16                  15                  14
3                  18                  19                  17
3                  18                  17                  16
3                  20                  21                  19
3                  20                  19                  18
3                  22                  23                  21
3                  22                  21                  20
3                  24                  25                  23
3                  24                  23                  22
3                  26                  27                  25
3                  26                  25                  24
3                  28                  29                  27
3                  28                  27                  26
3                  30                  31                  29
3                  30                  29                  28
3                  32                  33                  31
3                  32                  31                  30
POINT_DATA                  34
SCALARS mu float 1
LOOKUP_TABLE default
     -4.262025478287
     -4.262025478287
     -4.232984121468
     -4.232984121468
     -4.326116480418
     -4.326116480418
     -4.418230783008
     -4.418230783008
     -4.527466422067
     -4.527466422067
     -4.649878351137
     -4.649878351137
     -4.751785292637
     -4.751785292637
     -4.822594977054
     -4.822594977054
     -4.838842912569
     -4.838842912569
     -4.765224723382
     -4.765224723382
     -4.568609270712
     -4.568609270712
     -4.226517618817
     -4.226517618817
     -3.725403249120
     -3.725403249120
     -3.069134186926
     -3.069134186926
     -2.283397598030
     -2.283397598030
     -1.315130212797
     -1.315130212797
      0.000000000000
      0.000000000000
