# vtk DataFile Version 3.0
TriPan results file. Generated by TriPan, USU AeroLab (c) 2021.
ASCII
DATASET POLYDATA
POINTS                 160 float
  0.191611385345E+02  0.161138445139E+00  0.000000000000E+00
  0.989565718415E+04  0.161138445139E+00  0.144082495282E+04
  0.190000000000E+02  0.000000000000E+00  0.000000000000E+00
  0.989565382623E+04  0.000000000000E+00  0.144084797052E+04
  0.193350086212E+02  0.335006117821E+00  0.000000000000E+00
  0.989566080738E+04  0.335006117821E+00  0.144080011649E+04
  0.195225105286E+02  0.522506594658E+00  0.000000000000E+00
  0.989566471468E+04  0.522506594658E+00  0.144077333293E+04
  0.197245941162E+02  0.724590361118E+00  0.000000000000E+00
  0.989566892584E+04  0.724590361118E+00  0.144074446646E+04
  0.199422607422E+02  0.942254066467E+00  0.000000000000E+00
  0.989567346173E+04  0.942254066467E+00  0.144071337405E+04
  0.201765460968E+02  0.117653930187E+01  0.000000000000E+00
  0.989567834394E+04  0.117653930187E+01  0.144067990775E+04
  0.204285392761E+02  0.142853081226E+01  0.000000000000E+00
  0.989568359515E+04  0.142853081226E+01  0.144064391199E+04
  0.206993637085E+02  0.169935321808E+01  0.000000000000E+00
  0.989568923878E+04  0.169935321808E+01  0.144060522630E+04
  0.209901790619E+02  0.199016737938E+01  0.000000000000E+00
  0.989569529900E+04  0.199016737938E+01  0.144056368502E+04
  0.213021793365E+02  0.230216526985E+01  0.000000000000E+00
  0.989570180069E+04  0.230216526985E+01  0.144051911759E+04
  0.216365795135E+02  0.263656377792E+01  0.000000000000E+00
  0.989570876916E+04  0.263656377792E+01  0.144047135047E+04
  0.219946155548E+02  0.299459671974E+01  0.000000000000E+00
  0.989571623017E+04  0.299459671974E+01  0.144042020710E+04
  0.223775272369E+02  0.337750577927E+01  0.000000000000E+00
  0.989572420955E+04  0.337750577927E+01  0.144036551040E+04
  0.227865524292E+02  0.378652930260E+01  0.000000000000E+00
  0.989573273311E+04  0.378652930260E+01  0.144030708353E+04
  0.232229156494E+02  0.422288990021E+01  0.000000000000E+00
  0.989574182636E+04  0.422288990021E+01  0.144024475158E+04
  0.236878089905E+02  0.468778085709E+01  0.000000000000E+00
  0.989575151414E+04  0.468778085709E+01  0.144017834427E+04
  0.241823806763E+02  0.518234777451E+01  0.000000000000E+00
  0.989576182037E+04  0.518234777451E+01  0.144010769758E+04
  0.247077083588E+02  0.570767307281E+01  0.000000000000E+00
  0.989577276753E+04  0.570767307281E+01  0.144003265758E+04
  0.252647914886E+02  0.626475334167E+01  0.000000000000E+00
  0.989578437642E+04  0.626475334167E+01  0.143995308149E+04
  0.258545246124E+02  0.685448169708E+01  0.000000000000E+00
  0.989579666570E+04  0.685448169708E+01  0.143986884155E+04
  0.264776668549E+02  0.747762155533E+01  0.000000000000E+00
  0.989580965118E+04  0.747762155533E+01  0.143977982930E+04
  0.271348342896E+02  0.813478469849E+01  0.000000000000E+00
  0.989582334571E+04  0.813478469849E+01  0.143968595676E+04
  0.278264636993E+02  0.882640838623E+01  0.000000000000E+00
  0.989583775837E+04  0.882640838623E+01  0.143958716152E+04
  0.285527858734E+02  0.955272769928E+01  0.000000000000E+00
  0.989585289399E+04  0.955272769928E+01  0.143948341062E+04
  0.293138179779E+02  0.103137550354E+02  0.000000000000E+00
  0.989586875292E+04  0.103137550354E+02  0.143937470161E+04
  0.301093215942E+02  0.111092538834E+02  0.000000000000E+00
  0.989588533019E+04  0.111092538834E+02  0.143926106854E+04
  0.309387969971E+02  0.119387235641E+02  0.000000000000E+00
  0.989590261539E+04  0.119387235641E+02  0.143914258281E+04
  0.318014545441E+02  0.128013763428E+02  0.000000000000E+00
  0.989592059207E+04  0.128013763428E+02  0.143901935719E+04
  0.326962089539E+02  0.136961250305E+02  0.000000000000E+00
  0.989593923760E+04  0.136961250305E+02  0.143889154673E+04
  0.336216621399E+02  0.146215744019E+02  0.000000000000E+00
  0.989595852285E+04  0.146215744019E+02  0.143875935113E+04
  0.345761108398E+02  0.155760145187E+02  0.000000000000E+00
  0.989597841233E+04  0.155760145187E+02  0.143862301368E+04
  0.355575256348E+02  0.165574264526E+02  0.000000000000E+00
  0.989599886375E+04  0.165574264526E+02  0.143848282429E+04
  0.365635871887E+02  0.175634803772E+02  0.000000000000E+00
  0.989601982878E+04  0.175634803772E+02  0.143833911424E+04
  0.375916786194E+02  0.185915622711E+02  0.000000000000E+00
  0.989604125288E+04  0.185915622711E+02  0.143819225736E+04
  0.386389083862E+02  0.196387882233E+02  0.000000000000E+00
  0.989606307580E+04  0.196387882233E+02  0.143804266668E+04
  0.397021560669E+02  0.207020301819E+02  0.000000000000E+00
  0.989608523252E+04  0.207020301819E+02  0.143789078794E+04
  0.407780914307E+02  0.217779560089E+02  0.000000000000E+00
  0.989610765362E+04  0.217779560089E+02  0.143773709683E+04
  0.418632049561E+02  0.228630657196E+02  0.000000000000E+00
  0.989613026599E+04  0.228630657196E+02  0.143758209467E+04
  0.429538803101E+02  0.239537334442E+02  0.000000000000E+00
  0.989615299426E+04  0.239537334442E+02  0.143742629804E+04
  0.440464210510E+02  0.250462665558E+02  0.000000000000E+00
  0.989617576141E+04  0.250462665558E+02  0.143727023495E+04
  0.451370964050E+02  0.261369342804E+02  0.000000000000E+00
  0.989619848968E+04  0.261369342804E+02  0.143711443832E+04
  0.462222099304E+02  0.272220439911E+02  0.000000000000E+00
  0.989622110205E+04  0.272220439911E+02  0.143695943616E+04
  0.472981452942E+02  0.282979698181E+02  0.000000000000E+00
  0.989624352315E+04  0.282979698181E+02  0.143680574505E+04
  0.483613929749E+02  0.293612117767E+02  0.000000000000E+00
  0.989626567987E+04  0.293612117767E+02  0.143665386631E+04
  0.494086227417E+02  0.304084377289E+02  0.000000000000E+00
  0.989628750279E+04  0.304084377289E+02  0.143650427563E+04
  0.504367141724E+02  0.314365196228E+02  0.000000000000E+00
  0.989630892689E+04  0.314365196228E+02  0.143635741875E+04
  0.514427719116E+02  0.324425735474E+02  0.000000000000E+00
  0.989632989184E+04  0.324425735474E+02  0.143621370925E+04
  0.524241905212E+02  0.334239845276E+02  0.000000000000E+00
  0.989635034334E+04  0.334239845276E+02  0.143607351931E+04
  0.533786354065E+02  0.343784255981E+02  0.000000000000E+00
  0.989637023274E+04  0.343784255981E+02  0.143593718241E+04
  0.543040924072E+02  0.353038749695E+02  0.000000000000E+00
  0.989638951807E+04  0.353038749695E+02  0.143580498626E+04
  0.551988449097E+02  0.361986236572E+02  0.000000000000E+00
  0.989640816356E+04  0.361986236572E+02  0.143567717607E+04
  0.560615043640E+02  0.370612754822E+02  0.000000000000E+00
  0.989642614028E+04  0.370612754822E+02  0.143555395018E+04
  0.568909797668E+02  0.378907470703E+02  0.000000000000E+00
  0.989644342548E+04  0.378907470703E+02  0.143543546444E+04
  0.576864814758E+02  0.386862449646E+02  0.000000000000E+00
  0.989646000271E+04  0.386862449646E+02  0.143532183165E+04
  0.584475135803E+02  0.394472732544E+02  0.000000000000E+00
  0.989647586164E+04  0.394472732544E+02  0.143521312264E+04
  0.591738395691E+02  0.401735916138E+02  0.000000000000E+00
  0.989649099734E+04  0.401735916138E+02  0.143510937120E+04
  0.598654670715E+02  0.408652153015E+02  0.000000000000E+00
  0.989650540996E+04  0.408652153015E+02  0.143501057623E+04
  0.605226325989E+02  0.415223770142E+02  0.000000000000E+00
  0.989651910445E+04  0.415223770142E+02  0.143491670396E+04
  0.611457786560E+02  0.421455192566E+02  0.000000000000E+00
  0.989653209001E+04  0.421455192566E+02  0.143482769117E+04
  0.617355079651E+02  0.427352447510E+02  0.000000000000E+00
  0.989654437921E+04  0.427352447510E+02  0.143474345177E+04
  0.622925949097E+02  0.432923278809E+02  0.000000000000E+00
  0.989655598818E+04  0.432923278809E+02  0.143466387514E+04
  0.628179206848E+02  0.438176536560E+02  0.000000000000E+00
  0.989656693530E+04  0.438176536560E+02  0.143458883541E+04
  0.633124923706E+02  0.443122177124E+02  0.000000000000E+00
  0.989657724153E+04  0.443122177124E+02  0.143451818872E+04
  0.637773857117E+02  0.447771110535E+02  0.000000000000E+00
  0.989658692931E+04  0.447771110535E+02  0.143445178141E+04
  0.642137451172E+02  0.452134704590E+02  0.000000000000E+00
  0.989659602248E+04  0.452134704590E+02  0.143438945001E+04
  0.646227722168E+02  0.456224937439E+02  0.000000000000E+00
  0.989660454608E+04  0.456224937439E+02  0.143433102286E+04
  0.650056838989E+02  0.460054016113E+02  0.000000000000E+00
  0.989661252546E+04  0.460054016113E+02  0.143427632616E+04
  0.653637237549E+02  0.463634376526E+02  0.000000000000E+00
  0.989661998655E+04  0.463634376526E+02  0.143422518225E+04
  0.656981201172E+02  0.466978340149E+02  0.000000000000E+00
  0.989662695494E+04  0.466978340149E+02  0.143417741567E+04
  0.660101242065E+02  0.470098342896E+02  0.000000000000E+00
  0.989663345671E+04  0.470098342896E+02  0.143413284770E+04
  0.663009338379E+02  0.473006477356E+02  0.000000000000E+00
  0.989663951681E+04  0.473006477356E+02  0.143409130724E+04
  0.665717620850E+02  0.475714683533E+02  0.000000000000E+00
  0.989664516052E+04  0.475714683533E+02  0.143405262100E+04
  0.668237533569E+02  0.478234596252E+02  0.000000000000E+00
  0.989665041169E+04  0.478234596252E+02  0.143401662551E+04
  0.670580444336E+02  0.480577468872E+02  0.000000000000E+00
  0.989665529402E+04  0.480577468872E+02  0.143398315839E+04
  0.672757034302E+02  0.482754096985E+02  0.000000000000E+00
  0.989665982975E+04  0.482754096985E+02  0.143395206707E+04
  0.674777908325E+02  0.484774932861E+02  0.000000000000E+00
  0.989666404099E+04  0.484774932861E+02  0.143392320006E+04
  0.676652908325E+02  0.486649932861E+02  0.000000000000E+00
  0.989666794825E+04  0.486649932861E+02  0.143389641678E+04
  0.678391647339E+02  0.488388633728E+02  0.000000000000E+00
  0.989667157156E+04  0.488388633728E+02  0.143387157990E+04
  0.680002975464E+02  0.490000000000E+02  0.000000000000E+00
  0.989667492936E+04  0.490000000000E+02  0.143384856302E+04
POLYGONS                 158                 632
3                   0                   1                   3
3                   0                   3                   2
3                   4                   5                   1
3                   4                   1                   0
3                   6                   7                   5
3                   6                   5                   4
3                   8                   9                   7
3                   8                   7                   6
3                  10                  11                   9
3                  10                   9                   8
3                  12                  13                  11
3                  12                  11                  10
3                  14                  15                  13
3                  14                  13                  12
3                  16                  17                  15
3                  16                  15                  14
3                  18                  19                  17
3                  18                  17                  16
3                  20                  21                  19
3                  20                  19                  18
3                  22                  23                  21
3                  22                  21                  20
3                  24                  25                  23
3                  24                  23                  22
3                  26                  27                  25
3                  26                  25                  24
3                  28                  29                  27
3                  28                  27                  26
3                  30                  31                  29
3                  30                  29                  28
3                  32                  33                  31
3                  32                  31                  30
3                  34                  35                  33
3                  34                  33                  32
3                  36                  37                  35
3                  36                  35                  34
3                  38                  39                  37
3                  38                  37                  36
3                  40                  41                  39
3                  40                  39                  38
3                  42                  43                  41
3                  42                  41                  40
3                  44                  45                  43
3                  44                  43                  42
3                  46                  47                  45
3                  46                  45                  44
3                  48                  49                  47
3                  48                  47                  46
3                  50                  51                  49
3                  50                  49                  48
3                  52                  53                  51
3                  52                  51                  50
3                  54                  55                  53
3                  54                  53                  52
3                  56                  57                  55
3                  56                  55                  54
3                  58                  59                  57
3                  58                  57                  56
3                  60                  61                  59
3                  60                  59                  58
3                  62                  63                  61
3                  62                  61                  60
3                  64                  65                  63
3                  64                  63                  62
3                  66                  67                  65
3                  66                  65                  64
3                  68                  69                  67
3                  68                  67                  66
3                  70                  71                  69
3                  70                  69                  68
3                  72                  73                  71
3                  72                  71                  70
3                  74                  75                  73
3                  74                  73                  72
3                  76                  77                  75
3                  76                  75                  74
3                  78                  79                  77
3                  78                  77                  76
3                  80                  81                  79
3                  80                  79                  78
3                  82                  83                  81
3                  82                  81                  80
3                  84                  85                  83
3                  84                  83                  82
3                  86                  87                  85
3                  86                  85                  84
3                  88                  89                  87
3                  88                  87                  86
3                  90                  91                  89
3                  90                  89                  88
3                  92                  93                  91
3                  92                  91                  90
3                  94                  95                  93
3                  94                  93                  92
3                  96                  97                  95
3                  96                  95                  94
3                  98                  99                  97
3                  98                  97                  96
3                 100                 101                  99
3                 100                  99                  98
3                 102                 103                 101
3                 102                 101                 100
3                 104                 105                 103
3                 104                 103                 102
3                 106                 107                 105
3                 106                 105                 104
3                 108                 109                 107
3                 108                 107                 106
3                 110                 111                 109
3                 110                 109                 108
3                 112                 113                 111
3                 112                 111                 110
3                 114                 115                 113
3                 114                 113                 112
3                 116                 117                 115
3                 116                 115                 114
3                 118                 119                 117
3                 118                 117                 116
3                 120                 121                 119
3                 120                 119                 118
3                 122                 123                 121
3                 122                 121                 120
3                 124                 125                 123
3                 124                 123                 122
3                 126                 127                 125
3                 126                 125                 124
3                 128                 129                 127
3                 128                 127                 126
3                 130                 131                 129
3                 130                 129                 128
3                 132                 133                 131
3                 132                 131                 130
3                 134                 135                 133
3                 134                 133                 132
3                 136                 137                 135
3                 136                 135                 134
3                 138                 139                 137
3                 138                 137                 136
3                 140                 141                 139
3                 140                 139                 138
3                 142                 143                 141
3                 142                 141                 140
3                 144                 145                 143
3                 144                 143                 142
3                 146                 147                 145
3                 146                 145                 144
3                 148                 149                 147
3                 148                 147                 146
3                 150                 151                 149
3                 150                 149                 148
3                 152                 153                 151
3                 152                 151                 150
3                 154                 155                 153
3                 154                 153                 152
3                 156                 157                 155
3                 156                 155                 154
3                 158                 159                 157
3                 158                 157                 156
CELL_DATA                 158
NORMALS normals float
  0.142875207373E+00 -0.142875286606E+00 -0.979373946762E+00
  0.142875207373E+00 -0.142875286606E+00 -0.979373946762E+00
  0.142875168496E+00 -0.142877152205E+00 -0.979373680270E+00
  0.142875168496E+00 -0.142877152206E+00 -0.979373680270E+00
  0.142875186738E+00 -0.142876276826E+00 -0.979373805314E+00
  0.142875186738E+00 -0.142876276826E+00 -0.979373805314E+00
  0.142875211571E+00 -0.142875085116E+00 -0.979373975543E+00
  0.142875211571E+00 -0.142875085115E+00 -0.979373975543E+00
  0.142875169855E+00 -0.142877086979E+00 -0.979373689587E+00
  0.142875169855E+00 -0.142877086980E+00 -0.979373689587E+00
  0.142875207506E+00 -0.142875280196E+00 -0.979373947677E+00
  0.142875207506E+00 -0.142875280196E+00 -0.979373947677E+00
  0.142875189674E+00 -0.142876135920E+00 -0.979373825442E+00
  0.142875189674E+00 -0.142876135919E+00 -0.979373825442E+00
  0.142875187165E+00 -0.142876256309E+00 -0.979373808245E+00
  0.142875187165E+00 -0.142876256309E+00 -0.979373808245E+00
  0.142875197035E+00 -0.142875782707E+00 -0.979373875896E+00
  0.142875197035E+00 -0.142875782706E+00 -0.979373875896E+00
  0.142875186703E+00 -0.142876278483E+00 -0.979373805077E+00
  0.142875186703E+00 -0.142876278483E+00 -0.979373805077E+00
  0.142875194434E+00 -0.142875907501E+00 -0.979373858070E+00
  0.142875194434E+00 -0.142875907502E+00 -0.979373858070E+00
  0.142875183741E+00 -0.142876420607E+00 -0.979373784775E+00
  0.142875183741E+00 -0.142876420607E+00 -0.979373784775E+00
  0.142875189014E+00 -0.142876167577E+00 -0.979373820920E+00
  0.142875189014E+00 -0.142876167576E+00 -0.979373820920E+00
  0.142875197089E+00 -0.142875780073E+00 -0.979373876273E+00
  0.142875197089E+00 -0.142875780074E+00 -0.979373876272E+00
  0.142875191461E+00 -0.142876050161E+00 -0.979373837692E+00
  0.142875191461E+00 -0.142876050162E+00 -0.979373837692E+00
  0.142875194032E+00 -0.142875926776E+00 -0.979373855317E+00
  0.142875194032E+00 -0.142875926776E+00 -0.979373855317E+00
  0.142875180870E+00 -0.142876558405E+00 -0.979373765092E+00
  0.142875180870E+00 -0.142876558405E+00 -0.979373765092E+00
  0.142875195753E+00 -0.142875844195E+00 -0.979373867113E+00
  0.142875195753E+00 -0.142875844195E+00 -0.979373867113E+00
  0.142875194012E+00 -0.142875927761E+00 -0.979373855176E+00
  0.142875194012E+00 -0.142875927762E+00 -0.979373855176E+00
  0.142875185407E+00 -0.142876340659E+00 -0.979373796196E+00
  0.142875185407E+00 -0.142876340659E+00 -0.979373796196E+00
  0.142875197831E+00 -0.142875744498E+00 -0.979373881354E+00
  0.142875197831E+00 -0.142875744498E+00 -0.979373881354E+00
  0.142875189944E+00 -0.142876122976E+00 -0.979373827291E+00
  0.142875189944E+00 -0.142876122976E+00 -0.979373827291E+00
  0.142875184861E+00 -0.142876366900E+00 -0.979373792447E+00
  0.142875184861E+00 -0.142876366900E+00 -0.979373792447E+00
  0.142875197501E+00 -0.142875760302E+00 -0.979373879097E+00
  0.142875197501E+00 -0.142875760302E+00 -0.979373879097E+00
  0.142875190716E+00 -0.142876085931E+00 -0.979373832582E+00
  0.142875190716E+00 -0.142876085931E+00 -0.979373832582E+00
  0.142875191508E+00 -0.142876047916E+00 -0.979373838013E+00
  0.142875191508E+00 -0.142876047916E+00 -0.979373838013E+00
  0.142875188870E+00 -0.142876174512E+00 -0.979373819929E+00
  0.142875188870E+00 -0.142876174512E+00 -0.979373819929E+00
  0.142875192869E+00 -0.142875982610E+00 -0.979373847341E+00
  0.142875192869E+00 -0.142875982609E+00 -0.979373847341E+00
  0.142875190338E+00 -0.142876104054E+00 -0.979373829994E+00
  0.142875190338E+00 -0.142876104054E+00 -0.979373829994E+00
  0.142875196968E+00 -0.142875785884E+00 -0.979373875442E+00
  0.142875196968E+00 -0.142875785884E+00 -0.979373875442E+00
  0.142875182762E+00 -0.142876467612E+00 -0.979373778061E+00
  0.142875182762E+00 -0.142876467612E+00 -0.979373778061E+00
  0.142875200487E+00 -0.142875617010E+00 -0.979373899565E+00
  0.142875200487E+00 -0.142875617010E+00 -0.979373899565E+00
  0.142875186873E+00 -0.142876270351E+00 -0.979373806239E+00
  0.142875186873E+00 -0.142876270351E+00 -0.979373806239E+00
  0.142875181935E+00 -0.142876507288E+00 -0.979373772393E+00
  0.142875181935E+00 -0.142876507289E+00 -0.979373772393E+00
  0.142875198366E+00 -0.142875718800E+00 -0.979373885025E+00
  0.142875198366E+00 -0.142875718800E+00 -0.979373885025E+00
  0.142875193294E+00 -0.142875962212E+00 -0.979373850255E+00
  0.142875193294E+00 -0.142875962212E+00 -0.979373850255E+00
  0.142875183138E+00 -0.142876449557E+00 -0.979373780640E+00
  0.142875183138E+00 -0.142876449556E+00 -0.979373780640E+00
  0.142875198737E+00 -0.142875701014E+00 -0.979373887566E+00
  0.142875198737E+00 -0.142875701014E+00 -0.979373887566E+00
  0.142875188588E+00 -0.142876188024E+00 -0.979373817999E+00
  0.142875188588E+00 -0.142876188024E+00 -0.979373817999E+00
  0.142875188623E+00 -0.142876186339E+00 -0.979373818240E+00
  0.142875188623E+00 -0.142876186339E+00 -0.979373818240E+00
  0.142875188588E+00 -0.142876188024E+00 -0.979373817999E+00
  0.142875188588E+00 -0.142876188024E+00 -0.979373817999E+00
  0.142875198737E+00 -0.142875701014E+00 -0.979373887566E+00
  0.142875198737E+00 -0.142875701014E+00 -0.979373887566E+00
  0.142875183138E+00 -0.142876449556E+00 -0.979373780640E+00
  0.142875183138E+00 -0.142876449556E+00 -0.979373780640E+00
  0.142875193294E+00 -0.142875962212E+00 -0.979373850255E+00
  0.142875193294E+00 -0.142875962212E+00 -0.979373850255E+00
  0.142875198366E+00 -0.142875718800E+00 -0.979373885025E+00
  0.142875198366E+00 -0.142875718800E+00 -0.979373885025E+00
  0.142875181935E+00 -0.142876507289E+00 -0.979373772393E+00
  0.142875181935E+00 -0.142876507289E+00 -0.979373772393E+00
  0.142875197932E+00 -0.142875739664E+00 -0.979373882045E+00
  0.142875197932E+00 -0.142875739664E+00 -0.979373882045E+00
  0.142875186317E+00 -0.142876297016E+00 -0.979373802430E+00
  0.142875186317E+00 -0.142876297016E+00 -0.979373802430E+00
  0.142875197333E+00 -0.142875768390E+00 -0.979373877941E+00
  0.142875197333E+00 -0.142875768390E+00 -0.979373877941E+00
  0.142875184946E+00 -0.142876362793E+00 -0.979373793034E+00
  0.142875184946E+00 -0.142876362793E+00 -0.979373793034E+00
  0.142875196555E+00 -0.142875805710E+00 -0.979373872610E+00
  0.142875196555E+00 -0.142875805710E+00 -0.979373872610E+00
  0.142875183196E+00 -0.142876446785E+00 -0.979373781036E+00
  0.142875183196E+00 -0.142876446785E+00 -0.979373781036E+00
  0.142875195577E+00 -0.142875852653E+00 -0.979373865905E+00
  0.142875195577E+00 -0.142875852653E+00 -0.979373865905E+00
  0.142875195004E+00 -0.142875880142E+00 -0.979373861978E+00
  0.142875195004E+00 -0.142875880142E+00 -0.979373861978E+00
  0.142875194371E+00 -0.142875910541E+00 -0.979373857636E+00
  0.142875194371E+00 -0.142875910541E+00 -0.979373857636E+00
  0.142875178354E+00 -0.142876679145E+00 -0.979373747844E+00
  0.142875178354E+00 -0.142876679145E+00 -0.979373747844E+00
  0.142875192904E+00 -0.142875980942E+00 -0.979373847579E+00
  0.142875192904E+00 -0.142875980942E+00 -0.979373847580E+00
  0.142875192060E+00 -0.142876021424E+00 -0.979373841797E+00
  0.142875192060E+00 -0.142876021424E+00 -0.979373841797E+00
  0.142875191136E+00 -0.142876065777E+00 -0.979373835461E+00
  0.142875191136E+00 -0.142876065777E+00 -0.979373835461E+00
  0.142875190124E+00 -0.142876114326E+00 -0.979373828526E+00
  0.142875190124E+00 -0.142876114327E+00 -0.979373828526E+00
  0.142875189019E+00 -0.142876167375E+00 -0.979373820948E+00
  0.142875189019E+00 -0.142876167375E+00 -0.979373820948E+00
  0.142875208990E+00 -0.142875208990E+00 -0.979373957849E+00
  0.142875208990E+00 -0.142875208990E+00 -0.979373957849E+00
  0.142875163997E+00 -0.142877368064E+00 -0.979373649435E+00
  0.142875163997E+00 -0.142877368063E+00 -0.979373649435E+00
  0.142875208990E+00 -0.142875208990E+00 -0.979373957849E+00
  0.142875208990E+00 -0.142875208990E+00 -0.979373957849E+00
  0.142875208990E+00 -0.142875208990E+00 -0.979373957849E+00
  0.142875208990E+00 -0.142875208990E+00 -0.979373957849E+00
  0.142875181789E+00 -0.142876514294E+00 -0.979373771393E+00
  0.142875181789E+00 -0.142876514295E+00 -0.979373771393E+00
  0.142875179934E+00 -0.142876603321E+00 -0.979373758676E+00
  0.142875179934E+00 -0.142876603320E+00 -0.979373758676E+00
  0.142875177915E+00 -0.142876700180E+00 -0.979373744840E+00
  0.142875177915E+00 -0.142876700181E+00 -0.979373744840E+00
  0.142875208990E+00 -0.142875208990E+00 -0.979373957849E+00
  0.142875208990E+00 -0.142875208991E+00 -0.979373957849E+00
  0.142875173331E+00 -0.142876920161E+00 -0.979373713416E+00
  0.142875173331E+00 -0.142876920161E+00 -0.979373713416E+00
  0.142875247246E+00 -0.142873373152E+00 -0.979374220086E+00
  0.142875247246E+00 -0.142873373152E+00 -0.979374220086E+00
  0.142875126825E+00 -0.142879151819E+00 -0.979373394630E+00
  0.142875126825E+00 -0.142879151820E+00 -0.979373394630E+00
  0.142875208990E+00 -0.142875208991E+00 -0.979373957848E+00
  0.142875208990E+00 -0.142875208991E+00 -0.979373957848E+00
  0.142875161502E+00 -0.142877487814E+00 -0.979373632329E+00
  0.142875161502E+00 -0.142877487816E+00 -0.979373632329E+00
  0.142875260104E+00 -0.142872756111E+00 -0.979374308225E+00
  0.142875260104E+00 -0.142872756111E+00 -0.979374308225E+00
  0.142875153934E+00 -0.142877850967E+00 -0.979373580454E+00
  0.142875153934E+00 -0.142877850966E+00 -0.979373580454E+00
  0.142875208990E+00 -0.142875208990E+00 -0.979373957849E+00
  0.142875208990E+00 -0.142875208990E+00 -0.979373957849E+00
  0.142875145000E+00 -0.142878279674E+00 -0.979373519215E+00
  0.142875145000E+00 -0.142878279673E+00 -0.979373519215E+00
  0.142875278035E+00 -0.142871895649E+00 -0.979374431135E+00
  0.142875278035E+00 -0.142871895649E+00 -0.979374431135E+00
POINT_DATA                 160
SCALARS mu float 1
LOOKUP_TABLE default
 -0.463127627880E+01
 -0.463127627880E+01
 -0.462361279091E+01
 -0.462361279091E+01
 -0.463707218568E+01
 -0.463707218568E+01
 -0.464816324510E+01
 -0.464816324510E+01
 -0.465779779418E+01
 -0.465779779418E+01
 -0.466917501254E+01
 -0.466917501254E+01
 -0.468101614029E+01
 -0.468101614029E+01
 -0.469368734438E+01
 -0.469368734438E+01
 -0.471034686045E+01
 -0.471034686045E+01
 -0.472610354151E+01
 -0.472610354151E+01
 -0.473874595772E+01
 -0.473874595772E+01
 -0.475736070563E+01