# vtk DataFile Version 3.0
TriPan results file. Generated by TriPan, USU AeroLab (c) 2021.
ASCII
DATASET POLYDATA
POINTS                 144 float
  0.000000000000E+00  0.000000000000E+00  0.000000000000E+00
  0.113538098335E+01  0.000000000000E+00 -0.658124566078E+00
  0.113538098335E+01  0.000000000000E+00  0.658124566078E+00
  0.192375373840E+01  0.192375373840E+01  0.000000000000E+00
  0.305913543701E+01  0.192375373840E+01 -0.658124983311E+00
  0.305913543701E+01  0.192375373840E+01  0.658124983311E+00
  0.423028087616E+01  0.000000000000E+00 -0.108747220039E+01
  0.423028087616E+01  0.000000000000E+00  0.108747220039E+01
  0.547033166885E+01  0.547033166885E+01  0.000000000000E+00
  0.615403699875E+01  0.192375373840E+01 -0.108747279644E+01
  0.615403699875E+01  0.192375373840E+01  0.108747279644E+01
  0.660571479797E+01  0.547033166885E+01 -0.658125698566E+00
  0.660571479797E+01  0.547033166885E+01  0.658125698566E+00
  0.939508819580E+01  0.000000000000E+00 -0.980745851994E+00
  0.939508819580E+01  0.000000000000E+00  0.980745851994E+00
  0.970061969757E+01  0.547033166885E+01 -0.108747410774E+01
  0.970061969757E+01  0.547033166885E+01  0.108747410774E+01
  0.113188476562E+02  0.192375373840E+01 -0.980746448040E+00
  0.113188476562E+02  0.192375373840E+01  0.980746448040E+00
  0.113820018768E+02  0.113820018768E+02  0.000000000000E+00
  0.125173873901E+02  0.113820018768E+02 -0.658127009869E+00
  0.125173873901E+02  0.113820018768E+02  0.658127009869E+00
  0.145402030945E+02  0.000000000000E+00 -0.479613035917E+00
  0.145402030945E+02  0.000000000000E+00  0.479613035917E+00
  0.148654365540E+02  0.547033166885E+01 -0.980747580528E+00
  0.148654365540E+02  0.547033166885E+01  0.980747580528E+00
  0.156122989655E+02  0.113820018768E+02 -0.108747613430E+01
  0.156122989655E+02  0.113820018768E+02  0.108747613430E+01
  0.164639663696E+02  0.192375373840E+01 -0.479613333941E+00
  0.164639663696E+02  0.192375373840E+01  0.479613333941E+00
  0.176505107880E+02  0.000000000000E+00 -0.144198849797E+00
  0.176505107880E+02  0.000000000000E+00  0.144198849797E+00
  0.190000000000E+02  0.000000000000E+00  0.000000000000E+00
  0.195742740631E+02  0.192375373840E+01 -0.144198939204E+00
  0.195742740631E+02  0.192375373840E+01  0.144198939204E+00
  0.197561950684E+02  0.197561950684E+02  0.000000000000E+00
  0.200105609894E+02  0.547033166885E+01 -0.479613870382E+00
  0.200105609894E+02  0.547033166885E+01  0.479613870382E+00
  0.207771244049E+02  0.113820018768E+02 -0.980749428272E+00
  0.207771244049E+02  0.113820018768E+02  0.980749428272E+00
  0.208915824890E+02  0.197561950684E+02 -0.658128738403E+00
  0.208915824890E+02  0.197561950684E+02  0.658128738403E+00
  0.209237651825E+02  0.192375373840E+01  0.000000000000E+00
  0.231208724976E+02  0.547033166885E+01 -0.144199103117E+00
  0.231208724976E+02  0.547033166885E+01  0.144199103117E+00
  0.239865016937E+02  0.197561950684E+02 -0.108747911453E+01
  0.239865016937E+02  0.197561950684E+02  0.108747911453E+01
  0.244703655243E+02  0.547033166885E+01  0.000000000000E+00
  0.259222583771E+02  0.113820018768E+02 -0.479614794254E+00
  0.259222583771E+02  0.113820018768E+02  0.479614794254E+00
  0.290325775146E+02  0.113820018768E+02 -0.144199386239E+00
  0.290325775146E+02  0.113820018768E+02  0.144199386239E+00
  0.291513423920E+02  0.197561950684E+02 -0.980752110481E+00
  0.291513423920E+02  0.197561950684E+02  0.980752110481E+00
  0.292438049316E+02  0.292438049316E+02  0.000000000000E+00
  0.303791980743E+02  0.292438049316E+02 -0.658130764961E+00
  0.303791980743E+02  0.292438049316E+02  0.658130764961E+00
  0.303820724487E+02  0.113820018768E+02  0.000000000000E+00
  0.334741249084E+02  0.292438049316E+02 -0.108748245239E+01
  0.334741249084E+02  0.292438049316E+02  0.108748245239E+01
  0.342964897156E+02  0.197561950684E+02 -0.479616105556E+00
  0.342964897156E+02  0.197561950684E+02  0.479616105556E+00
  0.374068183899E+02  0.197561950684E+02 -0.144199773669E+00
  0.374068183899E+02  0.197561950684E+02  0.144199773669E+00
  0.376179962158E+02  0.376179962158E+02  0.000000000000E+00
  0.386389808655E+02  0.292438049316E+02 -0.980755090714E+00
  0.386389808655E+02  0.292438049316E+02  0.980755090714E+00
  0.387533912659E+02  0.376179962158E+02 -0.658132553101E+00
  0.387533912659E+02  0.376179962158E+02  0.658132553101E+00
  0.387563171387E+02  0.197561950684E+02  0.000000000000E+00
  0.418483314514E+02  0.376179962158E+02 -0.108748543262E+01
  0.418483314514E+02  0.376179962158E+02  0.108748543262E+01
  0.435296669006E+02  0.435296669006E+02  0.000000000000E+00
  0.437841453552E+02  0.292438049316E+02 -0.479617565870E+00
  0.437841453552E+02  0.292438049316E+02  0.479617565870E+00
  0.446650657654E+02  0.435296669006E+02 -0.658133804798E+00
  0.446650657654E+02  0.435296669006E+02  0.658133804798E+00
  0.468944816589E+02  0.292438049316E+02 -0.144200220704E+00
  0.468944816589E+02  0.292438049316E+02  0.144200220704E+00
  0.470131988525E+02  0.376179962158E+02 -0.980757772923E+00
  0.470131988525E+02  0.376179962158E+02  0.980757772923E+00
  0.470762481689E+02  0.470762481689E+02  0.000000000000E+00
  0.477600097656E+02  0.435296669006E+02 -0.108748745918E+01
  0.477600097656E+02  0.435296669006E+02  0.108748745918E+01
  0.482116432190E+02  0.470762481689E+02 -0.658134579659E+00
  0.482116432190E+02  0.470762481689E+02  0.658134579659E+00
  0.482439842224E+02  0.292438049316E+02  0.000000000000E+00
  0.490000000000E+02  0.490000000000E+02  0.000000000000E+00
  0.501353988647E+02  0.490000000000E+02 -0.658134996891E+00
  0.501353988647E+02  0.490000000000E+02  0.658134996891E+00
  0.506007728577E+02  0.494653701782E+02 -0.465371757746E+00
  0.506007728577E+02  0.494653701782E+02  0.465371757746E+00
  0.507935333252E+02  0.496581344604E+02 -0.771266485397E-15
  0.513065910339E+02  0.470762481689E+02 -0.108748877048E+01
  0.513065910339E+02  0.470762481689E+02  0.108748877048E+01
  0.521583786011E+02  0.376179962158E+02 -0.479618877172E+00
  0.521583786011E+02  0.376179962158E+02  0.479618877172E+00
  0.529248886108E+02  0.435296669006E+02 -0.980759620667E+00
  0.529248886108E+02  0.435296669006E+02  0.980759620667E+00
  0.532303466797E+02  0.490000000000E+02 -0.108748936653E+01
  0.532303466797E+02  0.490000000000E+02  0.108748936653E+01
  0.539993209839E+02  0.497689704895E+02 -0.768971264362E+00
  0.539993209839E+02  0.497689704895E+02  0.768971264362E+00
  0.543178405762E+02  0.500874900818E+02 -0.157378642191E-15
  0.552687225342E+02  0.376179962158E+02 -0.144200608134E+00
  0.552687225342E+02  0.376179962158E+02  0.144200608134E+00
  0.564714775085E+02  0.470762481689E+02 -0.980760753155E+00
  0.564714775085E+02  0.470762481689E+02  0.980760753155E+00
  0.566182289124E+02  0.376179962158E+02  0.000000000000E+00
  0.580700759888E+02  0.435296669006E+02 -0.479619771242E+00
  0.580700759888E+02  0.435296669006E+02  0.479619771242E+00
  0.583952369690E+02  0.490000000000E+02 -0.980761349201E+00
  0.583952369690E+02  0.490000000000E+02  0.980761349201E+00
  0.590887413025E+02  0.496935043335E+02 -0.693503141403E+00
  0.590887413025E+02  0.496935043335E+02  0.693503141403E+00
  0.593759994507E+02  0.499807624817E+02  0.000000000000E+00
  0.611804275513E+02  0.435296669006E+02 -0.144200876355E+00
  0.611804275513E+02  0.435296669006E+02  0.144200876355E+00
  0.616166725159E+02  0.470762481689E+02 -0.479620337486E+00
  0.616166725159E+02  0.470762481689E+02  0.479620337486E+00
  0.625299339294E+02  0.435296669006E+02  0.000000000000E+00
  0.635404319763E+02  0.490000000000E+02 -0.479620635509E+00
  0.635404319763E+02  0.490000000000E+02  0.479620635509E+00
  0.638795776367E+02  0.493391418457E+02 -0.339143037796E+00
  0.638795776367E+02  0.493391418457E+02  0.339143037796E+00
  0.640200576782E+02  0.494796218872E+02  0.296956834055E-15
  0.647270278931E+02  0.470762481689E+02 -0.144201040268E+00
  0.647270278931E+02  0.470762481689E+02  0.144201040268E+00
  0.660765380859E+02  0.470762481689E+02  0.000000000000E+00
  0.666507873535E+02  0.490000000000E+02 -0.144201144576E+00
  0.666507873535E+02  0.490000000000E+02  0.144201144576E+00
  0.667527542114E+02  0.491019668579E+02 -0.101965606213E+00
  0.667527542114E+02  0.491019668579E+02  0.101965606213E+00
  0.667949905396E+02  0.491441993713E+02 -0.260488604752E-16
  0.680002975464E+02  0.490000000000E+02  0.000000000000E+00
  0.190000000000E+02  0.000000000000E+00  0.000000000000E+00
  0.209237651825E+02  0.192375373840E+01  0.000000000000E+00
  0.244703655243E+02  0.547033166885E+01  0.000000000000E+00
  0.303820724487E+02  0.113820018768E+02  0.000000000000E+00
  0.387563171387E+02  0.197561950684E+02  0.000000000000E+00
  0.482439842224E+02  0.292438049316E+02  0.000000000000E+00
  0.566182289124E+02  0.376179962158E+02  0.000000000000E+00
  0.625299339294E+02  0.435296669006E+02  0.000000000000E+00
  0.660765380859E+02  0.470762481689E+02  0.000000000000E+00
POLYGONS                 256                1024
3                 135                  33                 136
3                  32                  30                  33
3                  30                  28                  33
3                  30                  22                  28
3                  22                  17                  28
3                  22                  13                  17
3                  13                   6                  17
3                  17                   6                   9
3                   6                   1                   9
3                   9                   1                   4
3                   1                   0                   4
3                   4                   0                   3
3                   0                   5                   3
3                   0                   2                   5
3                   2                  10                   5
3                   2                   7                  10
[...]
CELL_DATA                 256
SCALARS sigma float 1
LOOKUP_TABLE default
  0.381875471310E-01
  0.381874637437E-01
  0.372158060763E-01
  0.372158717888E-01
  0.475279002872E-01
  0.475278863219E-01
  0.123855615697E+00
  0.123855629065E+00
  0.276362158301E+00
  0.276362144032E+00
  0.555224557755E+00
  0.555224558374E+00
  0.331945202977E+00
  0.331945201894E+00
 -0.694932886560E-02
 -0.694931227114E-02
 -0.164733567771E+00
 -0.164733580767E+00
 -0.238483938016E+00
 -0.238483923787E+00
 -0.248196423050E+00
 -0.248196487989E+00
 -0.247283847694E+00
 -0.247283767590E+00
  0.381875761305E-01
  0.381875470181E-01
  0.372158180447E-01
  0.372158057718E-01
  0.475278929685E-01
  0.475279003655E-01
  0.123855628943E+00
  0.123855619144E+00
  0.276362144693E+00
  0.276362181862E+00
  0.555224552190E+00
  0.555224520210E+00
  0.331945149277E+00
  0.331945199280E+00
 -0.694928704184E-02
 -0.694932888223E-02
 -0.164733577206E+00
 -0.164733567609E+00
 -0.238483924180E+00
 -0.238483931464E+00
 -0.248196485958E+00
 -0.248196474107E+00
 -0.247283766858E+00
 -0.247283739174E+00
  0.381875182074E-01
  0.381875761231E-01
  0.372158756892E-01
  0.372158181137E-01
  0.475278939569E-01
  0.475278929974E-01
  0.123855619203E+00
  0.123855618923E+00
  0.276362181289E+00
  0.276362121480E+00
  0.555224517908E+00
  0.555224496533E+00
  0.331945115961E+00
  0.331945147901E+00
 -0.694935334343E-02
 -0.694928702743E-02
 -0.164733577561E+00
 -0.164733577285E+00
 -0.238483931609E+00
 -0.238483930680E+00
 -0.248196474567E+00
 -0.248196419585E+00
 -0.247283739126E+00
 -0.247283793937E+00
  0.381875329890E-01
  0.381875182431E-01
  0.372159089299E-01
  0.372158758266E-01
  0.475278804208E-01
  0.475278939360E-01
  0.123855618905E+00
  0.123855622238E+00
  0.276362122663E+00
  0.276362177846E+00
  0.555224510853E+00
  0.555224705190E+00
  0.331945409562E+00
  0.331945124522E+00
 -0.694929258802E-02
 -0.694935337317E-02
 -0.164733574256E+00
 -0.164733577537E+00
 -0.238483930575E+00
 -0.238483943571E+00
 -0.248196420502E+00
 -0.248196389046E+00
 -0.247283794168E+00
 -0.247283780242E+00
  0.381875042278E-01
  0.381875330230E-01
  0.372158485516E-01
  0.372159088753E-01
  0.475279095520E-01
  0.475278803865E-01
  0.123855622246E+00
  0.123855614089E+00
  0.276362177174E+00
  0.276362249500E+00
  0.555224679013E+00
  0.555224273029E+00
  0.331944801470E+00
  0.331945393912E+00
 -0.694921305052E-02
 -0.694929257110E-02
 -0.164733582299E+00
 -0.164733574266E+00
 -0.238483943399E+00
 -0.238483915411E+00
 -0.248196388682E+00
 -0.248196445924E+00
 -0.247283780462E+00
 -0.247283807639E+00
  0.381875188356E-01
  0.381875040897E-01
  0.372158163731E-01
  0.372158483837E-01
  0.475279316295E-01
  0.475279095202E-01
  0.123855614075E+00
  0.123855602210E+00
  0.276362248510E+00
  0.276362060061E+00
  0.555224288718E+00
  0.555224501631E+00
  0.331945123134E+00
  0.331944810849E+00
 -0.694942060176E-02
 -0.694921302561E-02
 -0.164733593960E+00
 -0.164733582281E+00
 -0.238483915251E+00
 -0.238483893991E+00
 -0.248196444805E+00
 -0.248196475223E+00
 -0.247283806745E+00
 -0.247283792820E+00
  0.381873230197E-01
  0.381875188976E-01
  0.372158788480E-01
  0.372158165556E-01
  0.475278913817E-01
  0.475279317105E-01
  0.123855602247E+00
  0.123855613372E+00
  0.276362059391E+00
  0.276362129070E+00
  0.555224470389E+00
  0.555224180258E+00
  0.331944670932E+00
  0.331945104456E+00
 -0.694934332510E-02
 -0.694942058490E-02
 -0.164733583075E+00
 -0.164733594009E+00
 -0.238483894397E+00
 -0.238483933462E+00
 -0.248196476440E+00
 -0.248196416954E+00
 -0.247283793221E+00
 -0.247283978596E+00
  0.381875008754E-01
  0.381873230184E-01
  0.372158818937E-01
  0.372158790364E-01
  0.475279254459E-01
  0.475278916650E-01
  0.123855613387E+00
  0.123855609299E+00
  0.276362138208E+00
  0.276362140230E+00
  0.555224342323E+00
  0.555225180403E+00
  0.331946078233E+00
  0.331944767823E+00
 -0.694934127859E-02
 -0.694934355488E-02
 -0.164733587098E+00
 -0.164733583094E+00
 -0.238483934883E+00
 -0.238483901618E+00
 -0.248196418210E+00
 -0.248196415451E+00
 -0.247283978588E+00
 -0.247283809453E+00
  0.381874257019E-01
  0.381875017195E-01
  0.372158210472E-01
  0.372158820647E-01
  0.475278683084E-01
  0.475279249125E-01
  0.123855609243E+00
  0.123855624521E+00
  0.276362127938E+00
  0.276362176340E+00
  0.555225000907E+00
  0.555224579556E+00
  0.331945232782E+00
  0.331945970920E+00
 -0.694928467761E-02
 -0.694934096950E-02
 -0.164733572171E+00
 -0.164733587023E+00
 -0.238483898942E+00
 -0.238483956614E+00
 -0.248196416591E+00
 -0.248196476891E+00
 -0.247283814920E+00
 -0.247283887945E+00
  0.367255649770E-01
  0.358054467293E-01
  0.358048682687E-01
  0.455401706772E-01
  0.455403391440E-01
  0.115279565948E+00
  0.115279647013E+00
  0.244665984397E+00
  0.244666113003E+00
  0.470965012374E+00
  0.281570010444E+00
 -0.615191598165E-02
 -0.615226583834E-02
 -0.153326840660E+00
 -0.153327027097E+00
 -0.228510990523E+00
 -0.228511072648E+00
 -0.238786674854E+00
 -0.238786462187E+00
 -0.237817562393E+00
 -0.463939710762E-01
 -0.474178550335E-01
 -0.474113195157E-01
 -0.366620937610E-01
 -0.366637836064E-01
  0.369964682107E-01
  0.369964446522E-01
  0.161580044405E+00
  0.161579999546E+00
  0.365504139759E+00
  0.296491476355E+00
  0.635268601300E-01
  0.635272638088E-01
 -0.754487654574E-01
 -0.754482484197E-01
 -0.156507456612E+00
 -0.156507500147E+00
 -0.168268004044E+00
 -0.168266778384E+00
 -0.167147317629E+00
SCALARS C_p_inc float 1
LOOKUP_TABLE default
 -0.672414220118E+00
 -0.128329913565E+01
 -0.317942968588E+00
 -0.262161257231E+00
 -0.175522418647E+00
 -0.157895647343E+00
 -0.593403768176E-01
 -0.100315072122E+00
  0.167450542568E+00
  0.749425764491E-01
  0.559843700834E+00
  0.558911386390E+00
 -0.321059155361E+00
  0.100109169111E+00
 -0.505066550965E+00
 -0.352141072420E+00
 -0.317344425727E+00
 -0.347705961512E+00
 -0.156165195383E+00
 -0.684461433263E-01
  0.148112327142E+00
  0.278799802752E+00
  0.631024145951E+00
  0.498743620494E+00
 -0.522927828604E+00
 -0.650040199672E+00
 -0.256860313872E+00
 -0.328827139588E+00
 -0.189490825305E+00
 -0.178420202754E+00
 -0.983403819478E-01
 -0.134654640627E+00
  0.742319884290E-01
  0.429973106108E-01
  0.484727821593E+00
  0.486122408802E+00
 -0.486341525193E+00
 -0.312339141178E+00
 -0.575651612952E+00
 -0.503187168703E+00
 -0.291203432176E+00
 -0.333539259646E+00
 -0.655923281326E-01
  0.367240115244E-02
  0.264151714803E+00
  0.252953177659E+00
  0.491930921857E+00
  0.460747736121E+00
 -0.480312470329E+00
 -0.519596903309E+00
 -0.229632674863E+00
 -0.257775956270E+00
 -0.178486743841E+00
 -0.192906497952E+00
 -0.134164722073E+00
 -0.143498343668E+00
  0.422108728851E-01
  0.295078499954E-01
  0.480075963163E+00
  0.480732952119E+00
 -0.529698278300E+00
 -0.485264183081E+00
 -0.582055236725E+00
 -0.581957788433E+00
 -0.265057087583E+00
 -0.302257122491E+00
  0.437085220339E-02
  0.181625148929E-01
  0.249699839914E+00
  0.242317966031E+00
  0.459894787595E+00
  0.451639159594E+00
 -0.464054584142E+00
 -0.479302411368E+00
 -0.220399958223E+00
 -0.229725345919E+00
 -0.172630968923E+00
 -0.179287413315E+00
 -0.144504431537E+00
 -0.142686910965E+00
  0.296451590873E-01
  0.274702844172E-01
  0.484540715317E+00
  0.483956868509E+00
 -0.519454272032E+00
 -0.530340777183E+00
 -0.573252454342E+00
 -0.587037897611E+00
 -0.258450285977E+00
 -0.268332027442E+00
  0.181507018619E-01
  0.196366226115E-01
  0.241888858698E+00
  0.239684030775E+00
  0.451751306556E+00
  0.448688990892E+00
 -0.446878676332E+00
 -0.463117893894E+00
 -0.214335173416E+00
 -0.220202730692E+00
 -0.170612635587E+00
 -0.172634333994E+00
 -0.143025442598E+00
 -0.143363091645E+00
  0.275375713744E-01
  0.254737541746E-01
  0.485589245374E+00
  0.484774935913E+00
 -0.508485593547E+00
 -0.519799501800E+00
 -0.567122059424E+00
 -0.574672677262E+00
 -0.255290322913E+00
 -0.259009776222E+00
  0.196324297090E-01
  0.204085436691E-01
  0.239744286191E+00
  0.237972809771E+00
  0.448998628810E+00
  0.445226956158E+00
 -0.397219161558E+00
 -0.445398277859E+00
 -0.198700682257E+00
 -0.213521610734E+00
 -0.168819830002E+00
 -0.170025342766E+00
 -0.142886433828E+00
 -0.148656214568E+00
  0.254066379039E-01
  0.187138684119E-01
  0.483703504984E+00
  0.482174667953E+00
 -0.494310986913E+00
 -0.508539314387E+00
 -0.558000706317E+00
 -0.567589821321E+00
 -0.249078140754E+00
 -0.255734500591E+00
  0.204151845155E-01
  0.239217270348E-01
  0.238562407564E+00
  0.235632628304E+00
  0.446661682569E+00
  0.436346691532E+00
 -0.282813606005E+00
 -0.395568280907E+00
 -0.153719691918E+00
 -0.196805959226E+00
 -0.154419269258E+00
 -0.166889916713E+00
 -0.146656777967E+00
 -0.161406279974E+00
  0.183381354240E-01
 -0.130267721081E-02
  0.476883383765E+00
  0.473698824603E+00
 -0.467823704657E+00
 -0.494197499522E+00
 -0.539257121188E+00
 -0.558572235935E+00
 -0.229645602896E+00
 -0.250831925183E+00
  0.239411076607E-01
  0.407600416802E-01
  0.238673893962E+00
  0.233878938384E+00
  0.444146412907E+00
  0.416135180120E+00
 -0.152537391416E+00
 -0.281783442154E+00
 -0.841359844221E-01
 -0.151208163148E+00
 -0.119566366972E+00
 -0.151392162540E+00
 -0.157805221612E+00
 -0.154817985229E+00
 -0.351153770682E-02
 -0.491935842478E-01
  0.455198623261E+00
  0.450258841188E+00
 -0.424858645570E+00
 -0.467428248450E+00
 -0.500456288107E+00
 -0.540877802328E+00
 -0.171625291850E+00
 -0.239053708387E+00
  0.403429559767E-01
  0.661353520409E-01
  0.241747931145E+00
  0.229206397427E+00
  0.437608870032E+00
  0.356769036217E+00
 -0.317227100131E+03
 -0.273585746809E+00
 -0.671032071602E+00
 -0.819886629928E-01
 -0.801530614362E-01
 -0.118859497438E+00
 -0.153639350328E+00
 -0.121375609051E+00
 -0.611353736447E-01
 -0.640035157346E-01
  0.350186974924E+00
  0.352979736341E+00
 -0.355055410598E+00
 -0.424382164928E+00
 -0.340041110426E+00
 -0.523792338459E+00
 -0.102868729313E+00
 -0.212055624671E+00
  0.563858711845E-01
  0.770013538621E-01
  0.231975366026E+00
 -0.382949980928E+00
  0.121231712191E+00
 -0.322168454117E+03
 -0.704293765716E+03
 -0.563668562294E+01
 -0.671030561573E+00
 -0.747480018611E-01
 -0.103809718001E+00
 -0.142289593336E+00
 -0.149398892630E+00
 -0.141081124584E+00
 -0.164306146970E+00
  0.204848267056E-01
 -0.364081702791E+00
 -0.270624829328E+00
 -0.400865866137E+00
 -0.126537625347E+00
 -0.222573556943E+00
  0.426438181444E-03
 -0.375835663358E-01
 -0.765666339019E+00
 -0.365382408935E+01
 -0.689671729589E+03
 -0.471543253051E+03
 -0.776806520518E+01
 -0.934666546707E+00
 -0.129730336077E+00
 -0.145081896158E+00
 -0.207853402491E+00
 -0.215337012470E+00
 -0.248111348513E+00
 -0.273296540487E+00
 -0.169224231010E+00
 -0.301801626735E+00
 -0.313496962936E+00
 -0.326136291850E+00
 -0.205345575571E+00
 -0.241858385385E+00
 -0.105888485993E+00
 -0.150373904785E+00
 -0.114279673241E+01
 -0.431899272724E+01
 -0.457165562180E+03
SCALARS inclination float 1
LOOKUP_TABLE default
  0.100000000000E+01
  0.100000000000E+01
  0.100000000000E+01
  0.100000000000E+01
  0.100000000000E+01
  0.100000000000E+01
  0.100000000000E+01
  0.100000000000E+01
  0.100000000000E+01
  0.100000000000E+01
  0.100000000000E+01
  0.100000000000E+01
  0.100000000000E+01
  0.100000000000E+01
  0.100000000000E+01
  0.100000000000E+01
  0.100000000000E+01
  0.100000000000E+01
  0.100000000000E+01
  0.100000000000E+01
  0.100000000000E+01
  0.100000000000E+01
  0.100000000000E+01
  0.100000000000E+01
  0.100000000000E+01
  0.100000000000E+01
  0.100000000000E+01
  0.100000000000E+01
  0.100000000000E+01
  0.100000000000E+01
  0.100000000000E+01
  0.100000000000E+01
  0.100000000000E+01
  0.100000000000E+01
  0.100000000000E+01
  0.100000000000E+01
  0.100000000000E+01
  0.100000000000E+01
  0.100000000000E+01
  0.100000000000E+01
  0.100000000000E+01
  0.100000000000E+01
  0.100000000000E+01
  0.100000000000E+01
  0.100000000000E+01
  0.100000000000E+01
  0.100000000000E+01
  0.100000000000E+01
  0.100000000000E+01
  0.100000000000E+01
  0.100000000000E+01
  0.100000000000E+01
  0.100000000000E+01
  0.100000000000E+01
  0.100000000000E+01
  0.100000000000E+01
  0.100000000000E+01
  0.100000000000E+01
  0.100000000000E+01
  0.100000000000E+01
  0.100000000000E+01
  0.100000000000E+01
  0.100000000000E+01
  0.100000000000E+01
  0.100000000000E+01
  0.100000000000E+01
  0.100000000000E+01
  0.100000000000E+01
  0.100000000000E+01
  0.100000000000E+01
  0.100000000000E+01
  0.100000000000E+01
  0.100000000000E+01
  0.100000000000E+01
  0.100000000000E+01
  0.100000000000E+01
  0.100000000000E+01
  0.100000000000E+01
  0.100000000000E+01
  0.100000000000E+01
  0.100000000000E+01
  0.100000000000E+01
  0.100000000000E+01
  0.100000000000E+01
  0.100000000000E+01
  0.100000000000E+01
  0.100000000000E+01
  0.100000000000E+01
  0.100000000000E+01
  0.100000000000E+01
  0.100000000000E+01
  0.100000000000E+01
  0.100000000000E+01
  0.100000000000E+01
  0.100000000000E+01
  0.100000000000E+01
  0.100000000000E+01
  0.100000000000E+01
  0.100000000000E+01
  0.100000000000E+01
  0.100000000000E+01
  0.100000000000E+01
  0.100000000000E+01
  0.100000000000E+01
  0.100000000000E+01
  0.100000000000E+01
  0.100000000000E+01
  0.100000000000E+01
  0.100000000000E+01
  0.100000000000E+01
  0.100000000000E+01
  0.100000000000E+01
  0.100000000000E+01
  0.100000000000E+01
  0.100000000000E+01
  0.100000000000E+01
  0.100000000000E+01
  0.100000000000E+01
  0.100000000000E+01
  0.100000000000E+01
  0.100000000000E+01
  0.100000000000E+01
  0.100000000000E+01
  0.100000000000E+01
  0.100000000000E+01
  0.100000000000E+01
  0.100000000000E+01
  0.100000000000E+01
  0.100000000000E+01
  0.100000000000E+01
  0.100000000000E+01
  0.100000000000E+01
  0.100000000000E+01
  0.100000000000E+01
  0.100000000000E+01
  0.100000000000E+01
  0.100000000000E+01
  0.100000000000E+01
  0.100000000000E+01
  0.100000000000E+01
  0.100000000000E+01
  0.100000000000E+01
  0.100000000000E+01
  0.100000000000E+01
  0.100000000000E+01
  0.100000000000E+01
  0.100000000000E+01
  0.100000000000E+01
  0.100000000000E+01
  0.100000000000E+01
  0.100000000000E+01
  0.100000000000E+01
  0.100000000000E+01
  0.100000000000E+01
  0.100000000000E+01
  0.100000000000E+01
  0.100000000000E+01
  0.100000000000E+01
  0.100000000000E+01
  0.100000000000E+01
  0.100000000000E+01
  0.100000000000E+01
  0.100000000000E+01
  0.100000000000E+01
  0.100000000000E+01
  0.100000000000E+01
  0.100000000000E+01
  0.100000000000E+01
  0.100000000000E+01
  0.100000000000E+01
  0.100000000000E+01
  0.100000000000E+01
  0.100000000000E+01
  0.100000000000E+01
  0.100000000000E+01
  0.100000000000E+01
  0.100000000000E+01
  0.100000000000E+01
  0.100000000000E+01
  0.100000000000E+01
  0.100000000000E+01
  0.100000000000E+01
  0.100000000000E+01
  0.100000000000E+01
  0.100000000000E+01
  0.100000000000E+01
  0.100000000000E+01
  0.100000000000E+01
  0.100000000000E+01
  0.100000000000E+01
  0.100000000000E+01
  0.100000000000E+01
  0.100000000000E+01
  0.100000000000E+01
  0.100000000000E+01
  0.100000000000E+01
  0.100000000000E+01
  0.100000000000E+01
  0.100000000000E+01
  0.100000000000E+01
  0.100000000000E+01
  0.100000000000E+01
  0.100000000000E+01
  0.100000000000E+01
  0.100000000000E+01
  0.100000000000E+01
  0.100000000000E+01
  0.100000000000E+01
  0.100000000000E+01
  0.100000000000E+01
  0.100000000000E+01
  0.100000000000E+01
  0.100000000000E+01
  0.100000000000E+01
  0.100000000000E+01
  0.100000000000E+01
  0.100000000000E+01
  0.100000000000E+01
  0.100000000000E+01
  0.100000000000E+01
  0.100000000000E+01
  0.100000000000E+01
  0.100000000000E+01
  0.100000000000E+01
  0.100000000000E+01
  0.100000000000E+01
  0.100000000000E+01
  0.100000000000E+01
  0.100000000000E+01
  0.100000000000E+01
  0.100000000000E+01
  0.100000000000E+01
  0.100000000000E+01
  0.100000000000E+01
  0.100000000000E+01
  0.100000000000E+01
  0.100000000000E+01
  0.100000000000E+01
  0.100000000000E+01
  0.100000000000E+01
  0.100000000000E+01
  0.100000000000E+01
  0.100000000000E+01
  0.100000000000E+01
  0.100000000000E+01
  0.100000000000E+01
  0.100000000000E+01
  0.100000000000E+01
  0.100000000000E+01
  0.100000000000E+01
  0.100000000000E+01
  0.100000000000E+01
  0.100000000000E+01
  0.100000000000E+01
  0.100000000000E+01
  0.100000000000E+01
VECTORS v float
  0.203768625006E+03 -0.468564924296E+02  0.267804031808E+02
  0.237645268013E+03 -0.565797970107E+02  0.314392731523E+02
  0.185928623333E+03 -0.486289645821E+01  0.205748875116E+02
  0.181831817863E+03 -0.741872452588E+01  0.204086986928E+02
  0.175874892091E+03 -0.146176970878E+01  0.172725418632E+02
  0.174495489491E+03 -0.374857669763E+01  0.173609266576E+02
  0.167704442626E+03  0.304248604121E+01  0.340259808816E+01
  0.170744685519E+03 -0.817641977868E+01  0.369725274602E+01
  0.146765814489E+03  0.158024741947E+02 -0.181682151375E+02
  0.155016675655E+03 -0.667358364270E+01 -0.224308768581E+02
  0.885535280756E+02  0.597895898966E+02 -0.166730416514E+02
  0.921489180124E+02  0.517687143892E+02 -0.234064199451E+02
  0.157977936367E+03 -0.140603039651E+02  0.997221147617E+02
  0.138139345452E+03  0.301971677456E+02  0.625687764312E+02
  0.195663877687E+03 -0.273273790161E+02  0.309350047236E+02
  0.187567490056E+03 -0.527212080224E+01  0.267521507451E+02
  0.186983575375E+03 -0.468819588178E+01 -0.396073306782E+01
  0.188832165544E+03 -0.115097428675E+02 -0.413989933490E+01
  0.174443770372E+03  0.287869899565E+01 -0.167103903746E+02
  0.167376414175E+03 -0.883773879954E+01 -0.171632145238E+02
  0.149403970301E+03  0.913479385473E+01 -0.151265587528E+02
  0.137636300973E+03  0.179343763215E+01 -0.146492415013E+02
  0.760828761696E+02  0.633471669593E+02 -0.136082996951E+01
  0.100644120873E+03  0.562686251746E+02 -0.474167710053E+01
  0.196414177840E+03 -0.356280983166E+02  0.247947339556E+02
  0.203830582687E+03 -0.401654065022E+02  0.260720491561E+02
  0.180690493663E+03 -0.170251839163E+02  0.213215921514E+02
  0.185782271514E+03 -0.175938256093E+02  0.219320122925E+02
  0.176654473887E+03 -0.846598561957E+01  0.180306871903E+02
  0.175805413285E+03 -0.885500957161E+01  0.179858786905E+02
  0.170746555155E+03 -0.379614038958E+01  0.360677540464E+01
  0.173294737998E+03 -0.100606791140E+02  0.378888702418E+01
  0.155292634970E+03  0.794143915821E+01 -0.204416576505E+02
  0.157972661006E+03  0.279119458875E+01 -0.215279367735E+02
  0.955342600092E+02  0.652296215694E+02 -0.175661077790E+02
  0.941834680126E+02  0.673905869460E+02 -0.155305139880E+02
  0.169702741787E+03 -0.812868682795E+01  0.103080123513E+03
  0.162405597169E+03  0.354510975020E+01  0.920836187774E+02
  0.199277556689E+03 -0.333268525793E+02  0.322686225574E+02
  0.195681096091E+03 -0.264154822350E+02  0.308108879481E+02
  0.184541544445E+03 -0.152759026931E+02 -0.412906288169E+01
  0.186976501103E+03 -0.212620822207E+02 -0.430307849624E+01
  0.167443221824E+03 -0.172873864986E+01 -0.164773023932E+02
  0.161836708972E+03 -0.429753835666E+01 -0.161814327856E+02
  0.137842118042E+03  0.196971649657E+02 -0.127406936793E+02
  0.138922297338E+03  0.195765320462E+02 -0.128701871847E+02
  0.100661828950E+03  0.578372212481E+02 -0.457595540237E+01
  0.106565230262E+03  0.542214170299E+02 -0.559312376212E+01
  0.194094024521E+03 -0.327192283522E+02  0.242360014343E+02
  0.196407535584E+03 -0.344894887044E+02  0.246723581887E+02
  0.178725979769E+03 -0.168078289487E+02  0.210862889085E+02
  0.180682535546E+03 -0.177174519226E+02  0.213953880122E+02
  0.175548050341E+03 -0.125829435915E+02  0.183239146756E+02
  0.176614577382E+03 -0.127113733014E+02  0.184403033857E+02
  0.173295023496E+03 -0.939181409167E+01  0.377507091496E+01
  0.173938869454E+03 -0.105988578704E+02  0.381331847622E+01
  0.158020402609E+03  0.531962480178E+01 -0.211837973383E+02
  0.159080813400E+03  0.367682596283E+01 -0.215587961727E+02
  0.944213212074E+02  0.683363456605E+02 -0.151201751954E+02
  0.940291105350E+02  0.688631910109E+02 -0.145874429196E+02