# vtk DataFile Version 3.0
MachLine results file. Generated by MachLine, USU AeroLab (c) 2022.
ASCII
DATASET POLYDATA
POINTS                  76 float
  0.197579002380E+02  0.757896304131E+00  0.000000000000E+00
  0.190000000000E+02  0.000000000000E+00  0.000000000000E+00
  0.147446588929E+05  0.757896304131E+00  0.270252505281E+04
  0.147450007963E+05  0.000000000000E+00  0.270272690454E+04
  0.207889842987E+02  0.178897356987E+01  0.000000000000E+00
  0.197579002380E+02  0.757896304131E+00  0.000000000000E+00
  0.147441937510E+05  0.178897356987E+01  0.270225044396E+04
  0.147446588929E+05  0.757896304131E+00  0.270252505281E+04
  0.221728172302E+02  0.317279767990E+01  0.000000000000E+00
  0.207889842987E+02  0.178897356987E+01  0.000000000000E+00
  0.147435694774E+05  0.317279767990E+01  0.270188188743E+04
  0.147441937510E+05  0.178897356987E+01  0.270225044396E+04
  0.239966468811E+02  0.499661636353E+01  0.000000000000E+00
  0.221728172302E+02  0.317279767990E+01  0.000000000000E+00
  0.147427467127E+05  0.499661636353E+01  0.270139614647E+04
  0.147435694774E+05  0.317279767990E+01  0.270188188743E+04
  0.263436698914E+02  0.734362459183E+01  0.000000000000E+00
  0.239966468811E+02  0.499661636353E+01  0.000000000000E+00
  0.147416879254E+05  0.734362459183E+01  0.270077106331E+04
  0.147427467127E+05  0.499661636353E+01  0.270139614647E+04
  0.292729015350E+02  0.102728376389E+02  0.000000000000E+00
  0.263436698914E+02  0.734362459183E+01  0.000000000000E+00
  0.147403664926E+05  0.102728376389E+02  0.269999092040E+04
  0.147416879254E+05  0.734362459183E+01  0.270077106331E+04
  0.327922058105E+02  0.137921218872E+02  0.000000000000E+00
  0.292729015350E+02  0.102728376389E+02  0.000000000000E+00
  0.147387788667E+05  0.137921218872E+02  0.269905362331E+04
  0.147403664926E+05  0.102728376389E+02  0.269999092040E+04
  0.368321151733E+02  0.178320064545E+02  0.000000000000E+00
  0.327922058105E+02  0.137921218872E+02  0.000000000000E+00
  0.147369563858E+05  0.178320064545E+02  0.269797767335E+04
  0.147387788667E+05  0.137921218872E+02  0.269905362331E+04
  0.412340698242E+02  0.222339305878E+02  0.000000000000E+00
  0.368321151733E+02  0.178320064545E+02  0.000000000000E+00
  0.147349705792E+05  0.222339305878E+02  0.269680529980E+04
  0.147369563858E+05  0.178320064545E+02  0.269797767335E+04
  0.457662315369E+02  0.267660694122E+02  0.000000000000E+00
  0.412340698242E+02  0.222339305878E+02  0.000000000000E+00
  0.147329260338E+05  0.267660694122E+02  0.269559824816E+04
  0.147349705792E+05  0.222339305878E+02  0.269680529980E+04
  0.501681861877E+02  0.311679935455E+02  0.000000000000E+00
  0.457662315369E+02  0.267660694122E+02  0.000000000000E+00
  0.147309402273E+05  0.311679935455E+02  0.269442587460E+04
  0.147329260338E+05  0.267660694122E+02  0.269559824816E+04
  0.542080955505E+02  0.352078781128E+02  0.000000000000E+00
  0.501681861877E+02  0.311679935455E+02  0.000000000000E+00
  0.147291177464E+05  0.352078781128E+02  0.269334992465E+04
  0.147309402273E+05  0.311679935455E+02  0.269442587460E+04
  0.577274017334E+02  0.387271614075E+02  0.000000000000E+00
  0.542080955505E+02  0.352078781128E+02  0.000000000000E+00
  0.147275301196E+05  0.387271614075E+02  0.269241262705E+04
  0.147291177464E+05  0.352078781128E+02  0.269334992465E+04
  0.606566314697E+02  0.416563758850E+02  0.000000000000E+00
  0.577274017334E+02  0.387271614075E+02  0.000000000000E+00
  0.147262086877E+05  0.416563758850E+02  0.269163248465E+04
  0.147275301196E+05  0.387271614075E+02  0.269241262705E+04
  0.630036544800E+02  0.440033836365E+02  0.000000000000E+00
  0.606566314697E+02  0.416563758850E+02  0.000000000000E+00
  0.147251499004E+05  0.440033836365E+02  0.269100740149E+04
  0.147262086877E+05  0.416563758850E+02  0.269163248465E+04
  0.648274841309E+02  0.458272018433E+02  0.000000000000E+00
  0.630036544800E+02  0.440033836365E+02  0.000000000000E+00
  0.147243271357E+05  0.458272018433E+02  0.269052166053E+04
  0.147251499004E+05  0.440033836365E+02  0.269100740149E+04
  0.662113189697E+02  0.472110252380E+02  0.000000000000E+00
  0.648274841309E+02  0.458272018433E+02  0.000000000000E+00
  0.147237028612E+05  0.472110252380E+02  0.269015310349E+04
  0.147243271357E+05  0.458272018433E+02  0.269052166053E+04
  0.672424011230E+02  0.482421035767E+02  0.000000000000E+00
  0.662113189697E+02  0.472110252380E+02  0.000000000000E+00
  0.147232377201E+05  0.482421035767E+02  0.268987849515E+04
  0.147237028612E+05  0.472110252380E+02  0.269015310349E+04
  0.680002975464E+02  0.490000000000E+02  0.000000000000E+00
  0.672424011230E+02  0.482421035767E+02  0.000000000000E+00
  0.147228958185E+05  0.490000000000E+02  0.268967664443E+04
  0.147232377201E+05  0.482421035767E+02  0.268987849515E+04
POLYGONS                  38                 152
3                   0                   3                   1
3                   0                   2                   3
3                   4                   7                   5
3                   4                   6                   7
3                   8                  11                   9
3                   8                  10                  11
3                  12                  15                  13
3                  12                  14                  15
3                  16                  19                  17
3                  16                  18                  19
3                  20                  23                  21
3                  20                  22                  23
3                  24                  27                  25
3                  24                  26                  27
3                  28                  31                  29
3                  28                  30                  31
3                  32                  35                  33
3                  32                  34                  35
3                  36                  39                  37
3                  36                  38                  39
3                  40                  43                  41
3                  40                  42                  43
3                  44                  47                  45
3                  44                  46                  47
3                  48                  51                  49
3                  48                  50                  51
3                  52                  55                  53
3                  52                  54                  55
3                  56                  59                  57
3                  56                  58                  59
3                  60                  63                  61
3                  60                  62                  63
3                  64                  67                  65
3                  64                  66                  67
3                  68                  71                  69
3                  68                  70                  71
3                  72                  75                  73
3                  72                  74                  75
POINT_DATA                  76
SCALARS mu float 1
LOOKUP_TABLE default
  0.812333469494E+01
 -0.452683221203E-01
  0.812333469494E+01
 -0.452683221203E-01
  0.321942917694E+02
  0.812333469494E+01
  0.321942917694E+02
  0.812333469494E+01
 -0.200528313198E+02
  0.321942917694E+02
 -0.200528313198E+02
  0.321942917694E+02
  0.482510266300E+01
 -0.200528313198E+02
  0.482510266300E+01
 -0.200528313198E+02
 -0.951371058064E+00
  0.482510266300E+01
 -0.951371058064E+00
  0.482510266300E+01
  0.553060145829E+00
 -0.951371058064E+00
  0.553060145829E+00
 -0.951371058064E+00
  0.284784928185E+00
  0.553060145829E+00
  0.284784928185E+00
  0.553060145829E+00
  0.448109168894E+00
  0.284784928185E+00
  0.448109168894E+00
  0.284784928185E+00
  0.469777196838E+00
  0.448109168894E+00
  0.469777196838E+00
  0.448109168894E+00
  0.472007901370E+00
  0.469777196838E+00
  0.472007901370E+00
  0.469777196838E+00
  0.587182194032E+00
  0.472007901370E+00
  0.587182194032E+00
  0.472007901370E+00
  0.331159006122E+00
  0.587182194032E+00
  0.331159006122E+00
  0.587182194032E+00
  0.209391639234E+00
  0.331159006122E+00
  0.209391639234E+00
  0.331159006122E+00
  0.145897523891E+00
  0.209391639234E+00
  0.145897523891E+00
  0.209391639234E+00
  0.451107840125E+00
  0.145897523891E+00
  0.451107840125E+00
  0.145897523891E+00
  0.100317495469E+01
  0.451107840125E+00
  0.100317495469E+01
  0.451107840125E+00
  0.948923352907E+00
  0.100317495469E+01
  0.948923352907E+00
  0.100317495469E+01
  0.778716587719E+00
  0.948923352907E+00
  0.778716587719E+00
  0.948923352907E+00
  0.000000000000E+00
  0.778716587719E+00
  0.000000000000E+00
  0.778716587719E+00
