# vtk DataFile Version 3.0
TriPan results file. Generated by TriPan, USU AeroLab (c) 2021.
ASCII
DATASET POLYDATA
POINTS                  20 float
     20.924055099500      1.923753738400      0.000000000000
     99.659151663972      1.923753738400      8.553368661876
     19.000301361100      0.000000000000      0.000000000000
     99.636713268091      0.000000000000      8.759917606078
     24.470632553100      5.470331668850      0.000000000000
     99.700518449824      5.470331668850      8.172580926965
     30.382303237900     11.382001876800      0.000000000000
     99.769471353982     11.382001876800      7.537858657663
     38.756496429400     19.756195068400      0.000000000000
     99.867146777955     19.756195068400      6.638741100294
     48.244106292700     29.243804931600      0.000000000000
     99.977808939038     29.243804931600      5.620078596280
     56.618297576900     37.617996215800      0.000000000000
    100.075484340765     37.617996215800      4.720961243693
     62.529968261700     43.529666900600      0.000000000000
    100.144437244923     43.529666900600      4.086238974391
     66.076545715300     47.076248168900      0.000000000000
    100.185804030775     47.076248168900      3.705451239480
     68.000297546400     49.000000000000      0.000000000000
    100.208242404410     49.000000000000      3.498902500060
POLYGONS                  18                  72
3                   0                   1                   3
3                   0                   3                   2
3                   4                   5                   1
3                   4                   1                   0
3                   6                   7                   5
3                   6                   5                   4
3                   8                   9                   7
3                   8                   7                   6
3                  10                  11                   9
3                  10                   9                   8
3                  12                  13                  11
3                  12                  11                  10
3                  14                  15                  13
3                  14                  13                  12
3                  16                  17                  15
3                  16                  15                  14
3                  18                  19                  17
3                  18                  17                  16
POINT_DATA                  20
SCALARS mu float 1
LOOKUP_TABLE default
     -3.684933762027
     -3.684933762027
     -3.924595488111
     -3.924595488111
     -3.582423066432
     -3.582423066432
     -3.575736528613
     -3.575736528613
     -3.541991303171
     -3.541991303171
     -3.373807158954
     -3.373807158954
     -2.936731328922
     -2.936731328922
     -2.188492844966
     -2.188492844966
     -1.192502310970
     -1.192502310970
      0.000000000000
      0.000000000000
