# vtk DataFile Version 3.0
TriPan results file. Generated by TriPan, USU AeroLab (c) 2021.
ASCII
DATASET POLYDATA
POINTS                 309 float
  0.000000000000E+00  0.000000000000E+00  0.000000000000E+00
  0.420131176710E+00  0.000000000000E+00 -0.412075400352E+00
  0.420131176710E+00  0.000000000000E+00  0.412075400352E+00
  0.928174138069E+00  0.928174138069E+00  0.000000000000E+00
  0.134830534458E+01  0.928174138069E+00 -0.412075400352E+00
  0.134830534458E+01  0.928174138069E+00  0.412075400352E+00
  0.181353092194E+01  0.000000000000E+00 -0.806821227074E+00
  0.181353092194E+01  0.000000000000E+00  0.806821227074E+00
  0.226196575165E+01  0.226196575165E+01  0.000000000000E+00
  0.268209695816E+01  0.226196575165E+01 -0.412075400352E+00
  0.268209695816E+01  0.226196575165E+01  0.412075400352E+00
  0.274170517921E+01  0.928174138069E+00 -0.806821227074E+00
  0.274170517921E+01  0.928174138069E+00  0.806821227074E+00
  0.407549667358E+01  0.226196575165E+01 -0.806821227074E+00
  0.407549667358E+01  0.226196575165E+01  0.806821227074E+00
  0.413893461227E+01  0.413893461227E+01  0.000000000000E+00
  0.455906581879E+01  0.413893461227E+01 -0.412075400352E+00
  0.455906581879E+01  0.413893461227E+01  0.412075400352E+00
  0.479629611969E+01  0.000000000000E+00 -0.111707651615E+01
  0.479629611969E+01  0.000000000000E+00  0.111707651615E+01
  0.572447013855E+01  0.928174138069E+00 -0.111707651615E+01
  0.572447013855E+01  0.928174138069E+00  0.111707651615E+01
  0.595246553421E+01  0.413893461227E+01 -0.806821227074E+00
  0.595246553421E+01  0.413893461227E+01  0.806821227074E+00
  0.670394468307E+01  0.670394468307E+01  0.000000000000E+00
  0.705826187134E+01  0.226196575165E+01 -0.111707651615E+01
  0.705826187134E+01  0.226196575165E+01  0.111707651615E+01
  0.712407588959E+01  0.670394468307E+01 -0.412075400352E+00
  0.712407588959E+01  0.670394468307E+01  0.412075400352E+00
  0.851747608185E+01  0.670394468307E+01 -0.806821227074E+00
  0.851747608185E+01  0.670394468307E+01  0.806821227074E+00
  0.893523120880E+01  0.413893461227E+01 -0.111707651615E+01
  0.893523120880E+01  0.413893461227E+01  0.111707651615E+01
  0.939523696899E+01  0.000000000000E+00 -0.980761349201E+00
  0.939523696899E+01  0.000000000000E+00  0.980761349201E+00
  0.100722141266E+02  0.100722141266E+02  0.000000000000E+00
  0.103234109879E+02  0.928174138069E+00 -0.980761349201E+00
  0.103234109879E+02  0.928174138069E+00  0.980761349201E+00
  0.104923458099E+02  0.100722141266E+02 -0.412075400352E+00
  0.104923458099E+02  0.100722141266E+02  0.412075400352E+00
  0.115002412796E+02  0.670394468307E+01 -0.111707651615E+01
  0.115002412796E+02  0.670394468307E+01  0.111707651615E+01
  0.116572027206E+02  0.226196575165E+01 -0.980761349201E+00
  0.116572027206E+02  0.226196575165E+01  0.980761349201E+00
  0.118857450485E+02  0.100722141266E+02 -0.806821227074E+00
  0.118857450485E+02  0.100722141266E+02  0.806821227074E+00
  0.135341711044E+02  0.413893461227E+01 -0.980761349201E+00
  0.135341711044E+02  0.413893461227E+01  0.980761349201E+00
  0.139772081375E+02  0.000000000000E+00 -0.540150463581E+00
  0.139772081375E+02  0.000000000000E+00  0.540150463581E+00
  0.142710342407E+02  0.142710342407E+02  0.000000000000E+00
  0.146911659241E+02  0.142710342407E+02 -0.412075400352E+00
  0.146911659241E+02  0.142710342407E+02  0.412075400352E+00
  0.148685102463E+02  0.100722141266E+02 -0.111707651615E+01
  0.148685102463E+02  0.100722141266E+02  0.111707651615E+01
  0.149053821564E+02  0.928174138069E+00 -0.540150463581E+00
  0.149053821564E+02  0.928174138069E+00  0.540150463581E+00
  0.160845661163E+02  0.142710342407E+02 -0.806821227074E+00
  0.160845661163E+02  0.142710342407E+02  0.806821227074E+00
  0.160991821289E+02  0.670394468307E+01 -0.980761349201E+00
  0.160991821289E+02  0.670394468307E+01  0.980761349201E+00
  0.162391738892E+02  0.226196575165E+01 -0.540150463581E+00
  0.162391738892E+02  0.226196575165E+01  0.540150463581E+00
  0.169605827332E+02  0.000000000000E+00 -0.218344569206E+00
  0.169605827332E+02  0.000000000000E+00  0.218344569206E+00
  0.178887577057E+02  0.928174138069E+00 -0.218344569206E+00
  0.178887577057E+02  0.928174138069E+00  0.218344569206E+00
  0.181161422729E+02  0.413893461227E+01 -0.540150463581E+00
  0.181161422729E+02  0.413893461227E+01  0.540150463581E+00
  0.184032192230E+02  0.000000000000E+00 -0.636830478907E-01
  0.184032192230E+02  0.000000000000E+00  0.636830478907E-01
  0.190003013611E+02  0.000000000000E+00  0.000000000000E+00
  0.190673313141E+02  0.142710342407E+02 -0.111707651615E+01
  0.190673313141E+02  0.142710342407E+02  0.111707651615E+01
  0.191784667969E+02  0.191784667969E+02  0.000000000000E+00
  0.192225494385E+02  0.226196575165E+01 -0.218344569206E+00
  0.192225494385E+02  0.226196575165E+01  0.218344569206E+00
  0.193313941956E+02  0.928174138069E+00 -0.636830478907E-01
  0.193313941956E+02  0.928174138069E+00  0.636830478907E-01
  0.194674510956E+02  0.100722141266E+02 -0.980761349201E+00
  0.194674510956E+02  0.100722141266E+02  0.980761349201E+00
  0.195985984802E+02  0.191784667969E+02 -0.412075400352E+00
  0.195985984802E+02  0.191784667969E+02  0.412075400352E+00
  0.199284744263E+02  0.928174138069E+00  0.000000000000E+00
  0.206651840210E+02  0.226196575165E+01 -0.636830478907E-01
  0.206651840210E+02  0.226196575165E+01  0.636830478907E-01
  0.206811523438E+02  0.670394468307E+01 -0.540150463581E+00
  0.206811523438E+02  0.670394468307E+01  0.540150463581E+00
  0.209919986725E+02  0.191784667969E+02 -0.806821227074E+00
  0.209919986725E+02  0.191784667969E+02  0.806821227074E+00
  0.210995178223E+02  0.413893461227E+01 -0.218344569206E+00
  0.210995178223E+02  0.413893461227E+01  0.218344569206E+00
  0.212622661591E+02  0.226196575165E+01  0.000000000000E+00
  0.225421543121E+02  0.413893461227E+01 -0.636830478907E-01
  0.225421543121E+02  0.413893461227E+01  0.636830478907E-01
  0.231392364502E+02  0.413893461227E+01  0.000000000000E+00
  0.236645278931E+02  0.670394468307E+01 -0.218344569206E+00
  0.236645278931E+02  0.670394468307E+01  0.218344569206E+00
  0.236662712097E+02  0.142710342407E+02 -0.980761349201E+00
  0.236662712097E+02  0.142710342407E+02  0.980761349201E+00
  0.239747638702E+02  0.191784667969E+02 -0.111707651615E+01
  0.239747638702E+02  0.191784667969E+02  0.111707651615E+01
  0.240494232178E+02  0.100722141266E+02 -0.540150463581E+00
  0.240494232178E+02  0.100722141266E+02  0.540150463581E+00
  0.245000000000E+02  0.245000000000E+02  0.000000000000E+00
  0.249201316833E+02  0.245000000000E+02 -0.412075400352E+00
  0.249201316833E+02  0.245000000000E+02  0.412075400352E+00
  0.251071643829E+02  0.670394468307E+01 -0.636830478907E-01
  0.251071643829E+02  0.670394468307E+01  0.636830478907E-01
  0.257042465210E+02  0.670394468307E+01  0.000000000000E+00
  0.263135318756E+02  0.245000000000E+02 -0.806821227074E+00
  0.263135318756E+02  0.245000000000E+02  0.806821227074E+00
  0.270327968597E+02  0.100722141266E+02 -0.218344569206E+00
  0.270327968597E+02  0.100722141266E+02  0.218344569206E+00
  0.282482414246E+02  0.142710342407E+02 -0.540150463581E+00
  0.282482414246E+02  0.142710342407E+02  0.540150463581E+00
  0.284754333496E+02  0.100722141266E+02 -0.636830478907E-01
  0.284754333496E+02  0.100722141266E+02  0.636830478907E-01
  0.285737037659E+02  0.191784667969E+02 -0.980761349201E+00
  0.285737037659E+02  0.191784667969E+02  0.980761349201E+00
  0.290725154877E+02  0.100722141266E+02  0.000000000000E+00
  0.292962951660E+02  0.245000000000E+02 -0.111707651615E+01
  0.292962951660E+02  0.245000000000E+02  0.111707651615E+01
  0.298215332031E+02  0.298215332031E+02  0.000000000000E+00
  0.302416648865E+02  0.298215332031E+02 -0.412075400352E+00
  0.302416648865E+02  0.298215332031E+02  0.412075400352E+00
  0.312316169739E+02  0.142710342407E+02 -0.218344569206E+00
  0.312316169739E+02  0.142710342407E+02  0.218344569206E+00
  0.316350631714E+02  0.298215332031E+02 -0.806821227074E+00
  0.316350631714E+02  0.298215332031E+02  0.806821227074E+00
  0.326742553711E+02  0.142710342407E+02 -0.636830478907E-01
  0.326742553711E+02  0.142710342407E+02  0.636830478907E-01
  0.331556739807E+02  0.191784667969E+02 -0.540150463581E+00
  0.331556739807E+02  0.191784667969E+02  0.540150463581E+00
  0.332713356018E+02  0.142710342407E+02  0.000000000000E+00
  0.338952369690E+02  0.245000000000E+02 -0.980761349201E+00
  0.338952369690E+02  0.245000000000E+02  0.980761349201E+00
  0.346178283691E+02  0.298215332031E+02 -0.111707651615E+01
  0.346178283691E+02  0.298215332031E+02  0.111707651615E+01
  0.347289657593E+02  0.347289657593E+02  0.000000000000E+00
  0.351490974426E+02  0.347289657593E+02 -0.412075400352E+00
  0.351490974426E+02  0.347289657593E+02  0.412075400352E+00
  0.361390495300E+02  0.191784667969E+02 -0.218344569206E+00
  0.361390495300E+02  0.191784667969E+02  0.218344569206E+00
  0.365424957275E+02  0.347289657593E+02 -0.806821227074E+00
  0.365424957275E+02  0.347289657593E+02  0.806821227074E+00
  0.375816879272E+02  0.191784667969E+02 -0.636830478907E-01
  0.375816879272E+02  0.191784667969E+02  0.636830478907E-01
  0.381787681580E+02  0.191784667969E+02  0.000000000000E+00
  0.384772071838E+02  0.245000000000E+02 -0.540150463581E+00
  0.384772071838E+02  0.245000000000E+02  0.540150463581E+00
  0.389277839661E+02  0.389277839661E+02  0.000000000000E+00
  0.392167701721E+02  0.298215332031E+02 -0.980761349201E+00
  0.392167701721E+02  0.298215332031E+02  0.980761349201E+00
  0.393479156494E+02  0.389277839661E+02 -0.412075400352E+00
  0.393479156494E+02  0.389277839661E+02  0.412075400352E+00
  0.395252609253E+02  0.347289657593E+02 -0.111707651615E+01
  0.395252609253E+02  0.347289657593E+02  0.111707651615E+01
  0.407413177490E+02  0.389277839661E+02 -0.806821227074E+00
  0.407413177490E+02  0.389277839661E+02  0.806821227074E+00
  0.414605827332E+02  0.245000000000E+02 -0.218344569206E+00
[...]
CELL_DATA                 568
SCALARS sigma float 1
LOOKUP_TABLE default
  0.000000000000E+00
  0.000000000000E+00
  0.000000000000E+00
  0.000000000000E+00
  0.000000000000E+00
  0.000000000000E+00
  0.000000000000E+00
  0.000000000000E+00
  0.000000000000E+00
  0.000000000000E+00
  0.000000000000E+00
  0.000000000000E+00
  0.000000000000E+00
  0.000000000000E+00
  0.000000000000E+00
  0.000000000000E+00
  0.000000000000E+00
  0.000000000000E+00
  0.000000000000E+00
  0.000000000000E+00
  0.000000000000E+00
  0.000000000000E+00
  0.000000000000E+00
  0.000000000000E+00
  0.000000000000E+00
  0.000000000000E+00
  0.000000000000E+00
  0.000000000000E+00
  0.000000000000E+00
  0.000000000000E+00
  0.000000000000E+00
  0.000000000000E+00
  0.000000000000E+00
  0.000000000000E+00
  0.000000000000E+00
  0.000000000000E+00
  0.000000000000E+00
  0.000000000000E+00
  0.000000000000E+00
  0.000000000000E+00
  0.000000000000E+00
  0.000000000000E+00
  0.000000000000E+00
  0.000000000000E+00
  0.000000000000E+00
  0.000000000000E+00
  0.000000000000E+00
  0.000000000000E+00
  0.000000000000E+00
  0.000000000000E+00
  0.000000000000E+00
  0.000000000000E+00
  0.000000000000E+00
  0.000000000000E+00
  0.000000000000E+00
  0.000000000000E+00
  0.000000000000E+00
  0.000000000000E+00
  0.000000000000E+00
  0.000000000000E+00
  0.000000000000E+00
  0.000000000000E+00
  0.000000000000E+00
  0.000000000000E+00
  0.000000000000E+00
  0.000000000000E+00
  0.000000000000E+00
  0.000000000000E+00
  0.000000000000E+00
  0.000000000000E+00
  0.000000000000E+00
  0.000000000000E+00
  0.000000000000E+00
  0.000000000000E+00
  0.000000000000E+00
  0.000000000000E+00
  0.000000000000E+00
  0.000000000000E+00
  0.000000000000E+00
  0.000000000000E+00
  0.000000000000E+00
  0.000000000000E+00
  0.000000000000E+00
  0.000000000000E+00
  0.000000000000E+00
  0.000000000000E+00
  0.000000000000E+00
  0.000000000000E+00
  0.000000000000E+00
  0.000000000000E+00
  0.000000000000E+00
  0.000000000000E+00
  0.000000000000E+00
  0.000000000000E+00
  0.000000000000E+00
  0.000000000000E+00
  0.000000000000E+00
  0.000000000000E+00
  0.000000000000E+00
  0.000000000000E+00
  0.000000000000E+00
  0.000000000000E+00
  0.000000000000E+00
  0.000000000000E+00
  0.000000000000E+00
  0.000000000000E+00
  0.000000000000E+00
  0.000000000000E+00
  0.000000000000E+00
  0.000000000000E+00
  0.000000000000E+00
  0.000000000000E+00
  0.000000000000E+00
  0.000000000000E+00
  0.000000000000E+00
  0.000000000000E+00
  0.000000000000E+00
  0.000000000000E+00
  0.000000000000E+00
  0.000000000000E+00
  0.000000000000E+00
  0.000000000000E+00
  0.000000000000E+00
  0.000000000000E+00
  0.000000000000E+00
  0.000000000000E+00
  0.000000000000E+00
  0.000000000000E+00
  0.000000000000E+00
  0.000000000000E+00
  0.000000000000E+00
  0.000000000000E+00
  0.000000000000E+00
  0.000000000000E+00
  0.000000000000E+00
  0.000000000000E+00
  0.000000000000E+00
  0.000000000000E+00
  0.000000000000E+00
  0.000000000000E+00
  0.000000000000E+00
  0.000000000000E+00
  0.000000000000E+00
  0.000000000000E+00
  0.000000000000E+00
  0.000000000000E+00
  0.000000000000E+00
  0.000000000000E+00
  0.000000000000E+00
  0.000000000000E+00
  0.000000000000E+00
  0.000000000000E+00
  0.000000000000E+00
  0.000000000000E+00
  0.000000000000E+00
  0.000000000000E+00
  0.000000000000E+00
  0.000000000000E+00
  0.000000000000E+00
  0.000000000000E+00
  0.000000000000E+00
  0.000000000000E+00
  0.000000000000E+00
  0.000000000000E+00
  0.000000000000E+00
  0.000000000000E+00
  0.000000000000E+00
  0.000000000000E+00
  0.000000000000E+00
  0.000000000000E+00
  0.000000000000E+00
  0.000000000000E+00
  0.000000000000E+00
  0.000000000000E+00
  0.000000000000E+00
  0.000000000000E+00
  0.000000000000E+00
  0.000000000000E+00
  0.000000000000E+00
  0.000000000000E+00
  0.000000000000E+00
  0.000000000000E+00
  0.000000000000E+00
  0.000000000000E+00
  0.000000000000E+00
  0.000000000000E+00
  0.000000000000E+00
  0.000000000000E+00
  0.000000000000E+00
  0.000000000000E+00
  0.000000000000E+00
  0.000000000000E+00
  0.000000000000E+00
  0.000000000000E+00
  0.000000000000E+00
  0.000000000000E+00
  0.000000000000E+00
  0.000000000000E+00
  0.000000000000E+00
  0.000000000000E+00
  0.000000000000E+00
  0.000000000000E+00
  0.000000000000E+00
  0.000000000000E+00
  0.000000000000E+00
  0.000000000000E+00
  0.000000000000E+00
  0.000000000000E+00
  0.000000000000E+00
  0.000000000000E+00
  0.000000000000E+00
  0.000000000000E+00
  0.000000000000E+00
  0.000000000000E+00
  0.000000000000E+00
  0.000000000000E+00
  0.000000000000E+00
  0.000000000000E+00
  0.000000000000E+00
  0.000000000000E+00
  0.000000000000E+00
  0.000000000000E+00
  0.000000000000E+00
  0.000000000000E+00
  0.000000000000E+00
  0.000000000000E+00
  0.000000000000E+00
  0.000000000000E+00
  0.000000000000E+00
  0.000000000000E+00
  0.000000000000E+00
  0.000000000000E+00
  0.000000000000E+00
  0.000000000000E+00
  0.000000000000E+00
  0.000000000000E+00
  0.000000000000E+00
  0.000000000000E+00
  0.000000000000E+00
  0.000000000000E+00
  0.000000000000E+00
  0.000000000000E+00
  0.000000000000E+00
  0.000000000000E+00
  0.000000000000E+00
  0.000000000000E+00
  0.000000000000E+00
  0.000000000000E+00
  0.000000000000E+00
  0.000000000000E+00
  0.000000000000E+00
  0.000000000000E+00
  0.000000000000E+00
  0.000000000000E+00
  0.000000000000E+00
  0.000000000000E+00
  0.000000000000E+00
  0.000000000000E+00
  0.000000000000E+00
  0.000000000000E+00
  0.000000000000E+00
  0.000000000000E+00
  0.000000000000E+00
  0.000000000000E+00
  0.000000000000E+00
  0.000000000000E+00
  0.000000000000E+00
  0.000000000000E+00
  0.000000000000E+00
  0.000000000000E+00
  0.000000000000E+00
  0.000000000000E+00
  0.000000000000E+00
  0.000000000000E+00
  0.000000000000E+00
  0.000000000000E+00
  0.000000000000E+00
  0.000000000000E+00
  0.000000000000E+00
  0.000000000000E+00
  0.000000000000E+00
  0.000000000000E+00
  0.000000000000E+00
  0.000000000000E+00
  0.000000000000E+00
  0.000000000000E+00
  0.000000000000E+00
  0.000000000000E+00
  0.000000000000E+00
  0.000000000000E+00
  0.000000000000E+00
  0.000000000000E+00
  0.000000000000E+00
  0.000000000000E+00
  0.000000000000E+00
  0.000000000000E+00
  0.000000000000E+00
  0.000000000000E+00
  0.000000000000E+00
  0.000000000000E+00
  0.000000000000E+00
  0.000000000000E+00
  0.000000000000E+00
  0.000000000000E+00
  0.000000000000E+00
  0.000000000000E+00
  0.000000000000E+00
  0.000000000000E+00
  0.000000000000E+00
  0.000000000000E+00
  0.000000000000E+00
  0.000000000000E+00
  0.000000000000E+00
  0.000000000000E+00
  0.000000000000E+00
  0.000000000000E+00
  0.000000000000E+00
  0.000000000000E+00
  0.000000000000E+00
  0.000000000000E+00
  0.000000000000E+00
  0.000000000000E+00
  0.000000000000E+00
  0.000000000000E+00
  0.000000000000E+00
  0.000000000000E+00
  0.000000000000E+00
  0.000000000000E+00
  0.000000000000E+00
  0.000000000000E+00
  0.000000000000E+00
  0.000000000000E+00
  0.000000000000E+00
  0.000000000000E+00
  0.000000000000E+00
  0.000000000000E+00
  0.000000000000E+00
  0.000000000000E+00
  0.000000000000E+00
  0.000000000000E+00
  0.000000000000E+00
  0.000000000000E+00
  0.000000000000E+00
  0.000000000000E+00
  0.000000000000E+00
  0.000000000000E+00
  0.000000000000E+00
  0.000000000000E+00
  0.000000000000E+00
  0.000000000000E+00
  0.000000000000E+00
  0.000000000000E+00
  0.000000000000E+00
  0.000000000000E+00
  0.000000000000E+00
  0.000000000000E+00
  0.000000000000E+00
  0.000000000000E+00
  0.000000000000E+00
  0.000000000000E+00
  0.000000000000E+00
  0.000000000000E+00
  0.000000000000E+00
  0.000000000000E+00
  0.000000000000E+00
  0.000000000000E+00
  0.000000000000E+00
  0.000000000000E+00
  0.000000000000E+00
  0.000000000000E+00
  0.000000000000E+00
  0.000000000000E+00
  0.000000000000E+00
  0.000000000000E+00
  0.000000000000E+00
  0.000000000000E+00
  0.000000000000E+00
  0.000000000000E+00
  0.000000000000E+00
  0.000000000000E+00
  0.000000000000E+00
  0.000000000000E+00
  0.000000000000E+00
  0.000000000000E+00
  0.000000000000E+00
  0.000000000000E+00
  0.000000000000E+00
  0.000000000000E+00
  0.000000000000E+00
  0.000000000000E+00
  0.000000000000E+00
  0.000000000000E+00
  0.000000000000E+00
  0.000000000000E+00
  0.000000000000E+00
  0.000000000000E+00
  0.000000000000E+00
  0.000000000000E+00
  0.000000000000E+00
  0.000000000000E+00
  0.000000000000E+00
  0.000000000000E+00
  0.000000000000E+00
  0.000000000000E+00
  0.000000000000E+00
  0.000000000000E+00
  0.000000000000E+00
  0.000000000000E+00
  0.000000000000E+00
  0.000000000000E+00
  0.000000000000E+00
  0.000000000000E+00
  0.000000000000E+00
  0.000000000000E+00
  0.000000000000E+00
  0.000000000000E+00
  0.000000000000E+00
  0.000000000000E+00
  0.000000000000E+00
  0.000000000000E+00
  0.000000000000E+00
  0.000000000000E+00
  0.000000000000E+00
  0.000000000000E+00
  0.000000000000E+00
  0.000000000000E+00
  0.000000000000E+00
  0.000000000000E+00
  0.000000000000E+00
  0.000000000000E+00
  0.000000000000E+00
  0.000000000000E+00
  0.000000000000E+00
  0.000000000000E+00
  0.000000000000E+00
  0.000000000000E+00
  0.000000000000E+00
  0.000000000000E+00
  0.000000000000E+00
  0.000000000000E+00
  0.000000000000E+00
  0.000000000000E+00
  0.000000000000E+00
  0.000000000000E+00
  0.000000000000E+00
  0.000000000000E+00
  0.000000000000E+00
  0.000000000000E+00
  0.000000000000E+00
  0.000000000000E+00
  0.000000000000E+00
  0.000000000000E+00
  0.000000000000E+00
  0.000000000000E+00
  0.000000000000E+00
  0.000000000000E+00
  0.000000000000E+00
  0.000000000000E+00
  0.000000000000E+00
  0.000000000000E+00
  0.000000000000E+00
  0.000000000000E+00
  0.000000000000E+00
  0.000000000000E+00
  0.000000000000E+00
  0.000000000000E+00
  0.000000000000E+00
  0.000000000000E+00
  0.000000000000E+00
  0.000000000000E+00
  0.000000000000E+00
  0.000000000000E+00
  0.000000000000E+00
  0.000000000000E+00
  0.000000000000E+00
  0.000000000000E+00
  0.000000000000E+00
  0.000000000000E+00
  0.000000000000E+00
  0.000000000000E+00
  0.000000000000E+00
  0.000000000000E+00
  0.000000000000E+00
  0.000000000000E+00
  0.000000000000E+00
  0.000000000000E+00
  0.000000000000E+00
  0.000000000000E+00
  0.000000000000E+00
  0.000000000000E+00
  0.000000000000E+00
  0.000000000000E+00
  0.000000000000E+00
  0.000000000000E+00
  0.000000000000E+00
  0.000000000000E+00
  0.000000000000E+00
  0.000000000000E+00
  0.000000000000E+00
  0.000000000000E+00
  0.000000000000E+00
  0.000000000000E+00
  0.000000000000E+00
  0.000000000000E+00
  0.000000000000E+00
  0.000000000000E+00
  0.000000000000E+00
  0.000000000000E+00
  0.000000000000E+00
  0.000000000000E+00
  0.000000000000E+00
  0.000000000000E+00
  0.000000000000E+00
  0.000000000000E+00
  0.000000000000E+00
  0.000000000000E+00
  0.000000000000E+00
  0.000000000000E+00
  0.000000000000E+00
  0.000000000000E+00
  0.000000000000E+00
  0.000000000000E+00
  0.000000000000E+00
  0.000000000000E+00
  0.000000000000E+00
  0.000000000000E+00
  0.000000000000E+00
  0.000000000000E+00
  0.000000000000E+00
  0.000000000000E+00
  0.000000000000E+00
  0.000000000000E+00
  0.000000000000E+00
  0.000000000000E+00
  0.000000000000E+00
  0.000000000000E+00
  0.000000000000E+00
  0.000000000000E+00
  0.000000000000E+00
  0.000000000000E+00
  0.000000000000E+00
  0.000000000000E+00
  0.000000000000E+00
  0.000000000000E+00
  0.000000000000E+00
  0.000000000000E+00
  0.000000000000E+00
  0.000000000000E+00
  0.000000000000E+00
  0.000000000000E+00
  0.000000000000E+00
  0.000000000000E+00
  0.000000000000E+00
  0.000000000000E+00
  0.000000000000E+00
  0.000000000000E+00
  0.000000000000E+00
  0.000000000000E+00
  0.000000000000E+00
  0.000000000000E+00
  0.000000000000E+00
  0.000000000000E+00
  0.000000000000E+00
  0.000000000000E+00
  0.000000000000E+00
  0.000000000000E+00
  0.000000000000E+00
  0.000000000000E+00
SCALARS C_p_inc float 1
LOOKUP_TABLE default
 -0.892283796571E+00
 -0.184061595863E+01
 -0.407931892619E+00
 -0.341072262847E+00
 -0.209511049143E+00
 -0.189145264982E+00
 -0.164497280055E+00
 -0.165266505588E+00
 -0.112491884657E+00
 -0.128864667108E+00
  0.558616313857E-01
 -0.481410075609E-02
  0.316221898533E+00
  0.234538936073E+00
  0.641718072977E+00
  0.649468531381E+00
  0.470635444472E-01
  0.314668615128E+00
 -0.365610734970E+00
 -0.161167382041E+00
 -0.368165149659E+00
 -0.309942637226E+00
 -0.304744187088E+00
 -0.320916958604E+00
 -0.179484376767E+00
 -0.138954124887E+00
  0.349570860975E-01
  0.991278536267E-01
  0.292996329147E+00
  0.408301837197E+00
  0.657120051389E+00
  0.541496609936E+00
 -0.669692976894E+00
 -0.853337564796E+00
 -0.322929445077E+00
 -0.421425486991E+00
 -0.212606767908E+00
 -0.210953820296E+00
 -0.172187039905E+00
 -0.165371310044E+00
 -0.128296311330E+00
 -0.149948289417E+00
 -0.112456364682E-02
 -0.407419744475E-01
  0.219064612922E+00
  0.198065748553E+00
  0.537386766491E+00
  0.533378832832E+00
 -0.123810531603E+00
 -0.443655886481E-02
 -0.461483780850E+00
 -0.344442022881E+00
 -0.417398549140E+00
 -0.367161672859E+00
 -0.297108692618E+00
 -0.311465370389E+00
 -0.136613049830E+00
 -0.966055108338E-01
  0.983491874367E-01
  0.150249693110E+00
  0.382106862289E+00
  0.344395423810E+00
  0.538546771072E+00
  0.500985215207E+00
 -0.587354273284E+00
 -0.660591911393E+00
 -0.272236233025E+00
 -0.321781902163E+00
 -0.188642672636E+00
 -0.214717988084E+00
 -0.176560250813E+00
 -0.173789838826E+00
 -0.148199429056E+00
 -0.166334824279E+00
 -0.389111912395E-01
 -0.638794341129E-01
  0.189052720458E+00
  0.177563526143E+00
  0.508683098645E+00
  0.505386855743E+00
 -0.222604125321E+00
 -0.138650520016E+00
 -0.533925641335E+00
 -0.452136207550E+00
 -0.445440912750E+00
 -0.416021548049E+00
 -0.283513748212E+00
 -0.305667549821E+00
 -0.942411900051E-01
 -0.574223038237E-01
  0.146291272599E+00
  0.156554926174E+00
  0.338578933566E+00
  0.317989276321E+00
  0.500004725493E+00
  0.485423568176E+00
 -0.547001634469E+00
 -0.583949527986E+00
 -0.247462317087E+00
 -0.271347720188E+00
 -0.168111320950E+00
 -0.188818483671E+00
 -0.171184521137E+00
 -0.178098210962E+00
 -0.165598596245E+00
 -0.175594783502E+00
 -0.631212337005E-01
 -0.788838556513E-01
  0.173751317104E+00
  0.167362581128E+00
  0.497676171454E+00
  0.495855158879E+00
 -0.278623161293E+00
 -0.227493555624E+00
 -0.574818972979E+00
 -0.530734537548E+00
 -0.456492704157E+00
 -0.448078308373E+00
 -0.265693239650E+00
 -0.291783449012E+00
 -0.560112212919E-01
 -0.355823354278E-01
  0.154594637738E+00
  0.153331177723E+00
  0.316264296862E+00
  0.307869167258E+00
  0.484769127145E+00
  0.478136657563E+00
 -0.525605536657E+00
 -0.545427753204E+00
 -0.234680820342E+00
 -0.247110910269E+00
 -0.156788730502E+00
 -0.168046216557E+00
 -0.163554805743E+00
 -0.171878989230E+00
 -0.176205963956E+00
 -0.177028974097E+00
 -0.786829220465E-01
 -0.860137057967E-01
  0.166527867080E+00
  0.162498331874E+00
  0.496076565000E+00
  0.495581459518E+00
 -0.298599402083E+00
 -0.279198998860E+00
 -0.588282916414E+00
 -0.575566559272E+00
 -0.454369334220E+00
 -0.460832724789E+00
 -0.252929670147E+00
 -0.271135832702E+00
 -0.351739445164E-01
 -0.279407044703E-01
  0.152668085922E+00
  0.151487518449E+00
  0.307278589838E+00
  0.303729712616E+00
  0.477950851278E+00
  0.474729870644E+00
 -0.513609280128E+00
 -0.524615612803E+00
 -0.227741430210E+00
 -0.234548353396E+00
 -0.150909824120E+00
 -0.156752419264E+00
 -0.158515716999E+00
 -0.163783469169E+00
 -0.178051119144E+00
 -0.175373082636E+00
 -0.861708639909E-01
 -0.877907794636E-01
  0.162934401057E+00
  0.160690088768E+00
  0.498475429667E+00
  0.498588138561E+00
 -0.297004952933E+00
 -0.297774056335E+00
 -0.586487434602E+00
 -0.590191674953E+00
 -0.449084133197E+00
 -0.457669849022E+00
 -0.247007052647E+00
 -0.255322068168E+00
 -0.278418171199E-01
 -0.254487972939E-01
  0.151267858918E+00
  0.150819704996E+00
  0.303556697690E+00
  0.301944421924E+00
  0.474772302153E+00
  0.473086508611E+00
 -0.505754798507E+00
 -0.512750851915E+00
 -0.223498728633E+00
 -0.227665467341E+00
 -0.147677784862E+00
 -0.150874125011E+00
 -0.155752110936E+00
 -0.158574469380E+00
 -0.176064941072E+00
 -0.173929334184E+00
 -0.880042262821E-01
 -0.878553960788E-01
  0.161257918530E+00
  0.160077910973E+00
  0.501047784626E+00
  0.501220011245E+00
 -0.290075272947E+00
 -0.296193386294E+00
 -0.581615330424E+00
 -0.587846526365E+00
 -0.445209468522E+00
 -0.450684778499E+00
 -0.244318229007E+00
 -0.247817071712E+00
 -0.254198759389E-01
 -0.243951714924E-01
  0.150748081502E+00
  0.150604327687E+00
  0.301910805650E+00
  0.301003903757E+00
  0.473170086757E+00
  0.472078647551E+00
 -0.498119280913E+00
 -0.504853394606E+00
 -0.219892291512E+00
 -0.223398647366E+00
 -0.145490351662E+00
 -0.147608229303E+00
 -0.154268449884E+00
 -0.155721830372E+00
 -0.174227511255E+00
 -0.173263715273E+00
 -0.879716168533E-01
 -0.879803172351E-01
  0.160377342220E+00
  0.159482938758E+00
  0.502401028175E+00
  0.502521728060E+00
 -0.284383267334E+00
 -0.289632325155E+00
 -0.577671569289E+00
 -0.582265892576E+00
 -0.442665064419E+00
 -0.445848628566E+00
 -0.242763073576E+00
 -0.244594289246E+00
 -0.243830567641E-01
 -0.237266710765E-01
  0.150578419176E+00
  0.150520581635E+00
  0.301009933809E+00
  0.300186465200E+00
  0.472135534316E+00
  0.471021914572E+00
 -0.485966412365E+00
 -0.497106751909E+00
 -0.214737494822E+00
 -0.219704041443E+00
 -0.143119352519E+00
 -0.145342935322E+00
 -0.153415184716E+00
 -0.154145328764E+00
 -0.173269243807E+00
 -0.173445233766E+00
 -0.879875682908E-01
 -0.887954329464E-01
  0.159515063910E+00
  0.158309500266E+00
  0.502666074943E+00
  0.502775253999E+00
 -0.279888926815E+00
 -0.284228419424E+00
 -0.574438074203E+00
 -0.577901711164E+00
 -0.440623202623E+00
 -0.442896970489E+00
 -0.241409254384E+00
 -0.242877660001E+00
 -0.237177999503E-01
 -0.229624923565E-01
  0.150515465962E+00
  0.150558052660E+00
  0.300239320735E+00
  0.299063575855E+00
  0.471112734337E+00
  0.469319112182E+00
 -0.461319372449E+00
 -0.484834852146E+00
 -0.204332371068E+00
 -0.214376037595E+00
 -0.138809810779E+00
 -0.142810174596E+00
 -0.152717599154E+00
 -0.153132390361E+00
 -0.173144706713E+00
 -0.174830574578E+00
 -0.886854717550E-01
 -0.909642280989E-01
  0.158082670610E+00
  0.155906249162E+00
  0.502006037600E+00
  0.502165528742E+00
 -0.275135658104E+00
 -0.279940347270E+00
 -0.570904695660E+00
 -0.574409059481E+00
 -0.438284778206E+00
 -0.440656048770E+00
 -0.239501191824E+00
 -0.241489815195E+00
 -0.229522880352E-01
 -0.214201391759E-01
  0.150598837127E+00
  0.151165543111E+00
  0.299308583654E+00
  0.297469934130E+00
  0.469774960053E+00
  0.466332039140E+00
 -0.412742431893E+00
 -0.460196311144E+00
 -0.182582553703E+00
 -0.203705675911E+00
 -0.129238452803E+00
 -0.138200405796E+00
 -0.151177210622E+00
 -0.152121053100E+00
 -0.174028129027E+00
 -0.178244190287E+00
 -0.906731028170E-01
 -0.957112706325E-01
  0.155306766353E+00
  0.151215730295E+00
  0.500187541163E+00
  0.500496874831E+00
 -0.268764401047E+00
 -0.275398061969E+00
 -0.566124719990E+00
 -0.570637796438E+00
 -0.434874167210E+00
 -0.438177776696E+00
 -0.235963349262E+00
 -0.239663404512E+00
 -0.214052395445E-01
 -0.176644527821E-01
  0.151350984756E+00
  0.153516958539E+00
  0.298325674112E+00
  0.295864991475E+00
  0.468115066601E+00
  0.461720705390E+00
 -0.329810755359E+00
 -0.411668938767E+00
 -0.143790554720E+00
 -0.181569720131E+00
 -0.111624907060E+00
 -0.128220957637E+00
 -0.146324144320E+00
 -0.150049262122E+00
 -0.176579324642E+00
 -0.184078451954E+00
 -0.950934845256E-01
 -0.105117600035E+00
  0.149933143096E+00
  0.142536944215E+00
  0.496488824881E+00
  0.497144642498E+00
 -0.259854459882E+00
 -0.269334535799E+00
 -0.559472866235E+00
 -0.565530436802E+00
 -0.429562085256E+00
 -0.434622405427E+00
 -0.228654111827E+00
 -0.236501427619E+00
 -0.176420086042E-01
 -0.990440389773E-02