# vtk DataFile Version 3.0
TriPan results file. Generated by TriPan, USU AeroLab (c) 2021.
ASCII
DATASET POLYDATA
POINTS                 144 float
  0.000000000000E+00  0.000000000000E+00  0.000000000000E+00
  0.113538098335E+01  0.000000000000E+00 -0.658124566078E+00
  0.113538098335E+01  0.000000000000E+00  0.658124566078E+00
  0.192375373840E+01  0.192375373840E+01  0.000000000000E+00
  0.305913543701E+01  0.192375373840E+01 -0.658124983311E+00
  0.305913543701E+01  0.192375373840E+01  0.658124983311E+00
  0.423028087616E+01  0.000000000000E+00 -0.108747220039E+01
  0.423028087616E+01  0.000000000000E+00  0.108747220039E+01
  0.547033166885E+01  0.547033166885E+01  0.000000000000E+00
  0.615403699875E+01  0.192375373840E+01 -0.108747279644E+01
  0.615403699875E+01  0.192375373840E+01  0.108747279644E+01
  0.660571479797E+01  0.547033166885E+01 -0.658125698566E+00
  0.660571479797E+01  0.547033166885E+01  0.658125698566E+00
  0.939508819580E+01  0.000000000000E+00 -0.980745851994E+00
  0.939508819580E+01  0.000000000000E+00  0.980745851994E+00
  0.970061969757E+01  0.547033166885E+01 -0.108747410774E+01
  0.970061969757E+01  0.547033166885E+01  0.108747410774E+01
  0.113188476562E+02  0.192375373840E+01 -0.980746448040E+00
  0.113188476562E+02  0.192375373840E+01  0.980746448040E+00
  0.113820018768E+02  0.113820018768E+02  0.000000000000E+00
  0.125173873901E+02  0.113820018768E+02 -0.658127009869E+00
  0.125173873901E+02  0.113820018768E+02  0.658127009869E+00
  0.145402030945E+02  0.000000000000E+00 -0.479613035917E+00
  0.145402030945E+02  0.000000000000E+00  0.479613035917E+00
  0.148654365540E+02  0.547033166885E+01 -0.980747580528E+00
  0.148654365540E+02  0.547033166885E+01  0.980747580528E+00
  0.156122989655E+02  0.113820018768E+02 -0.108747613430E+01
  0.156122989655E+02  0.113820018768E+02  0.108747613430E+01
  0.164639663696E+02  0.192375373840E+01 -0.479613333941E+00
  0.164639663696E+02  0.192375373840E+01  0.479613333941E+00
  0.176505107880E+02  0.000000000000E+00 -0.144198849797E+00
  0.176505107880E+02  0.000000000000E+00  0.144198849797E+00
  0.190000000000E+02  0.000000000000E+00  0.000000000000E+00
  0.195742740631E+02  0.192375373840E+01 -0.144198939204E+00
  0.195742740631E+02  0.192375373840E+01  0.144198939204E+00
  0.197561950684E+02  0.197561950684E+02  0.000000000000E+00
  0.200105609894E+02  0.547033166885E+01 -0.479613870382E+00
  0.200105609894E+02  0.547033166885E+01  0.479613870382E+00
  0.207771244049E+02  0.113820018768E+02 -0.980749428272E+00
  0.207771244049E+02  0.113820018768E+02  0.980749428272E+00
  0.208915824890E+02  0.197561950684E+02 -0.658128738403E+00
  0.208915824890E+02  0.197561950684E+02  0.658128738403E+00
  0.209237651825E+02  0.192375373840E+01  0.000000000000E+00
  0.231208724976E+02  0.547033166885E+01 -0.144199103117E+00
  0.231208724976E+02  0.547033166885E+01  0.144199103117E+00
  0.239865016937E+02  0.197561950684E+02 -0.108747911453E+01
  0.239865016937E+02  0.197561950684E+02  0.108747911453E+01
  0.244703655243E+02  0.547033166885E+01  0.000000000000E+00
  0.259222583771E+02  0.113820018768E+02 -0.479614794254E+00
  0.259222583771E+02  0.113820018768E+02  0.479614794254E+00
  0.290325775146E+02  0.113820018768E+02 -0.144199386239E+00
  0.290325775146E+02  0.113820018768E+02  0.144199386239E+00
  0.291513423920E+02  0.197561950684E+02 -0.980752110481E+00
  0.291513423920E+02  0.197561950684E+02  0.980752110481E+00
  0.292438049316E+02  0.292438049316E+02  0.000000000000E+00
  0.303791980743E+02  0.292438049316E+02 -0.658130764961E+00
  0.303791980743E+02  0.292438049316E+02  0.658130764961E+00
  0.303820724487E+02  0.113820018768E+02  0.000000000000E+00
  0.334741249084E+02  0.292438049316E+02 -0.108748245239E+01
  0.334741249084E+02  0.292438049316E+02  0.108748245239E+01
  0.342964897156E+02  0.197561950684E+02 -0.479616105556E+00
  0.342964897156E+02  0.197561950684E+02  0.479616105556E+00
  0.374068183899E+02  0.197561950684E+02 -0.144199773669E+00
  0.374068183899E+02  0.197561950684E+02  0.144199773669E+00
  0.376179962158E+02  0.376179962158E+02  0.000000000000E+00
  0.386389808655E+02  0.292438049316E+02 -0.980755090714E+00
  0.386389808655E+02  0.292438049316E+02  0.980755090714E+00
  0.387533912659E+02  0.376179962158E+02 -0.658132553101E+00
  0.387533912659E+02  0.376179962158E+02  0.658132553101E+00
  0.387563171387E+02  0.197561950684E+02  0.000000000000E+00
  0.418483314514E+02  0.376179962158E+02 -0.108748543262E+01
  0.418483314514E+02  0.376179962158E+02  0.108748543262E+01
  0.435296669006E+02  0.435296669006E+02  0.000000000000E+00
  0.437841453552E+02  0.292438049316E+02 -0.479617565870E+00
  0.437841453552E+02  0.292438049316E+02  0.479617565870E+00
  0.446650657654E+02  0.435296669006E+02 -0.658133804798E+00
  0.446650657654E+02  0.435296669006E+02  0.658133804798E+00
  0.468944816589E+02  0.292438049316E+02 -0.144200220704E+00
  0.468944816589E+02  0.292438049316E+02  0.144200220704E+00
  0.470131988525E+02  0.376179962158E+02 -0.980757772923E+00
  0.470131988525E+02  0.376179962158E+02  0.980757772923E+00
  0.470762481689E+02  0.470762481689E+02  0.000000000000E+00
  0.477600097656E+02  0.435296669006E+02 -0.108748745918E+01
  0.477600097656E+02  0.435296669006E+02  0.108748745918E+01
  0.482116432190E+02  0.470762481689E+02 -0.658134579659E+00
  0.482116432190E+02  0.470762481689E+02  0.658134579659E+00
  0.482439842224E+02  0.292438049316E+02  0.000000000000E+00
  0.490000000000E+02  0.490000000000E+02  0.000000000000E+00
  0.501353988647E+02  0.490000000000E+02 -0.658134996891E+00
  0.501353988647E+02  0.490000000000E+02  0.658134996891E+00
  0.506007728577E+02  0.494653701782E+02 -0.465371757746E+00
  0.506007728577E+02  0.494653701782E+02  0.465371757746E+00
  0.507935333252E+02  0.496581344604E+02 -0.771266485397E-15
  0.513065910339E+02  0.470762481689E+02 -0.108748877048E+01
  0.513065910339E+02  0.470762481689E+02  0.108748877048E+01
  0.521583786011E+02  0.376179962158E+02 -0.479618877172E+00
  0.521583786011E+02  0.376179962158E+02  0.479618877172E+00
  0.529248886108E+02  0.435296669006E+02 -0.980759620667E+00
  0.529248886108E+02  0.435296669006E+02  0.980759620667E+00
  0.532303466797E+02  0.490000000000E+02 -0.108748936653E+01
  0.532303466797E+02  0.490000000000E+02  0.108748936653E+01
  0.539993209839E+02  0.497689704895E+02 -0.768971264362E+00
  0.539993209839E+02  0.497689704895E+02  0.768971264362E+00
  0.543178405762E+02  0.500874900818E+02 -0.157378642191E-15
  0.552687225342E+02  0.376179962158E+02 -0.144200608134E+00
  0.552687225342E+02  0.376179962158E+02  0.144200608134E+00
  0.564714775085E+02  0.470762481689E+02 -0.980760753155E+00
  0.564714775085E+02  0.470762481689E+02  0.980760753155E+00
  0.566182289124E+02  0.376179962158E+02  0.000000000000E+00
  0.580700759888E+02  0.435296669006E+02 -0.479619771242E+00
  0.580700759888E+02  0.435296669006E+02  0.479619771242E+00
  0.583952369690E+02  0.490000000000E+02 -0.980761349201E+00
  0.583952369690E+02  0.490000000000E+02  0.980761349201E+00
  0.590887413025E+02  0.496935043335E+02 -0.693503141403E+00
  0.590887413025E+02  0.496935043335E+02  0.693503141403E+00
  0.593759994507E+02  0.499807624817E+02  0.000000000000E+00
  0.611804275513E+02  0.435296669006E+02 -0.144200876355E+00
  0.611804275513E+02  0.435296669006E+02  0.144200876355E+00
  0.616166725159E+02  0.470762481689E+02 -0.479620337486E+00
  0.616166725159E+02  0.470762481689E+02  0.479620337486E+00
  0.625299339294E+02  0.435296669006E+02  0.000000000000E+00
  0.635404319763E+02  0.490000000000E+02 -0.479620635509E+00
  0.635404319763E+02  0.490000000000E+02  0.479620635509E+00
  0.638795776367E+02  0.493391418457E+02 -0.339143037796E+00
  0.638795776367E+02  0.493391418457E+02  0.339143037796E+00
  0.640200576782E+02  0.494796218872E+02  0.296956834055E-15
  0.647270278931E+02  0.470762481689E+02 -0.144201040268E+00
  0.647270278931E+02  0.470762481689E+02  0.144201040268E+00
  0.660765380859E+02  0.470762481689E+02  0.000000000000E+00
  0.666507873535E+02  0.490000000000E+02 -0.144201144576E+00
  0.666507873535E+02  0.490000000000E+02  0.144201144576E+00
  0.667527542114E+02  0.491019668579E+02 -0.101965606213E+00
  0.667527542114E+02  0.491019668579E+02  0.101965606213E+00
  0.667949905396E+02  0.491441993713E+02 -0.260488604752E-16
  0.680002975464E+02  0.490000000000E+02  0.000000000000E+00
  0.190000000000E+02  0.000000000000E+00  0.000000000000E+00
  0.209237651825E+02  0.192375373840E+01  0.000000000000E+00
  0.244703655243E+02  0.547033166885E+01  0.000000000000E+00
  0.303820724487E+02  0.113820018768E+02  0.000000000000E+00
  0.387563171387E+02  0.197561950684E+02  0.000000000000E+00
  0.482439842224E+02  0.292438049316E+02  0.000000000000E+00
  0.566182289124E+02  0.376179962158E+02  0.000000000000E+00
  0.625299339294E+02  0.435296669006E+02  0.000000000000E+00
  0.660765380859E+02  0.470762481689E+02  0.000000000000E+00
POLYGONS                 256                1024
3                 135                  33                 136
3                  32                  30                  33
3                  30                  28                  33
3                  30                  22                  28
3                  22                  17                  28
3                  22                  13                  17
3                  13                   6                  17
3                  17                   6                   9
3                   6                   1                   9
3                   9                   1                   4
3                   1                   0                   4
3                   4                   0                   3
3                   0                   5                   3
3                   0                   2                   5
3                   2                  10                   5
3                   2                   7                  10
[...]
CELL_DATA                 256
SCALARS sigma float 1
LOOKUP_TABLE default
  0.000000000000E+00
  0.000000000000E+00
  0.000000000000E+00
  0.000000000000E+00
  0.000000000000E+00
  0.000000000000E+00
  0.000000000000E+00
  0.000000000000E+00
  0.000000000000E+00
  0.000000000000E+00
  0.000000000000E+00
  0.000000000000E+00
  0.000000000000E+00
  0.000000000000E+00
  0.000000000000E+00
  0.000000000000E+00
  0.000000000000E+00
  0.000000000000E+00
  0.000000000000E+00
  0.000000000000E+00
  0.000000000000E+00
  0.000000000000E+00
  0.000000000000E+00
  0.000000000000E+00
  0.000000000000E+00
  0.000000000000E+00
  0.000000000000E+00
  0.000000000000E+00
  0.000000000000E+00
  0.000000000000E+00
  0.000000000000E+00
  0.000000000000E+00
  0.000000000000E+00
  0.000000000000E+00
  0.000000000000E+00
  0.000000000000E+00
  0.000000000000E+00
  0.000000000000E+00
  0.000000000000E+00
  0.000000000000E+00
  0.000000000000E+00
  0.000000000000E+00
  0.000000000000E+00
  0.000000000000E+00
  0.000000000000E+00
  0.000000000000E+00
  0.000000000000E+00
  0.000000000000E+00
  0.000000000000E+00
  0.000000000000E+00
  0.000000000000E+00
  0.000000000000E+00
  0.000000000000E+00
  0.000000000000E+00
  0.000000000000E+00
  0.000000000000E+00
  0.000000000000E+00
  0.000000000000E+00
  0.000000000000E+00
  0.000000000000E+00
  0.000000000000E+00
  0.000000000000E+00
  0.000000000000E+00
  0.000000000000E+00
  0.000000000000E+00
  0.000000000000E+00
  0.000000000000E+00
  0.000000000000E+00
  0.000000000000E+00
  0.000000000000E+00
  0.000000000000E+00
  0.000000000000E+00
  0.000000000000E+00
  0.000000000000E+00
  0.000000000000E+00
  0.000000000000E+00
  0.000000000000E+00
  0.000000000000E+00
  0.000000000000E+00
  0.000000000000E+00
  0.000000000000E+00
  0.000000000000E+00
  0.000000000000E+00
  0.000000000000E+00
  0.000000000000E+00
  0.000000000000E+00
  0.000000000000E+00
  0.000000000000E+00
  0.000000000000E+00
  0.000000000000E+00
  0.000000000000E+00
  0.000000000000E+00
  0.000000000000E+00
  0.000000000000E+00
  0.000000000000E+00
  0.000000000000E+00
  0.000000000000E+00
  0.000000000000E+00
  0.000000000000E+00
  0.000000000000E+00
  0.000000000000E+00
  0.000000000000E+00
  0.000000000000E+00
  0.000000000000E+00
  0.000000000000E+00
  0.000000000000E+00
  0.000000000000E+00
  0.000000000000E+00
  0.000000000000E+00
  0.000000000000E+00
  0.000000000000E+00
  0.000000000000E+00
  0.000000000000E+00
  0.000000000000E+00
  0.000000000000E+00
  0.000000000000E+00
  0.000000000000E+00
  0.000000000000E+00
  0.000000000000E+00
  0.000000000000E+00
  0.000000000000E+00
  0.000000000000E+00
  0.000000000000E+00
  0.000000000000E+00
  0.000000000000E+00
  0.000000000000E+00
  0.000000000000E+00
  0.000000000000E+00
  0.000000000000E+00
  0.000000000000E+00
  0.000000000000E+00
  0.000000000000E+00
  0.000000000000E+00
  0.000000000000E+00
  0.000000000000E+00
  0.000000000000E+00
  0.000000000000E+00
  0.000000000000E+00
  0.000000000000E+00
  0.000000000000E+00
  0.000000000000E+00
  0.000000000000E+00
  0.000000000000E+00
  0.000000000000E+00
  0.000000000000E+00
  0.000000000000E+00
  0.000000000000E+00
  0.000000000000E+00
  0.000000000000E+00
  0.000000000000E+00
  0.000000000000E+00
  0.000000000000E+00
  0.000000000000E+00
  0.000000000000E+00
  0.000000000000E+00
  0.000000000000E+00
  0.000000000000E+00
  0.000000000000E+00
  0.000000000000E+00
  0.000000000000E+00
  0.000000000000E+00
  0.000000000000E+00
  0.000000000000E+00
  0.000000000000E+00
  0.000000000000E+00
  0.000000000000E+00
  0.000000000000E+00
  0.000000000000E+00
  0.000000000000E+00
  0.000000000000E+00
  0.000000000000E+00
  0.000000000000E+00
  0.000000000000E+00
  0.000000000000E+00
  0.000000000000E+00
  0.000000000000E+00
  0.000000000000E+00
  0.000000000000E+00
  0.000000000000E+00
  0.000000000000E+00
  0.000000000000E+00
  0.000000000000E+00
  0.000000000000E+00
  0.000000000000E+00
  0.000000000000E+00
  0.000000000000E+00
  0.000000000000E+00
  0.000000000000E+00
  0.000000000000E+00
  0.000000000000E+00
  0.000000000000E+00
  0.000000000000E+00
  0.000000000000E+00
  0.000000000000E+00
  0.000000000000E+00
  0.000000000000E+00
  0.000000000000E+00
  0.000000000000E+00
  0.000000000000E+00
  0.000000000000E+00
  0.000000000000E+00
  0.000000000000E+00
  0.000000000000E+00
  0.000000000000E+00
  0.000000000000E+00
  0.000000000000E+00
  0.000000000000E+00
  0.000000000000E+00
  0.000000000000E+00
  0.000000000000E+00
  0.000000000000E+00
  0.000000000000E+00
  0.000000000000E+00
  0.000000000000E+00
  0.000000000000E+00
  0.000000000000E+00
  0.000000000000E+00
  0.000000000000E+00
  0.000000000000E+00
  0.000000000000E+00
  0.000000000000E+00
  0.000000000000E+00
  0.000000000000E+00
  0.000000000000E+00
  0.000000000000E+00
  0.000000000000E+00
  0.000000000000E+00
  0.000000000000E+00
  0.000000000000E+00
  0.000000000000E+00
  0.000000000000E+00
  0.000000000000E+00
  0.000000000000E+00
  0.000000000000E+00
  0.000000000000E+00
  0.000000000000E+00
  0.000000000000E+00
  0.000000000000E+00
  0.000000000000E+00
  0.000000000000E+00
  0.000000000000E+00
  0.000000000000E+00
  0.000000000000E+00
  0.000000000000E+00
  0.000000000000E+00
  0.000000000000E+00
  0.000000000000E+00
  0.000000000000E+00
  0.000000000000E+00
  0.000000000000E+00
  0.000000000000E+00
  0.000000000000E+00
  0.000000000000E+00
  0.000000000000E+00
  0.000000000000E+00
  0.000000000000E+00
SCALARS C_p_inc float 1
LOOKUP_TABLE default
 -0.444559123769E+00
 -0.882347249810E+00
 -0.242751377308E+00
 -0.215001643086E+00
 -0.171874913827E+00
 -0.168051927787E+00
 -0.103484345135E+00
 -0.137220703090E+00
  0.101996459661E+00
  0.742319442174E-03
  0.519516381049E+00
  0.502719307181E+00
 -0.158671776093E+00
  0.173968297327E+00
 -0.435190621747E+00
 -0.288538587710E+00
 -0.300336861820E+00
 -0.320221084271E+00
 -0.166753400721E+00
 -0.914039728372E-01
  0.933204237661E-01
  0.205697783621E+00
  0.556223735082E+00
  0.435470711628E+00
 -0.339905873282E+00
 -0.430190200154E+00
 -0.189051534346E+00
 -0.248452319323E+00
 -0.174305083084E+00
 -0.174066976006E+00
 -0.136332801225E+00
 -0.164519592205E+00
  0.360338665113E-02
 -0.322980021246E-01
  0.435718722263E+00
  0.436708349944E+00
 -0.294160644561E+00
 -0.163355523940E+00
 -0.497243186687E+00
 -0.430381997702E+00
 -0.282170336503E+00
 -0.313102005261E+00
 -0.892773274346E-01
 -0.291438503863E-01
  0.197148738196E+00
  0.194030492174E+00
  0.427921696466E+00
  0.399169779771E+00
 -0.309348275528E+00
 -0.337837084294E+00
 -0.166724913997E+00
 -0.189363437347E+00
 -0.161990263595E+00
 -0.176620509320E+00
 -0.164848450391E+00
 -0.168872141618E+00
 -0.321719158390E-01
 -0.442269986360E-01
  0.431007353412E+00
  0.431518918549E+00
 -0.327805647127E+00
 -0.294479363209E+00
 -0.503793634500E+00
 -0.501253630510E+00
 -0.260211634134E+00
 -0.291168002591E+00
 -0.283837170031E-01
 -0.142363951665E-01
  0.191926781365E+00
  0.187827817381E+00
  0.398069559082E+00
  0.390688825514E+00
 -0.297187168174E+00
 -0.308684538231E+00
 -0.158896044917E+00
 -0.166721068497E+00
 -0.156260845948E+00
 -0.162487927257E+00
 -0.170083706084E+00
 -0.167157710320E+00
 -0.443118665381E-01
 -0.450927367366E-01
  0.434795461966E+00
  0.433932016666E+00
 -0.319978052352E+00
 -0.327767516082E+00
 -0.496423818311E+00
 -0.507673378683E+00
 -0.254120128563E+00
 -0.263116145980E+00
 -0.141735394810E-01
 -0.118512501227E-01
  0.187504123377E+00
  0.186572171623E+00
  0.390587082498E+00
  0.388022784281E+00
 -0.283126292169E+00
 -0.296498849680E+00
 -0.152834190918E+00
 -0.158692641644E+00
 -0.153892259611E+00
 -0.156163424273E+00
 -0.167439770749E+00
 -0.167375378972E+00
 -0.451372333082E-01
 -0.465807957127E-01
  0.435089239756E+00
  0.433846716461E+00
 -0.312245068283E+00
 -0.319962375019E+00
 -0.491684844925E+00
 -0.497399236062E+00
 -0.251422175330E+00
 -0.254526216618E+00
 -0.118379691044E-01
 -0.105375475352E-01
  0.186461575282E+00
  0.186262652160E+00
  0.387931021205E+00
  0.385198005812E+00
 -0.235966425265E+00
 -0.281817350970E+00
 -0.134445589301E+00
 -0.152015229788E+00
 -0.152320043295E+00
 -0.153142380826E+00
 -0.166592669681E+00
 -0.173315162109E+00
 -0.464837104529E-01
 -0.537751391070E-01
  0.431993545630E+00
  0.429199257761E+00
 -0.304353321329E+00
 -0.312259117132E+00
 -0.487030752606E+00
 -0.491220548659E+00
 -0.248724836371E+00
 -0.251128040534E+00
 -0.105189126624E-01
 -0.791112822534E-02
  0.185963815646E+00
  0.188857933614E+00
  0.384986996799E+00
  0.380952085686E+00
  0.134090620491E-01
 -0.231364935100E+00
 -0.974495664801E-01
 -0.131937798704E+00
 -0.159106080312E+00
 -0.149944402712E+00
 -0.170064164534E+00
 -0.198165831686E+00
 -0.535023628451E-01
 -0.787851488032E-01
  0.422085734262E+00
  0.415239946045E+00
 -0.293456508143E+00
 -0.304488331513E+00
 -0.484209564956E+00
 -0.484609723014E+00
 -0.249767604089E+00
 -0.246992831767E+00
 -0.795063989069E-02
 -0.122860596573E-01
  0.186219716526E+00
  0.185416480793E+00
  0.375002959213E+00
  0.432938020417E+00
 -0.238984027864E+02
 -0.655611115486E+00
  0.807090198198E+00
 -0.154355010160E+00
 -0.467598104522E+00
 -0.157710100007E+00
 -0.192371564379E+00
 -0.238225980228E+00
 -0.793568337785E-01
 -0.138128912204E+00
  0.394577172592E+00
  0.381319673824E+00
 -0.280542932227E+00
 -0.294207586037E+00
 -0.481051633937E+00
 -0.478067808127E+00
 -0.251890157582E+00
 -0.245705323136E+00
 -0.128470550951E-01
 -0.308161451840E+00
  0.901606845989E-01
  0.663267442863E+00
  0.228945568356E+00
 -0.210037588209E+02
 -0.407803969966E+08
 -0.212179380522E+05
 -0.119473997716E+05
  0.945812828075E+00
 -0.177599921098E+00
 -0.462257122393E+00
 -0.250165103872E+00
 -0.303966473645E+00
 -0.146394427380E+00
 -0.156524130095E+00
  0.289874148226E+00
  0.268472468691E+00
 -0.270933503326E+00
 -0.286981216086E+00
 -0.368948092420E+00
 -0.482279102865E+00
 -0.298215487188E+00
 -0.245605354125E+00
 -0.305180429074E+00
 -0.248480325202E+00
  0.880437969080E+00
 -0.119303105231E+05
 -0.212512076919E+05
 -0.407817049921E+08
 -0.849335128064E+08
 -0.481309134544E+06
 -0.180900764886E+05
 -0.292622869577E+02
 -0.319417895015E-01
 -0.407101264423E+00
 -0.377881623280E+00
 -0.218280808354E+00
 -0.226716352310E+00
 -0.193151761481E-01
 -0.301951759304E+00
 -0.309164509795E+00
 -0.389060387548E+00
 -0.393603933170E+00
 -0.289507251014E+00
  0.442131227912E+00
 -0.336059959570E+02
 -0.181450305582E+05
 -0.480826288238E+06
 -0.849298181165E+08
 -0.580479587801E+08
 -0.575673468191E+06
 -0.216171116637E+05
 -0.444667322399E+02
  0.360893272977E+00
 -0.497948499155E+00
 -0.460609712120E+00
 -0.286095457956E+00
 -0.295261435066E+00
 -0.169468126499E+00
 -0.264734444258E+00
 -0.326266259234E+00
 -0.331147904127E+00
 -0.481902857834E+00
 -0.380956205821E+00
  0.939267065360E+00
 -0.528954233222E+02
 -0.216797647554E+05
 -0.574799043625E+06
 -0.580443075685E+08
SCALARS inclination float 1
LOOKUP_TABLE default
  0.100000000000E+01
  0.100000000000E+01
  0.100000000000E+01
  0.100000000000E+01
  0.100000000000E+01
  0.100000000000E+01
  0.100000000000E+01
  0.100000000000E+01
  0.100000000000E+01
  0.100000000000E+01
  0.100000000000E+01
  0.100000000000E+01
  0.100000000000E+01
  0.100000000000E+01
  0.100000000000E+01
  0.100000000000E+01
  0.100000000000E+01
  0.100000000000E+01
  0.100000000000E+01
  0.100000000000E+01
  0.100000000000E+01
  0.100000000000E+01
  0.100000000000E+01
  0.100000000000E+01
  0.100000000000E+01
  0.100000000000E+01
  0.100000000000E+01
  0.100000000000E+01
  0.100000000000E+01
  0.100000000000E+01
  0.100000000000E+01
  0.100000000000E+01
  0.100000000000E+01
  0.100000000000E+01
  0.100000000000E+01
  0.100000000000E+01
  0.100000000000E+01
  0.100000000000E+01
  0.100000000000E+01
  0.100000000000E+01
  0.100000000000E+01
  0.100000000000E+01
  0.100000000000E+01
  0.100000000000E+01
  0.100000000000E+01
  0.100000000000E+01
  0.100000000000E+01
  0.100000000000E+01
  0.100000000000E+01
  0.100000000000E+01
  0.100000000000E+01
  0.100000000000E+01
  0.100000000000E+01
  0.100000000000E+01
  0.100000000000E+01
  0.100000000000E+01
  0.100000000000E+01
  0.100000000000E+01
  0.100000000000E+01
  0.100000000000E+01
  0.100000000000E+01
  0.100000000000E+01
  0.100000000000E+01
  0.100000000000E+01
  0.100000000000E+01
  0.100000000000E+01
  0.100000000000E+01
  0.100000000000E+01
  0.100000000000E+01
  0.100000000000E+01
  0.100000000000E+01
  0.100000000000E+01
  0.100000000000E+01
  0.100000000000E+01
  0.100000000000E+01
  0.100000000000E+01
  0.100000000000E+01
  0.100000000000E+01
  0.100000000000E+01
  0.100000000000E+01
  0.100000000000E+01
  0.100000000000E+01
  0.100000000000E+01
  0.100000000000E+01
  0.100000000000E+01
  0.100000000000E+01
  0.100000000000E+01
  0.100000000000E+01
  0.100000000000E+01
  0.100000000000E+01
  0.100000000000E+01
  0.100000000000E+01
  0.100000000000E+01
  0.100000000000E+01
  0.100000000000E+01
  0.100000000000E+01
  0.100000000000E+01
  0.100000000000E+01
  0.100000000000E+01
  0.100000000000E+01
  0.100000000000E+01
  0.100000000000E+01
  0.100000000000E+01
  0.100000000000E+01
  0.100000000000E+01
  0.100000000000E+01
  0.100000000000E+01
  0.100000000000E+01
  0.100000000000E+01
  0.100000000000E+01
  0.100000000000E+01
  0.100000000000E+01
  0.100000000000E+01
  0.100000000000E+01
  0.100000000000E+01
  0.100000000000E+01
  0.100000000000E+01
  0.100000000000E+01
  0.100000000000E+01
  0.100000000000E+01
  0.100000000000E+01
  0.100000000000E+01
  0.100000000000E+01
  0.100000000000E+01
  0.100000000000E+01
  0.100000000000E+01
  0.100000000000E+01
  0.100000000000E+01
  0.100000000000E+01
  0.100000000000E+01
  0.100000000000E+01
  0.100000000000E+01
  0.100000000000E+01
  0.100000000000E+01
  0.100000000000E+01
  0.100000000000E+01
  0.100000000000E+01
  0.100000000000E+01
  0.100000000000E+01
  0.100000000000E+01
  0.100000000000E+01
  0.100000000000E+01
  0.100000000000E+01
  0.100000000000E+01
  0.100000000000E+01
  0.100000000000E+01
  0.100000000000E+01
  0.100000000000E+01
  0.100000000000E+01
  0.100000000000E+01
  0.100000000000E+01
  0.100000000000E+01
  0.100000000000E+01
  0.100000000000E+01
  0.100000000000E+01
  0.100000000000E+01
  0.100000000000E+01
  0.100000000000E+01
  0.100000000000E+01
  0.100000000000E+01
  0.100000000000E+01
  0.100000000000E+01
  0.100000000000E+01
  0.100000000000E+01
  0.100000000000E+01
  0.100000000000E+01
  0.100000000000E+01
  0.100000000000E+01
  0.100000000000E+01
  0.100000000000E+01
  0.100000000000E+01
  0.100000000000E+01
  0.100000000000E+01
  0.100000000000E+01
  0.100000000000E+01
  0.100000000000E+01
  0.100000000000E+01
  0.100000000000E+01
  0.100000000000E+01
  0.100000000000E+01
  0.100000000000E+01
  0.100000000000E+01
  0.100000000000E+01
  0.100000000000E+01
  0.100000000000E+01
  0.100000000000E+01
  0.100000000000E+01
  0.100000000000E+01
  0.100000000000E+01
  0.100000000000E+01
  0.100000000000E+01
  0.100000000000E+01
  0.100000000000E+01
  0.100000000000E+01
  0.100000000000E+01
  0.100000000000E+01
  0.100000000000E+01
  0.100000000000E+01
  0.100000000000E+01
  0.100000000000E+01
  0.100000000000E+01
  0.100000000000E+01
  0.100000000000E+01
  0.100000000000E+01
  0.100000000000E+01
  0.100000000000E+01
  0.100000000000E+01
  0.100000000000E+01
  0.100000000000E+01
  0.100000000000E+01
  0.100000000000E+01
  0.100000000000E+01
  0.100000000000E+01
  0.100000000000E+01
  0.100000000000E+01
  0.100000000000E+01
  0.100000000000E+01
  0.100000000000E+01
  0.100000000000E+01
  0.100000000000E+01
  0.100000000000E+01
  0.100000000000E+01
  0.100000000000E+01
  0.100000000000E+01
  0.100000000000E+01
  0.100000000000E+01
  0.100000000000E+01
  0.100000000000E+01
  0.100000000000E+01
  0.100000000000E+01
  0.100000000000E+01
  0.100000000000E+01
  0.100000000000E+01
  0.100000000000E+01
  0.100000000000E+01
  0.100000000000E+01
  0.100000000000E+01
  0.100000000000E+01
  0.100000000000E+01
  0.100000000000E+01
  0.100000000000E+01
  0.100000000000E+01
  0.100000000000E+01
  0.100000000000E+01
  0.100000000000E+01
  0.100000000000E+01
  0.100000000000E+01
  0.100000000000E+01
  0.100000000000E+01
  0.100000000000E+01
  0.100000000000E+01
  0.100000000000E+01
  0.100000000000E+01
  0.100000000000E+01
  0.100000000000E+01
  0.100000000000E+01
VECTORS v float
  0.191456786604E+03 -0.338412272822E+02  0.240740847937E+02
  0.218001090122E+03 -0.414602790556E+02  0.277246108434E+02
  0.180571618370E+03 -0.403062211644E+01  0.199074375098E+02
  0.178493826227E+03 -0.532687197038E+01  0.198231452890E+02
  0.175582294111E+03 -0.241532580652E+01  0.173369196059E+02
  0.175283385527E+03 -0.291086319872E+01  0.173560739478E+02
  0.171186237127E+03  0.118629309863E+01  0.351290374566E+01
  0.173610386194E+03 -0.775914347863E+01  0.374784717963E+01
  0.152679399408E+03  0.131718620899E+02 -0.193535296173E+02
  0.160946468339E+03 -0.934834704907E+01 -0.236245645727E+02
  0.953252928016E+02  0.562728531012E+02 -0.226367804256E+02
  0.101019832599E+03  0.435690308034E+02 -0.333014069361E+02
  0.150269513742E+03 -0.568065033879E+01  0.903966474521E+02
  0.132422695924E+03  0.341334190200E+02  0.569734641622E+02
  0.191356490926E+03 -0.248003920410E+02  0.299868898752E+02
  0.183204989345E+03 -0.259499862323E+01  0.257755620358E+02
  0.185759442586E+03 -0.514944582163E+01 -0.394496890780E+01
  0.186992851336E+03 -0.970089047436E+01 -0.406451240479E+01
  0.175244696692E+03  0.204730308085E+01 -0.168693786225E+02
  0.169224201481E+03 -0.793362279013E+01 -0.172551272657E+02
  0.154233139964E+03  0.705751282791E+01 -0.158713487287E+02
  0.144441904457E+03  0.949171259286E+00 -0.154742010380E+02
  0.971303340902E+02  0.482609756890E+02 -0.522187779145E+01
  0.114304684367E+03  0.433113339201E+02 -0.758591777648E+01
  0.185763027237E+03 -0.242575895572E+02  0.224416177649E+02
  0.191515245893E+03 -0.277769628935E+02  0.234323355799E+02
  0.176138469114E+03 -0.124000973583E+02  0.203319330090E+02
  0.180469844067E+03 -0.128838184329E+02  0.208511936648E+02
  0.175548388238E+03 -0.796233989535E+01  0.178738994886E+02
  0.175530086617E+03 -0.797072553788E+01  0.178729323860E+02
  0.173611114956E+03 -0.605175246387E+01  0.371258019557E+01
  0.175526400948E+03 -0.107603562211E+02  0.384946093989E+01
  0.161190496163E+03  0.357555833068E+01 -0.218655196465E+02
  0.163996051233E+03 -0.181591722843E+01 -0.230026790391E+02
  0.104554895084E+03  0.576252620489E+02 -0.272028005155E+02
  0.104305114477E+03  0.580248557677E+02 -0.268263873329E+02
  0.160804519876E+03  0.152545036938E+01  0.923262343761E+02
  0.154584382702E+03  0.114762762192E+02  0.829527372929E+02
  0.194898126712E+03 -0.288374735814E+02  0.310382755440E+02
  0.191406942965E+03 -0.221284153120E+02  0.296232124756E+02
  0.183940653201E+03 -0.146621030395E+02 -0.410396208821E+01
  0.185753480003E+03 -0.191188175419E+02 -0.423351628871E+01
  0.169273956068E+03 -0.263923865087E+01 -0.167442984019E+02
  0.164462543614E+03 -0.484373814657E+01 -0.164903884031E+02
  0.144603605307E+03  0.150152932316E+02 -0.139747442308E+02
  0.144889786008E+03  0.149833328445E+02 -0.140090506788E+02
  0.114329882474E+03  0.455434127480E+02 -0.735010035636E+01
  0.118542905756E+03  0.429629566971E+02 -0.807601188287E+01
  0.183925484094E+03 -0.218209575270E+02  0.219849140561E+02
  0.185760350693E+03 -0.232252276857E+02  0.223310188280E+02
  0.174502526821E+03 -0.119673376317E+02  0.201088339559E+02
  0.176134720782E+03 -0.127261613695E+02  0.203666913994E+02
  0.174428288490E+03 -0.110197215913E+02  0.180625918419E+02
  0.175518422505E+03 -0.111509940209E+02  0.181815567454E+02
  0.175526230882E+03 -0.111588068973E+02  0.385769096687E+01
  0.175797169341E+03 -0.116667460689E+02  0.387378605342E+01
  0.164032194140E+03  0.982380383284E-01 -0.227421473631E+02
  0.164954964797E+03 -0.133132718171E+01 -0.230684694677E+02
  0.104565088592E+03  0.590585726439E+02 -0.263778860439E+02
  0.104453318750E+03  0.592087100939E+02 -0.262260691711E+02