# vtk DataFile Version 3.0
TriPan results file. Generated by TriPan, USU AeroLab (c) 2021.
ASCII
DATASET POLYDATA
POINTS                 144 float
  0.000000000000E+00  0.000000000000E+00  0.000000000000E+00
  0.750993072987E+00  0.000000000000E+00 -0.543790996075E+00
  0.750993072987E+00  0.000000000000E+00  0.543790996075E+00
  0.192375373840E+01  0.192375373840E+01  0.000000000000E+00
  0.267474675179E+01  0.192375373840E+01 -0.543790996075E+00
  0.267474675179E+01  0.192375373840E+01  0.543790996075E+00
  0.359246444702E+01  0.000000000000E+00 -0.103884494305E+01
  0.359246444702E+01  0.000000000000E+00  0.103884494305E+01
  0.547033166885E+01  0.547033166885E+01  0.000000000000E+00
  0.551621818542E+01  0.192375373840E+01 -0.103884494305E+01
  0.551621818542E+01  0.192375373840E+01  0.103884494305E+01
  0.622132492065E+01  0.547033166885E+01 -0.543790996075E+00
  0.622132492065E+01  0.547033166885E+01  0.543790996075E+00
  0.906279659271E+01  0.547033166885E+01 -0.103884494305E+01
  0.906279659271E+01  0.547033166885E+01  0.103884494305E+01
  0.939523696899E+01  0.000000000000E+00 -0.980761349201E+00
  0.939523696899E+01  0.000000000000E+00  0.980761349201E+00
  0.113189907074E+02  0.192375373840E+01 -0.980761349201E+00
  0.113189907074E+02  0.192375373840E+01  0.980761349201E+00
  0.113820018768E+02  0.113820018768E+02  0.000000000000E+00
  0.121329956055E+02  0.113820018768E+02 -0.543790996075E+00
  0.121329956055E+02  0.113820018768E+02  0.543790996075E+00
  0.148655681610E+02  0.547033166885E+01 -0.980761349201E+00
  0.148655681610E+02  0.547033166885E+01  0.980761349201E+00
  0.149744663239E+02  0.113820018768E+02 -0.103884494305E+01
  0.149744663239E+02  0.113820018768E+02  0.103884494305E+01
  0.151765298843E+02  0.000000000000E+00 -0.411069482565E+00
  0.151765298843E+02  0.000000000000E+00  0.411069482565E+00
  0.171002845764E+02  0.192375373840E+01 -0.411069482565E+00
  0.171002845764E+02  0.192375373840E+01  0.411069482565E+00
  0.180493259430E+02  0.000000000000E+00 -0.101516798139E+00
  0.180493259430E+02  0.000000000000E+00  0.101516798139E+00
  0.190003013611E+02  0.000000000000E+00  0.000000000000E+00
  0.197561950684E+02  0.197561950684E+02  0.000000000000E+00
  0.199730796814E+02  0.192375373840E+01 -0.101516798139E+00
  0.199730796814E+02  0.192375373840E+01  0.101516798139E+00
  0.205071868896E+02  0.197561950684E+02 -0.543790996075E+00
  0.205071868896E+02  0.197561950684E+02  0.543790996075E+00
  0.206468620300E+02  0.547033166885E+01 -0.411069482565E+00
  0.206468620300E+02  0.547033166885E+01  0.411069482565E+00
  0.207772388458E+02  0.113820018768E+02 -0.980761349201E+00
  0.207772388458E+02  0.113820018768E+02  0.980761349201E+00
  0.209240550995E+02  0.192375373840E+01  0.000000000000E+00
  0.233486595154E+02  0.197561950684E+02 -0.103884494305E+01
  0.233486595154E+02  0.197561950684E+02  0.103884494305E+01
  0.235196590424E+02  0.547033166885E+01 -0.101516798139E+00
  0.235196590424E+02  0.547033166885E+01  0.101516798139E+00
  0.244706325531E+02  0.547033166885E+01  0.000000000000E+00
  0.265585327148E+02  0.113820018768E+02 -0.411069482565E+00
  0.265585327148E+02  0.113820018768E+02  0.411069482565E+00
  0.291514320374E+02  0.197561950684E+02 -0.980761349201E+00
  0.291514320374E+02  0.197561950684E+02  0.980761349201E+00
  0.292438049316E+02  0.292438049316E+02  0.000000000000E+00
  0.294313278198E+02  0.113820018768E+02 -0.101516798139E+00
  0.294313278198E+02  0.113820018768E+02  0.101516798139E+00
  0.299947986603E+02  0.292438049316E+02 -0.543790996075E+00
  0.299947986603E+02  0.292438049316E+02  0.543790996075E+00
  0.303823032379E+02  0.113820018768E+02  0.000000000000E+00
  0.328362693787E+02  0.292438049316E+02 -0.103884494305E+01
  0.328362693787E+02  0.292438049316E+02  0.103884494305E+01
  0.349327239990E+02  0.197561950684E+02 -0.411069482565E+00
  0.349327239990E+02  0.197561950684E+02  0.411069482565E+00
  0.376179962158E+02  0.376179962158E+02  0.000000000000E+00
  0.378055191040E+02  0.197561950684E+02 -0.101516798139E+00
  0.378055191040E+02  0.197561950684E+02  0.101516798139E+00
  0.383689918518E+02  0.376179962158E+02 -0.543790996075E+00
  0.383689918518E+02  0.376179962158E+02  0.543790996075E+00
  0.386390419006E+02  0.292438049316E+02 -0.980761349201E+00
  0.386390419006E+02  0.292438049316E+02  0.980761349201E+00
  0.387564964294E+02  0.197561950684E+02  0.000000000000E+00
  0.412104606628E+02  0.376179962158E+02 -0.103884494305E+01
  0.412104606628E+02  0.376179962158E+02  0.103884494305E+01
  0.435296669006E+02  0.435296669006E+02  0.000000000000E+00
  0.442806625366E+02  0.435296669006E+02 -0.543790996075E+00
  0.442806625366E+02  0.435296669006E+02  0.543790996075E+00
  0.444203338623E+02  0.292438049316E+02 -0.411069482565E+00
  0.444203338623E+02  0.292438049316E+02  0.411069482565E+00
  0.470132331848E+02  0.376179962158E+02 -0.980761349201E+00
  0.470132331848E+02  0.376179962158E+02  0.980761349201E+00
  0.470762481689E+02  0.470762481689E+02  0.000000000000E+00
  0.471221313477E+02  0.435296669006E+02 -0.103884494305E+01
  0.471221313477E+02  0.435296669006E+02  0.103884494305E+01
  0.472931327820E+02  0.292438049316E+02 -0.101516798139E+00
  0.472931327820E+02  0.292438049316E+02  0.101516798139E+00
  0.478272399902E+02  0.470762481689E+02 -0.543790996075E+00
  0.478272399902E+02  0.470762481689E+02  0.543790996075E+00
  0.482441062927E+02  0.292438049316E+02  0.000000000000E+00
  0.490000000000E+02  0.490000000000E+02  0.000000000000E+00
  0.497509918213E+02  0.490000000000E+02 -0.543790996075E+00
  0.497509918213E+02  0.490000000000E+02  0.543790996075E+00
  0.501355133057E+02  0.493845176697E+02 -0.384518325329E+00
  0.501355133057E+02  0.493845176697E+02  0.384518325329E+00
  0.502947845459E+02  0.495437927246E+02 -0.938680429840E-15
  0.506687088013E+02  0.470762481689E+02 -0.103884494305E+01
  0.506687088013E+02  0.470762481689E+02  0.103884494305E+01
  0.525924644470E+02  0.490000000000E+02 -0.103884494305E+01
  0.525924644470E+02  0.490000000000E+02  0.103884494305E+01
  0.527945289612E+02  0.376179962158E+02 -0.411069482565E+00
  0.527945289612E+02  0.376179962158E+02  0.411069482565E+00
  0.529249038696E+02  0.435296669006E+02 -0.980761349201E+00
  0.529249038696E+02  0.435296669006E+02  0.980761349201E+00
  0.533270378113E+02  0.497345733643E+02 -0.734574317932E+00
  0.533270378113E+02  0.497345733643E+02  0.734574317932E+00
  0.536313095093E+02  0.500388450623E+02 -0.204183803501E-15
  0.556673240662E+02  0.376179962158E+02 -0.101516798139E+00
  0.556673240662E+02  0.376179962158E+02  0.101516798139E+00
  0.564714813232E+02  0.470762481689E+02 -0.980761349201E+00
  0.564714813232E+02  0.470762481689E+02  0.980761349201E+00
  0.566182975769E+02  0.376179962158E+02  0.000000000000E+00
  0.583952369690E+02  0.490000000000E+02 -0.980761349201E+00
  0.583952369690E+02  0.490000000000E+02  0.980761349201E+00
  0.587061996460E+02  0.435296669006E+02 -0.411069482565E+00
  0.587061996460E+02  0.435296669006E+02  0.411069482565E+00
  0.590887413025E+02  0.496935043335E+02 -0.693503022194E+00
  0.590887413025E+02  0.496935043335E+02  0.693503022194E+00
  0.593759994507E+02  0.499807624817E+02  0.000000000000E+00
  0.615789947510E+02  0.435296669006E+02 -0.101516798139E+00
  0.615789947510E+02  0.435296669006E+02  0.101516798139E+00
  0.622527770996E+02  0.470762481689E+02 -0.411069482565E+00
  0.622527770996E+02  0.470762481689E+02  0.411069482565E+00
  0.625299682617E+02  0.435296669006E+02  0.000000000000E+00
  0.641765289307E+02  0.490000000000E+02 -0.411069482565E+00
  0.641765289307E+02  0.490000000000E+02  0.411069482565E+00
  0.644672012329E+02  0.492906684875E+02 -0.290670007467E+00
  0.644672012329E+02  0.492906684875E+02  0.290670007467E+00
  0.645876007080E+02  0.494110679626E+02  0.400788329721E-15
  0.651255722046E+02  0.470762481689E+02 -0.101516798139E+00
  0.651255722046E+02  0.470762481689E+02  0.101516798139E+00
  0.660765457153E+02  0.470762481689E+02  0.000000000000E+00
  0.670493240356E+02  0.490000000000E+02 -0.101516798139E+00
  0.670493240356E+02  0.490000000000E+02  0.101516798139E+00
  0.671211090088E+02  0.490717849731E+02 -0.717832148075E-01
  0.671211090088E+02  0.490717849731E+02  0.717832148075E-01
  0.671508407593E+02  0.491015167236E+02 -0.511051538462E-16
  0.680002975464E+02  0.490000000000E+02  0.000000000000E+00
  0.190003013611E+02  0.000000000000E+00  0.000000000000E+00
  0.209240550995E+02  0.192375373840E+01  0.000000000000E+00
  0.244706325531E+02  0.547033166885E+01  0.000000000000E+00
  0.303823032379E+02  0.113820018768E+02  0.000000000000E+00
  0.387564964294E+02  0.197561950684E+02  0.000000000000E+00
  0.482441062927E+02  0.292438049316E+02  0.000000000000E+00
  0.566182975769E+02  0.376179962158E+02  0.000000000000E+00
  0.625299682617E+02  0.435296669006E+02  0.000000000000E+00
  0.660765457153E+02  0.470762481689E+02  0.000000000000E+00
POLYGONS                 256                1024
3                 135                  34                 136
3                  32                  30                  34
3                  30                  28                  34
3                  30                  26                  28
3                  26                  17                  28
3                  26                  15                  17
3                  15                   6                  17
3                  17                   6                   9
3                   6                   1                   9
3                   9                   1                   4
3                   1                   0                   4
3                   4                   0                   3
3                   0                   5                   3
3                   0                   2                   5
3                   2                  10                   5
3                   2                   7                  10
[...]
CELL_DATA                 256
SCALARS sigma float 1
LOOKUP_TABLE default
  0.000000000000E+00
  0.000000000000E+00
  0.000000000000E+00
  0.000000000000E+00
  0.000000000000E+00
  0.000000000000E+00
  0.000000000000E+00
  0.000000000000E+00
  0.000000000000E+00
  0.000000000000E+00
  0.000000000000E+00
  0.000000000000E+00
  0.000000000000E+00
  0.000000000000E+00
  0.000000000000E+00
  0.000000000000E+00
  0.000000000000E+00
  0.000000000000E+00
  0.000000000000E+00
  0.000000000000E+00
  0.000000000000E+00
  0.000000000000E+00
  0.000000000000E+00
  0.000000000000E+00
  0.000000000000E+00
  0.000000000000E+00
  0.000000000000E+00
  0.000000000000E+00
  0.000000000000E+00
  0.000000000000E+00
  0.000000000000E+00
  0.000000000000E+00
  0.000000000000E+00
  0.000000000000E+00
  0.000000000000E+00
  0.000000000000E+00
  0.000000000000E+00
  0.000000000000E+00
  0.000000000000E+00
  0.000000000000E+00
  0.000000000000E+00
  0.000000000000E+00
  0.000000000000E+00
  0.000000000000E+00
  0.000000000000E+00
  0.000000000000E+00
  0.000000000000E+00
  0.000000000000E+00
  0.000000000000E+00
  0.000000000000E+00
  0.000000000000E+00
  0.000000000000E+00
  0.000000000000E+00
  0.000000000000E+00
  0.000000000000E+00
  0.000000000000E+00
  0.000000000000E+00
  0.000000000000E+00
  0.000000000000E+00
  0.000000000000E+00
  0.000000000000E+00
  0.000000000000E+00
  0.000000000000E+00
  0.000000000000E+00
  0.000000000000E+00
  0.000000000000E+00
  0.000000000000E+00
  0.000000000000E+00
  0.000000000000E+00
  0.000000000000E+00
  0.000000000000E+00
  0.000000000000E+00
  0.000000000000E+00
  0.000000000000E+00
  0.000000000000E+00
  0.000000000000E+00
  0.000000000000E+00
  0.000000000000E+00
  0.000000000000E+00
  0.000000000000E+00
  0.000000000000E+00
  0.000000000000E+00
  0.000000000000E+00
  0.000000000000E+00
  0.000000000000E+00
  0.000000000000E+00
  0.000000000000E+00
  0.000000000000E+00
  0.000000000000E+00
  0.000000000000E+00
  0.000000000000E+00
  0.000000000000E+00
  0.000000000000E+00
  0.000000000000E+00
  0.000000000000E+00
  0.000000000000E+00
  0.000000000000E+00
  0.000000000000E+00
  0.000000000000E+00
  0.000000000000E+00
  0.000000000000E+00
  0.000000000000E+00
  0.000000000000E+00
  0.000000000000E+00
  0.000000000000E+00
  0.000000000000E+00
  0.000000000000E+00
  0.000000000000E+00
  0.000000000000E+00
  0.000000000000E+00
  0.000000000000E+00
  0.000000000000E+00
  0.000000000000E+00
  0.000000000000E+00
  0.000000000000E+00
  0.000000000000E+00
  0.000000000000E+00
  0.000000000000E+00
  0.000000000000E+00
  0.000000000000E+00
  0.000000000000E+00
  0.000000000000E+00
  0.000000000000E+00
  0.000000000000E+00
  0.000000000000E+00
  0.000000000000E+00
  0.000000000000E+00
  0.000000000000E+00
  0.000000000000E+00
  0.000000000000E+00
  0.000000000000E+00
  0.000000000000E+00
  0.000000000000E+00
  0.000000000000E+00
  0.000000000000E+00
  0.000000000000E+00
  0.000000000000E+00
  0.000000000000E+00
  0.000000000000E+00
  0.000000000000E+00
  0.000000000000E+00
  0.000000000000E+00
  0.000000000000E+00
  0.000000000000E+00
  0.000000000000E+00
  0.000000000000E+00
  0.000000000000E+00
  0.000000000000E+00
  0.000000000000E+00
  0.000000000000E+00
  0.000000000000E+00
  0.000000000000E+00
  0.000000000000E+00
  0.000000000000E+00
  0.000000000000E+00
  0.000000000000E+00
  0.000000000000E+00
  0.000000000000E+00
  0.000000000000E+00
  0.000000000000E+00
  0.000000000000E+00
  0.000000000000E+00
  0.000000000000E+00
  0.000000000000E+00
  0.000000000000E+00
  0.000000000000E+00
  0.000000000000E+00
  0.000000000000E+00
  0.000000000000E+00
  0.000000000000E+00
  0.000000000000E+00
  0.000000000000E+00
  0.000000000000E+00
  0.000000000000E+00
  0.000000000000E+00
  0.000000000000E+00
  0.000000000000E+00
  0.000000000000E+00
  0.000000000000E+00
  0.000000000000E+00
  0.000000000000E+00
  0.000000000000E+00
  0.000000000000E+00
  0.000000000000E+00
  0.000000000000E+00
  0.000000000000E+00
  0.000000000000E+00
  0.000000000000E+00
  0.000000000000E+00
  0.000000000000E+00
  0.000000000000E+00
  0.000000000000E+00
  0.000000000000E+00
  0.000000000000E+00
  0.000000000000E+00
  0.000000000000E+00
  0.000000000000E+00
  0.000000000000E+00
  0.000000000000E+00
  0.000000000000E+00
  0.000000000000E+00
  0.000000000000E+00
  0.000000000000E+00
  0.000000000000E+00
  0.000000000000E+00
  0.000000000000E+00
  0.000000000000E+00
  0.000000000000E+00
  0.000000000000E+00
  0.000000000000E+00
  0.000000000000E+00
  0.000000000000E+00
  0.000000000000E+00
  0.000000000000E+00
  0.000000000000E+00
  0.000000000000E+00
  0.000000000000E+00
  0.000000000000E+00
  0.000000000000E+00
  0.000000000000E+00
  0.000000000000E+00
  0.000000000000E+00
  0.000000000000E+00
  0.000000000000E+00
  0.000000000000E+00
  0.000000000000E+00
  0.000000000000E+00
  0.000000000000E+00
  0.000000000000E+00
  0.000000000000E+00
  0.000000000000E+00
  0.000000000000E+00
  0.000000000000E+00
  0.000000000000E+00
  0.000000000000E+00
  0.000000000000E+00
  0.000000000000E+00
  0.000000000000E+00
  0.000000000000E+00
  0.000000000000E+00
  0.000000000000E+00
  0.000000000000E+00
  0.000000000000E+00
  0.000000000000E+00
  0.000000000000E+00
  0.000000000000E+00
  0.000000000000E+00
  0.000000000000E+00
  0.000000000000E+00
  0.000000000000E+00
  0.000000000000E+00
  0.000000000000E+00
  0.000000000000E+00
  0.000000000000E+00
  0.000000000000E+00
  0.000000000000E+00
SCALARS C_p_inc float 1
LOOKUP_TABLE default
 -0.506053835812E+00
 -0.116668134056E+01
 -0.252415169122E+00
 -0.226703724999E+00
 -0.174296497901E+00
 -0.172892366956E+00
 -0.865904872627E-01
 -0.124664566296E+00
  0.154125080615E+00
  0.471363410512E-01
  0.556154573417E+00
  0.547375425964E+00
 -0.127736401657E+00
  0.232752375494E+00
 -0.429985463352E+00
 -0.246190139061E+00
 -0.294651682680E+00
 -0.305474488259E+00
 -0.152507144425E+00
 -0.759512667964E-01
  0.134612502979E+00
  0.247187555402E+00
  0.603765902545E+00
  0.467136817565E+00
 -0.386807008598E+00
 -0.491173302062E+00
 -0.192355971635E+00
 -0.258765931562E+00
 -0.173735569932E+00
 -0.176549477584E+00
 -0.123094469789E+00
 -0.153047962499E+00
  0.469361218494E-01
  0.156450487759E-01
  0.470030151290E+00
  0.472435229341E+00
 -0.279308235936E+00
 -0.144834384795E+00
 -0.498188209487E+00
 -0.419445711437E+00
 -0.283515488583E+00
 -0.306561509362E+00
 -0.730150981104E-01
 -0.158293118702E-01
  0.234867472693E+00
  0.221403138878E+00
  0.457563216100E+00
  0.429126916956E+00
 -0.353390599126E+00
 -0.384608476386E+00
 -0.169927048726E+00
 -0.192398611548E+00
 -0.160819592220E+00
 -0.175829131286E+00
 -0.152951434063E+00
 -0.157535525071E+00
  0.150894455003E-01
  0.373365484535E-02
  0.466625480247E+00
  0.467514743567E+00
 -0.316717418772E+00
 -0.280623147693E+00
 -0.510317076746E+00
 -0.500225137344E+00
 -0.263292930900E+00
 -0.292020843698E+00
 -0.151478614833E-01
 -0.249970589178E-02
  0.219275039056E+00
  0.214208513809E+00
  0.427758919373E+00
  0.420556632516E+00
 -0.340144783288E+00
 -0.352591714983E+00
 -0.162037680287E+00
 -0.169888242565E+00
 -0.154991289023E+00
 -0.161189734727E+00
 -0.158622075514E+00
 -0.155841307058E+00
  0.387386670744E-02
  0.289957725593E-02
  0.471345633739E+00
  0.470755059355E+00
 -0.308984832278E+00
 -0.316153800139E+00
 -0.503345585123E+00
 -0.513720222031E+00
 -0.257242476856E+00
 -0.266342388997E+00
 -0.247898623279E-02
 -0.288831659324E-03
  0.213922141157E+00
  0.212855476754E+00
  0.420474777125E+00
  0.417974585268E+00
 -0.324062475138E+00
 -0.339374174534E+00
 -0.155142913784E+00
 -0.161879267476E+00
 -0.152121063111E+00
 -0.154898843493E+00
 -0.156152988289E+00
 -0.155825759627E+00
  0.295259061229E-02
  0.162949528854E-02
  0.472285903087E+00
  0.471420120621E+00
 -0.300597971902E+00
 -0.308719032953E+00
 -0.498222997873E+00
 -0.504387474620E+00
 -0.254313475191E+00
 -0.257797406534E+00
 -0.287975627504E-03
  0.125586607697E-02
  0.212830265382E+00
  0.212604743627E+00
  0.418074359749E+00
  0.415413384318E+00
 -0.269281990003E+00
 -0.323150348466E+00
 -0.132160977454E+00
 -0.154556093356E+00
 -0.147417276376E+00
 -0.151494395010E+00
 -0.155261722984E+00
 -0.160184065815E+00
  0.155608435861E-02
 -0.442122071742E-02
  0.469908457593E+00
  0.468131740065E+00
 -0.291217189195E+00
 -0.300686171651E+00
 -0.492210078770E+00
 -0.498048874523E+00
 -0.250174900713E+00
 -0.254310716910E+00
  0.125376623096E-02
  0.590231967915E-02
  0.212690178982E+00
  0.216604096495E+00
  0.416277633094E+00
  0.412392820209E+00
  0.211845870419E-01
 -0.268173580404E+00
 -0.542056827962E-01
 -0.130331936495E+00
 -0.136008793991E+00
 -0.145353229452E+00
 -0.157685704268E+00
 -0.177616001476E+00
 -0.483833038174E-02
 -0.248651567924E-01
  0.461747853134E+00
  0.457594624227E+00
 -0.276427341735E+00
 -0.291784036732E+00
 -0.484787049447E+00
 -0.490682887137E+00
 -0.244141779913E+00
 -0.249525559820E+00
  0.584769002393E-02
  0.161935884551E-01
  0.216289177077E+00
  0.241773599660E+00
  0.416262888275E+00
  0.474085172579E+00
 -0.234609381563E+02
 -0.114950981781E+01
  0.342445609791E+00
 -0.102142206511E+00
 -0.380085175391E+00
 -0.134046718966E+00
 -0.172751966297E+00
 -0.198824348736E+00
 -0.272622925547E-01
 -0.770871304173E-01
  0.438612394189E+00
  0.430906429647E+00
 -0.255221509494E+00
 -0.278290598469E+00
 -0.475546963483E+00
 -0.480423058939E+00
 -0.226216467375E+00
 -0.243448069761E+00
  0.159272946144E-01
 -0.222733974859E+00
  0.151100620830E+00
  0.455162120581E-01
 -0.413737776051E-02
 -0.202290878131E+02
 -0.962118606239E+08
 -0.307500409645E+05
 -0.180430431569E+05
  0.512756462588E+00
 -0.117191312318E+01
 -0.374689358492E+00
 -0.204372475922E+00
 -0.230413225417E+00
 -0.896802561148E-01
 -0.104199606899E+00
  0.340649542453E+00
  0.326761927623E+00
 -0.242563419642E+00
 -0.266663817369E+00
 -0.357179416398E+00
 -0.476863725245E+00
 -0.232756473826E+00
 -0.225361582845E+00
 -0.220641625234E+00
 -0.134788579525E+01
  0.320849453468E+00
 -0.180230932805E+05
 -0.308040250922E+05
 -0.962140118864E+08
 -0.171009770984E+09
 -0.780084846049E+06
 -0.310457159892E+05
 -0.811343816387E+02
  0.455415364470E-02
 -0.305445027991E+00
 -0.284083478536E+00
 -0.175267296208E+00
 -0.191461231170E+00
  0.711753825622E-02
 -0.298706599693E+00
 -0.282880446004E+00
 -0.373022078418E+00
 -0.293496345031E+00
 -0.236308352297E+00
  0.538735765297E+00
 -0.881856186198E+02
 -0.311184359155E+05
 -0.779474683544E+06
 -0.171004630035E+09
 -0.118068515769E+09
 -0.111448245171E+07
 -0.324917247084E+05
 -0.103921403062E+03
  0.136315001861E+00
 -0.386383343946E+00
 -0.353679186550E+00
 -0.249191947013E+00
 -0.264595266310E+00
 -0.156966072359E+00
 -0.262402730462E+00
 -0.297018262881E+00
 -0.303260442072E+00
 -0.368358918357E+00
 -0.293937155351E+00
  0.800267236725E+00
 -0.116532818281E+03
 -0.325707420887E+05
 -0.111325616575E+07
 -0.118063336918E+09
SCALARS inclination float 1
LOOKUP_TABLE default
  0.100000000000E+01
  0.100000000000E+01
  0.100000000000E+01
  0.100000000000E+01
  0.100000000000E+01
  0.100000000000E+01
  0.100000000000E+01
  0.100000000000E+01
  0.100000000000E+01
  0.100000000000E+01
  0.100000000000E+01
  0.100000000000E+01
  0.100000000000E+01
  0.100000000000E+01
  0.100000000000E+01
  0.100000000000E+01
  0.100000000000E+01
  0.100000000000E+01
  0.100000000000E+01
  0.100000000000E+01
  0.100000000000E+01
  0.100000000000E+01
  0.100000000000E+01
  0.100000000000E+01
  0.100000000000E+01
  0.100000000000E+01
  0.100000000000E+01
  0.100000000000E+01
  0.100000000000E+01
  0.100000000000E+01
  0.100000000000E+01
  0.100000000000E+01
  0.100000000000E+01
  0.100000000000E+01
  0.100000000000E+01
  0.100000000000E+01
  0.100000000000E+01
  0.100000000000E+01
  0.100000000000E+01
  0.100000000000E+01
  0.100000000000E+01
  0.100000000000E+01
  0.100000000000E+01
  0.100000000000E+01
  0.100000000000E+01
  0.100000000000E+01
  0.100000000000E+01
  0.100000000000E+01
  0.100000000000E+01
  0.100000000000E+01
  0.100000000000E+01
  0.100000000000E+01
  0.100000000000E+01
  0.100000000000E+01
  0.100000000000E+01
  0.100000000000E+01
  0.100000000000E+01
  0.100000000000E+01
  0.100000000000E+01
  0.100000000000E+01
  0.100000000000E+01
  0.100000000000E+01
  0.100000000000E+01
  0.100000000000E+01
  0.100000000000E+01
  0.100000000000E+01
  0.100000000000E+01
  0.100000000000E+01
  0.100000000000E+01
  0.100000000000E+01
  0.100000000000E+01
  0.100000000000E+01
  0.100000000000E+01
  0.100000000000E+01
  0.100000000000E+01
  0.100000000000E+01
  0.100000000000E+01
  0.100000000000E+01
  0.100000000000E+01
  0.100000000000E+01
  0.100000000000E+01
  0.100000000000E+01
  0.100000000000E+01
  0.100000000000E+01
  0.100000000000E+01
  0.100000000000E+01
  0.100000000000E+01
  0.100000000000E+01
  0.100000000000E+01
  0.100000000000E+01
  0.100000000000E+01
  0.100000000000E+01
  0.100000000000E+01
  0.100000000000E+01
  0.100000000000E+01
  0.100000000000E+01
  0.100000000000E+01
  0.100000000000E+01
  0.100000000000E+01
  0.100000000000E+01
  0.100000000000E+01
  0.100000000000E+01
  0.100000000000E+01
  0.100000000000E+01
  0.100000000000E+01
  0.100000000000E+01
  0.100000000000E+01
  0.100000000000E+01
  0.100000000000E+01
  0.100000000000E+01
  0.100000000000E+01
  0.100000000000E+01
  0.100000000000E+01
  0.100000000000E+01
  0.100000000000E+01
  0.100000000000E+01
  0.100000000000E+01
  0.100000000000E+01
  0.100000000000E+01
  0.100000000000E+01
  0.100000000000E+01
  0.100000000000E+01
  0.100000000000E+01
  0.100000000000E+01
  0.100000000000E+01
  0.100000000000E+01
  0.100000000000E+01
  0.100000000000E+01
  0.100000000000E+01
  0.100000000000E+01
  0.100000000000E+01
  0.100000000000E+01
  0.100000000000E+01
  0.100000000000E+01
  0.100000000000E+01
  0.100000000000E+01
  0.100000000000E+01
  0.100000000000E+01
  0.100000000000E+01
  0.100000000000E+01
  0.100000000000E+01
  0.100000000000E+01
  0.100000000000E+01
  0.100000000000E+01
  0.100000000000E+01
  0.100000000000E+01
  0.100000000000E+01
  0.100000000000E+01
  0.100000000000E+01
  0.100000000000E+01
  0.100000000000E+01
  0.100000000000E+01
  0.100000000000E+01
  0.100000000000E+01
  0.100000000000E+01
  0.100000000000E+01
  0.100000000000E+01
  0.100000000000E+01
  0.100000000000E+01
  0.100000000000E+01
  0.100000000000E+01
  0.100000000000E+01
  0.100000000000E+01
  0.100000000000E+01
  0.100000000000E+01
  0.100000000000E+01
  0.100000000000E+01
  0.100000000000E+01
  0.100000000000E+01
  0.100000000000E+01
  0.100000000000E+01
  0.100000000000E+01
  0.100000000000E+01
  0.100000000000E+01
  0.100000000000E+01
  0.100000000000E+01
  0.100000000000E+01
  0.100000000000E+01
  0.100000000000E+01
  0.100000000000E+01
  0.100000000000E+01
  0.100000000000E+01
  0.100000000000E+01
  0.100000000000E+01
  0.100000000000E+01
  0.100000000000E+01
  0.100000000000E+01
  0.100000000000E+01
  0.100000000000E+01
  0.100000000000E+01
  0.100000000000E+01
  0.100000000000E+01
  0.100000000000E+01
  0.100000000000E+01
  0.100000000000E+01
  0.100000000000E+01
  0.100000000000E+01
  0.100000000000E+01
  0.100000000000E+01
  0.100000000000E+01
  0.100000000000E+01
  0.100000000000E+01
  0.100000000000E+01
  0.100000000000E+01
  0.100000000000E+01
  0.100000000000E+01
  0.100000000000E+01
  0.100000000000E+01
  0.100000000000E+01
  0.100000000000E+01
  0.100000000000E+01
  0.100000000000E+01
  0.100000000000E+01
  0.100000000000E+01
  0.100000000000E+01
  0.100000000000E+01
  0.100000000000E+01
  0.100000000000E+01
  0.100000000000E+01
  0.100000000000E+01
  0.100000000000E+01
  0.100000000000E+01
  0.100000000000E+01
  0.100000000000E+01
  0.100000000000E+01
  0.100000000000E+01
  0.100000000000E+01
  0.100000000000E+01
  0.100000000000E+01
  0.100000000000E+01
  0.100000000000E+01
  0.100000000000E+01
  0.100000000000E+01
  0.100000000000E+01
  0.100000000000E+01
  0.100000000000E+01
  0.100000000000E+01
  0.100000000000E+01
  0.100000000000E+01
  0.100000000000E+01
  0.100000000000E+01
  0.100000000000E+01
  0.100000000000E+01
  0.100000000000E+01
  0.100000000000E+01
  0.100000000000E+01
  0.100000000000E+01
  0.100000000000E+01
  0.100000000000E+01
  0.100000000000E+01
  0.100000000000E+01
  0.100000000000E+01
  0.100000000000E+01
  0.100000000000E+01
  0.100000000000E+01
  0.100000000000E+01
VECTORS v float
  0.194954982542E+03 -0.373113051022E+02  0.247944682781E+02
  0.231428449702E+03 -0.554063635438E+02  0.306196682703E+02
  0.181231060422E+03 -0.520897426438E+01  0.200894985936E+02
  0.179317472827E+03 -0.616952575350E+01  0.199867996579E+02
  0.175739475141E+03 -0.259152629441E+01  0.175728347531E+02
  0.175628874322E+03 -0.281015155613E+01  0.175834823148E+02
  0.169876945160E+03  0.294177760571E+01  0.167095891397E+01
  0.172656494094E+03 -0.822616266013E+01  0.181056809128E+01
  0.147187595445E+03  0.172427359896E+02 -0.226395789696E+02
  0.156385247456E+03 -0.704140357695E+01 -0.284729269382E+02
  0.871771991054E+02  0.621666426296E+02 -0.181100424955E+02
  0.918742556941E+02  0.527464044122E+02 -0.283323184683E+02
  0.141307159085E+03  0.331350102097E+01  0.999206483056E+02
  0.123126960004E+03  0.397750188203E+02  0.603547987612E+02
  0.189408539294E+03 -0.265065584165E+02  0.376177003441E+02
  0.179268882390E+03  0.264713485355E+00  0.311869129321E+02
  0.185364344806E+03 -0.583074893047E+01 -0.191379174841E+01
  0.186034219114E+03 -0.852223465084E+01 -0.194743771161E+01
  0.174144839773E+03  0.336714469043E+01 -0.168285304545E+02
  0.167940924150E+03 -0.889621565741E+01 -0.174256291174E+02
  0.150621226851E+03  0.842349022749E+01 -0.153222466542E+02
  0.140610550663E+03  0.339850036972E+01 -0.147850288487E+02
  0.807998146665E+02  0.632092363661E+02 -0.187779741987E+01
  0.107918963718E+03  0.497247137222E+02 -0.621224672818E+01
  0.188628168705E+03 -0.271125396253E+02  0.230304054966E+02
  0.195001883765E+03 -0.317392981979E+02  0.242046636124E+02
  0.176330482800E+03 -0.130678897023E+02  0.204082557914E+02
  0.181131003285E+03 -0.139266709045E+02  0.210180760816E+02
  0.175467683390E+03 -0.826335177106E+01  0.181049568001E+02
  0.175686266676E+03 -0.812436149937E+01  0.181127999412E+02
  0.172656807792E+03 -0.509490302333E+01  0.177922848054E+01
  0.174704759159E+03 -0.104948532356E+02  0.185377952977E+01
  0.156810668051E+03  0.739924027780E+01 -0.260311315026E+02
  0.159375371405E+03  0.260066000733E+01 -0.273139937800E+02
  0.963160951282E+02  0.656599405228E+02 -0.221979940576E+02
  0.954215523112E+02  0.669910010285E+02 -0.205864403760E+02
  0.152458046465E+03  0.995450687432E+01  0.103186202476E+03
  0.146593181262E+03  0.186812911068E+02  0.926204801303E+02
  0.193657537052E+03 -0.283830678468E+02  0.386849110162E+02
  0.189578114252E+03 -0.207504355020E+02  0.366443874346E+02
  0.184028982711E+03 -0.152013032157E+02 -0.199422138072E+01
  0.185363053635E+03 -0.187189241244E+02 -0.204278463734E+01
  0.168013310592E+03 -0.136918341409E+01 -0.166910437814E+02
  0.163395050517E+03 -0.430579048716E+01 -0.165253327340E+02
  0.140781669334E+03  0.183075876550E+02 -0.131969667633E+02
  0.142060632221E+03  0.180787885445E+02 -0.133594229272E+02
  0.107946770852E+03  0.521926636732E+02 -0.595175879313E+01
  0.112980100266E+03  0.485355186434E+02 -0.687948525649E+01
  0.186670758664E+03 -0.245714041712E+02  0.225501393580E+02
  0.188615398733E+03 -0.261929201664E+02  0.229308722688E+02
  0.174718411976E+03 -0.122959367718E+02  0.201513824147E+02
  0.176329991787E+03 -0.131106745477E+02  0.204128126275E+02
  0.174312810320E+03 -0.110934929175E+02  0.182700388322E+02
  0.175440331418E+03 -0.111075191923E+02  0.183825275361E+02
  0.174704771470E+03 -0.103719591858E+02  0.185254952335E+01
  0.175015343412E+03 -0.109874731363E+02  0.186181897687E+01
  0.159434088597E+03  0.459378042293E+01 -0.269769734639E+02
  0.160343491018E+03  0.321386801409E+01 -0.273758372461E+02
  0.957145501582E+02  0.678428140877E+02 -0.201818007121E+02
  0.954298562346E+02  0.682068873459E+02 -0.197120226207E+02