# vtk DataFile Version 3.0
TriPan results file. Generated by TriPan, USU AeroLab (c) 2021.
ASCII
DATASET POLYDATA
POINTS                 144 float
  0.000000000000E+00  0.000000000000E+00  0.000000000000E+00
  0.113538098335E+01  0.000000000000E+00 -0.658124566078E+00
  0.113538098335E+01  0.000000000000E+00  0.658124566078E+00
  0.192375373840E+01  0.192375373840E+01  0.000000000000E+00
  0.305913543701E+01  0.192375373840E+01 -0.658124983311E+00
  0.305913543701E+01  0.192375373840E+01  0.658124983311E+00
  0.423028087616E+01  0.000000000000E+00 -0.108747220039E+01
  0.423028087616E+01  0.000000000000E+00  0.108747220039E+01
  0.547033166885E+01  0.547033166885E+01  0.000000000000E+00
  0.615403699875E+01  0.192375373840E+01 -0.108747279644E+01
  0.615403699875E+01  0.192375373840E+01  0.108747279644E+01
  0.660571479797E+01  0.547033166885E+01 -0.658125698566E+00
  0.660571479797E+01  0.547033166885E+01  0.658125698566E+00
  0.939508819580E+01  0.000000000000E+00 -0.980745851994E+00
  0.939508819580E+01  0.000000000000E+00  0.980745851994E+00
  0.970061969757E+01  0.547033166885E+01 -0.108747410774E+01
  0.970061969757E+01  0.547033166885E+01  0.108747410774E+01
  0.113188476562E+02  0.192375373840E+01 -0.980746448040E+00
  0.113188476562E+02  0.192375373840E+01  0.980746448040E+00
  0.113820018768E+02  0.113820018768E+02  0.000000000000E+00
  0.125173873901E+02  0.113820018768E+02 -0.658127009869E+00
  0.125173873901E+02  0.113820018768E+02  0.658127009869E+00
  0.145402030945E+02  0.000000000000E+00 -0.479613035917E+00
  0.145402030945E+02  0.000000000000E+00  0.479613035917E+00
  0.148654365540E+02  0.547033166885E+01 -0.980747580528E+00
  0.148654365540E+02  0.547033166885E+01  0.980747580528E+00
  0.156122989655E+02  0.113820018768E+02 -0.108747613430E+01
  0.156122989655E+02  0.113820018768E+02  0.108747613430E+01
  0.164639663696E+02  0.192375373840E+01 -0.479613333941E+00
  0.164639663696E+02  0.192375373840E+01  0.479613333941E+00
  0.176505107880E+02  0.000000000000E+00 -0.144198849797E+00
  0.176505107880E+02  0.000000000000E+00  0.144198849797E+00
  0.190000000000E+02  0.000000000000E+00  0.000000000000E+00
  0.195742740631E+02  0.192375373840E+01 -0.144198939204E+00
  0.195742740631E+02  0.192375373840E+01  0.144198939204E+00
  0.197561950684E+02  0.197561950684E+02  0.000000000000E+00
  0.200105609894E+02  0.547033166885E+01 -0.479613870382E+00
  0.200105609894E+02  0.547033166885E+01  0.479613870382E+00
  0.207771244049E+02  0.113820018768E+02 -0.980749428272E+00
  0.207771244049E+02  0.113820018768E+02  0.980749428272E+00
  0.208915824890E+02  0.197561950684E+02 -0.658128738403E+00
  0.208915824890E+02  0.197561950684E+02  0.658128738403E+00
  0.209237651825E+02  0.192375373840E+01  0.000000000000E+00
  0.231208724976E+02  0.547033166885E+01 -0.144199103117E+00
  0.231208724976E+02  0.547033166885E+01  0.144199103117E+00
  0.239865016937E+02  0.197561950684E+02 -0.108747911453E+01
  0.239865016937E+02  0.197561950684E+02  0.108747911453E+01
  0.244703655243E+02  0.547033166885E+01  0.000000000000E+00
  0.259222583771E+02  0.113820018768E+02 -0.479614794254E+00
  0.259222583771E+02  0.113820018768E+02  0.479614794254E+00
  0.290325775146E+02  0.113820018768E+02 -0.144199386239E+00
  0.290325775146E+02  0.113820018768E+02  0.144199386239E+00
  0.291513423920E+02  0.197561950684E+02 -0.980752110481E+00
  0.291513423920E+02  0.197561950684E+02  0.980752110481E+00
  0.292438049316E+02  0.292438049316E+02  0.000000000000E+00
  0.303791980743E+02  0.292438049316E+02 -0.658130764961E+00
  0.303791980743E+02  0.292438049316E+02  0.658130764961E+00
  0.303820724487E+02  0.113820018768E+02  0.000000000000E+00
  0.334741249084E+02  0.292438049316E+02 -0.108748245239E+01
  0.334741249084E+02  0.292438049316E+02  0.108748245239E+01
  0.342964897156E+02  0.197561950684E+02 -0.479616105556E+00
  0.342964897156E+02  0.197561950684E+02  0.479616105556E+00
  0.374068183899E+02  0.197561950684E+02 -0.144199773669E+00
  0.374068183899E+02  0.197561950684E+02  0.144199773669E+00
  0.376179962158E+02  0.376179962158E+02  0.000000000000E+00
  0.386389808655E+02  0.292438049316E+02 -0.980755090714E+00
  0.386389808655E+02  0.292438049316E+02  0.980755090714E+00
  0.387533912659E+02  0.376179962158E+02 -0.658132553101E+00
  0.387533912659E+02  0.376179962158E+02  0.658132553101E+00
  0.387563171387E+02  0.197561950684E+02  0.000000000000E+00
  0.418483314514E+02  0.376179962158E+02 -0.108748543262E+01
  0.418483314514E+02  0.376179962158E+02  0.108748543262E+01
  0.435296669006E+02  0.435296669006E+02  0.000000000000E+00
  0.437841453552E+02  0.292438049316E+02 -0.479617565870E+00
  0.437841453552E+02  0.292438049316E+02  0.479617565870E+00
  0.446650657654E+02  0.435296669006E+02 -0.658133804798E+00
  0.446650657654E+02  0.435296669006E+02  0.658133804798E+00
  0.468944816589E+02  0.292438049316E+02 -0.144200220704E+00
  0.468944816589E+02  0.292438049316E+02  0.144200220704E+00
  0.470131988525E+02  0.376179962158E+02 -0.980757772923E+00
  0.470131988525E+02  0.376179962158E+02  0.980757772923E+00
  0.470762481689E+02  0.470762481689E+02  0.000000000000E+00
  0.477600097656E+02  0.435296669006E+02 -0.108748745918E+01
  0.477600097656E+02  0.435296669006E+02  0.108748745918E+01
  0.482116432190E+02  0.470762481689E+02 -0.658134579659E+00
  0.482116432190E+02  0.470762481689E+02  0.658134579659E+00
  0.482439842224E+02  0.292438049316E+02  0.000000000000E+00
  0.490000000000E+02  0.490000000000E+02  0.000000000000E+00
  0.501353988647E+02  0.490000000000E+02 -0.658134996891E+00
  0.501353988647E+02  0.490000000000E+02  0.658134996891E+00
  0.506007728577E+02  0.494653701782E+02 -0.465371757746E+00
  0.506007728577E+02  0.494653701782E+02  0.465371757746E+00
  0.507935333252E+02  0.496581344604E+02 -0.771266485397E-15
  0.513065910339E+02  0.470762481689E+02 -0.108748877048E+01
  0.513065910339E+02  0.470762481689E+02  0.108748877048E+01
  0.521583786011E+02  0.376179962158E+02 -0.479618877172E+00
  0.521583786011E+02  0.376179962158E+02  0.479618877172E+00
  0.529248886108E+02  0.435296669006E+02 -0.980759620667E+00
  0.529248886108E+02  0.435296669006E+02  0.980759620667E+00
  0.532303466797E+02  0.490000000000E+02 -0.108748936653E+01
  0.532303466797E+02  0.490000000000E+02  0.108748936653E+01
  0.539993209839E+02  0.497689704895E+02 -0.768971264362E+00
  0.539993209839E+02  0.497689704895E+02  0.768971264362E+00
  0.543178405762E+02  0.500874900818E+02 -0.157378642191E-15
  0.552687225342E+02  0.376179962158E+02 -0.144200608134E+00
  0.552687225342E+02  0.376179962158E+02  0.144200608134E+00
  0.564714775085E+02  0.470762481689E+02 -0.980760753155E+00
  0.564714775085E+02  0.470762481689E+02  0.980760753155E+00
  0.566182289124E+02  0.376179962158E+02  0.000000000000E+00
  0.580700759888E+02  0.435296669006E+02 -0.479619771242E+00
  0.580700759888E+02  0.435296669006E+02  0.479619771242E+00
  0.583952369690E+02  0.490000000000E+02 -0.980761349201E+00
  0.583952369690E+02  0.490000000000E+02  0.980761349201E+00
  0.590887413025E+02  0.496935043335E+02 -0.693503141403E+00
  0.590887413025E+02  0.496935043335E+02  0.693503141403E+00
  0.593759994507E+02  0.499807624817E+02  0.000000000000E+00
  0.611804275513E+02  0.435296669006E+02 -0.144200876355E+00
  0.611804275513E+02  0.435296669006E+02  0.144200876355E+00
  0.616166725159E+02  0.470762481689E+02 -0.479620337486E+00
  0.616166725159E+02  0.470762481689E+02  0.479620337486E+00
  0.625299339294E+02  0.435296669006E+02  0.000000000000E+00
  0.635404319763E+02  0.490000000000E+02 -0.479620635509E+00
  0.635404319763E+02  0.490000000000E+02  0.479620635509E+00
  0.638795776367E+02  0.493391418457E+02 -0.339143037796E+00
  0.638795776367E+02  0.493391418457E+02  0.339143037796E+00
  0.640200576782E+02  0.494796218872E+02  0.296956834055E-15
  0.647270278931E+02  0.470762481689E+02 -0.144201040268E+00
  0.647270278931E+02  0.470762481689E+02  0.144201040268E+00
  0.660765380859E+02  0.470762481689E+02  0.000000000000E+00
  0.666507873535E+02  0.490000000000E+02 -0.144201144576E+00
  0.666507873535E+02  0.490000000000E+02  0.144201144576E+00
  0.667527542114E+02  0.491019668579E+02 -0.101965606213E+00
  0.667527542114E+02  0.491019668579E+02  0.101965606213E+00
  0.667949905396E+02  0.491441993713E+02 -0.260488604752E-16
  0.680002975464E+02  0.490000000000E+02  0.000000000000E+00
  0.209237651825E+02  0.192375373840E+01  0.000000000000E+00
  0.190000000000E+02  0.000000000000E+00  0.000000000000E+00
  0.244703655243E+02  0.547033166885E+01  0.000000000000E+00
  0.303820724487E+02  0.113820018768E+02  0.000000000000E+00
  0.387563171387E+02  0.197561950684E+02  0.000000000000E+00
  0.482439842224E+02  0.292438049316E+02  0.000000000000E+00
  0.566182289124E+02  0.376179962158E+02  0.000000000000E+00
  0.625299339294E+02  0.435296669006E+02  0.000000000000E+00
  0.660765380859E+02  0.470762481689E+02  0.000000000000E+00
POLYGONS                 256                1024
3                  32                  33                  42
3                  32                  30                  33
3                  30                  28                  33
3                  30                  22                  28
3                  22                  17                  28
3                  22                  13                  17
3                  13                   6                  17
3                  17                   6                   9
3                   6                   1                   9
3                   9                   1                   4
3                   1                   0                   4
3                   4                   0                   3
3                   0                   5                   3
3                   0                   2                   5
3                   2                  10                   5
3                   2                   7                  10
[...]
CELL_DATA                 256
SCALARS sigma float 1
LOOKUP_TABLE default
  0.175017226851E-02
  0.175008891247E-02
  0.781459428867E-03
  0.781525349272E-03
  0.110648552507E-01
  0.110648411864E-01
  0.874187508560E-01
  0.874187642387E-01
  0.241315074770E+00
  0.241315060136E+00
  0.529180910234E+00
  0.529180910915E+00
  0.362135599677E+00
  0.362135598649E+00
  0.293570262943E-01
  0.293570426680E-01
 -0.128487771857E+00
 -0.128487784961E+00
 -0.202913446817E+00
 -0.202913432555E+00
 -0.212748227716E+00
 -0.212748293058E+00
 -0.211823817121E+00
 -0.211823736221E+00
  0.175020132871E-02
  0.175017226333E-02
  0.781471698642E-03
  0.781459422472E-03
  0.110648478519E-01
  0.110648552689E-01
  0.874187641525E-01
  0.874187543334E-01
  0.241315060714E+00
  0.241315098655E+00
  0.529180905021E+00
  0.529180870580E+00
  0.362135547719E+00
  0.362135595644E+00
  0.293570678013E-01
  0.293570263646E-01
 -0.128487781398E+00
 -0.128487771730E+00
 -0.202913432890E+00
 -0.202913440222E+00
 -0.212748291317E+00
 -0.212748279356E+00
 -0.211823735594E+00
 -0.211823707597E+00
  0.175014354019E-02
  0.175020132838E-02
  0.781529211958E-03
  0.781471700091E-03
  0.110648488187E-01
  0.110648478586E-01
  0.874187543755E-01
  0.874187540938E-01
  0.241315098155E+00
  0.241315037232E+00
  0.529180868386E+00
  0.529180845556E+00
  0.362135515484E+00
  0.362135546217E+00
  0.293570019491E-01
  0.293570677404E-01
 -0.128487781738E+00
 -0.128487781460E+00
 -0.202913440345E+00
 -0.202913439408E+00
 -0.212748279750E+00
 -0.212748224179E+00
 -0.211823707556E+00
 -0.211823763021E+00
  0.175015825148E-02
  0.175014354183E-02
  0.781562261598E-03
  0.781529214845E-03
  0.110648353021E-01
  0.110648488138E-01
  0.874187540812E-01
  0.874187574238E-01
  0.241315038264E+00
  0.241315094425E+00
  0.529180859204E+00
  0.529181066084E+00
  0.362135799562E+00
  0.362135524823E+00
  0.293570624255E-01
  0.293570020747E-01
 -0.128487778416E+00
 -0.128487781719E+00
 -0.202913439318E+00
 -0.202913452442E+00
 -0.212748224965E+00
 -0.212748193150E+00
 -0.211823763219E+00
 -0.211823749123E+00
  0.175012953080E-02
  0.175015825304E-02
  0.781502049931E-03
  0.781562260451E-03
  0.110648644449E-01
  0.110648352941E-01
  0.874187574292E-01
  0.874187492498E-01
  0.241315093837E+00
  0.241315167425E+00
  0.529181041135E+00
  0.529180609337E+00
  0.362135211193E+00
  0.362135782488E+00
  0.293571413236E-01
  0.293570623540E-01
 -0.128487786510E+00
 -0.128487778424E+00
 -0.202913452295E+00
 -0.202913424026E+00
 -0.212748192838E+00
 -0.212748250744E+00
 -0.211823749312E+00
 -0.211823776823E+00
  0.175014423408E-02
  0.175012952447E-02
  0.781470090532E-03
  0.781502046405E-03
  0.110648865412E-01
  0.110648644375E-01
  0.874187492402E-01
  0.874187373435E-01
  0.241315166560E+00
  0.241314974777E+00
  0.529180624290E+00
  0.529180850944E+00
  0.362135522424E+00
  0.362135221425E+00
  0.293569351254E-01
  0.293571412184E-01
 -0.128487798254E+00
 -0.128487786496E+00
 -0.202913423890E+00
 -0.202913402421E+00
 -0.212748249784E+00
 -0.212748280548E+00
 -0.211823776057E+00
 -0.211823761962E+00
  0.174994879056E-02
  0.175014423691E-02
  0.781532317941E-03
  0.781470094365E-03
  0.110648462050E-01
  0.110648865601E-01
  0.874187373693E-01
  0.874187485223E-01
  0.241314974192E+00
  0.241315045169E+00
  0.529180821168E+00
  0.529180511289E+00
  0.362135084889E+00
  0.362135502047E+00
  0.293570117028E-01
  0.293569350542E-01
 -0.128487787282E+00
 -0.128487798292E+00
 -0.202913402767E+00
 -0.202913442176E+00
 -0.212748281592E+00
 -0.212748221468E+00
 -0.211823762305E+00
 -0.211823949894E+00
  0.175012636001E-02
  0.174994879050E-02
  0.781535179983E-03
  0.781532321896E-03
  0.110648801435E-01
  0.110648462709E-01
  0.874187485326E-01
  0.874187444365E-01
  0.241315053148E+00
  0.241315055212E+00
  0.529180665751E+00
  0.529181568332E+00
  0.362136446544E+00
  0.362135190593E+00
  0.293570149278E-01
  0.293570126735E-01
 -0.128487791330E+00
 -0.128487787297E+00
 -0.202913443386E+00
 -0.202913409899E+00
 -0.212748222545E+00
 -0.212748219760E+00
 -0.211823949887E+00
 -0.211823778843E+00
  0.175005040962E-02
  0.175012639870E-02
  0.781473972955E-03
  0.781535183573E-03
  0.110648230136E-01
  0.110648800193E-01
  0.874187443967E-01
  0.874187596914E-01
  0.241315044479E+00
  0.241315094119E+00
  0.529181397255E+00
  0.529180933302E+00
  0.362135628515E+00
  0.362136329471E+00
  0.293570691650E-01
  0.293570136221E-01
 -0.128487776296E+00
 -0.128487791272E+00
 -0.202913407622E+00
 -0.202913465427E+00
 -0.212748220737E+00
 -0.212748281411E+00
 -0.211823783526E+00
 -0.211823857276E+00
  0.168305636869E-02
  0.752380419759E-03
  0.751846173744E-03
  0.106019540242E-01
  0.106021122037E-01
  0.813656764638E-01
  0.813657714231E-01
  0.213638479167E+00
  0.213638636752E+00
  0.448873688193E+00
  0.307178783225E+00
  0.259904072898E-01
  0.259900841765E-01
 -0.119590802704E+00
 -0.119590976497E+00
 -0.194427992698E+00
 -0.194428086281E+00
 -0.204682416670E+00
 -0.204682156091E+00
 -0.203714984476E+00
 -0.620992042678E-01
 -0.631401331159E-01
 -0.631345625348E-01
 -0.522053822694E-01
 -0.522068576820E-01
  0.227467162283E-01
  0.227466292638E-01
  0.149758588744E+00
  0.149758497651E+00
  0.358360671869E+00
  0.306729199639E+00
  0.764005413708E-01
  0.764009009126E-01
 -0.613786813212E-01
 -0.613782251626E-01
 -0.141867290558E+00
 -0.141867111965E+00
 -0.153552874816E+00
 -0.153552638911E+00
 -0.152440204769E+00
SCALARS C_p_inc float 1
LOOKUP_TABLE default
  0.121704005461E+00
  0.913578302637E-01
  0.468251567547E-01
  0.204189595665E-01
 -0.248875847984E-01
 -0.440713415817E-01
 -0.230263193003E-01
 -0.427280628222E-01
  0.159915444356E+00
  0.793412181914E-01
  0.547460535150E+00
  0.543461303622E+00
 -0.289510184126E+00
  0.120169420409E+00
 -0.538583144444E+00
 -0.362188634217E+00
 -0.407278979645E+00
 -0.412311657059E+00
 -0.298988240186E+00
 -0.244400187393E+00
 -0.132212513372E+00
 -0.615656892491E-01
  0.168893005509E-01
  0.956353942437E-01
  0.120420991264E+00
  0.120166857847E+00
  0.552370712153E-01
  0.467416626100E-01
 -0.109320693151E-01
 -0.247668933653E-01
 -0.425897025392E-01
 -0.465062289393E-01
  0.791297922393E-01
  0.712431518807E-01
  0.476192412215E+00
  0.480730470678E+00
 -0.498737192053E+00
 -0.284636851532E+00
 -0.646144654207E+00
 -0.531094764786E+00
 -0.417560643756E+00
 -0.420663496882E+00
 -0.244874801428E+00
 -0.196764654074E+00
 -0.613733687856E-01
 -0.207472844660E-01
  0.927700353356E-01
  0.107519437309E+00
  0.120350198591E+00
  0.119699252969E+00
  0.556944999879E-01
  0.550196191167E-01
 -0.545232853384E-02
 -0.107367175440E-01
 -0.466103089486E-01
 -0.358266105015E-01
  0.707949790889E-01
  0.878357799615E-01
  0.480465609435E+00
  0.485098170088E+00
 -0.625375457052E+00
 -0.497142639476E+00
 -0.702477606644E+00
 -0.648674898572E+00
 -0.416168093429E+00
 -0.429445202744E+00
 -0.197700997709E+00
 -0.174797745974E+00
 -0.207586480697E-01
 -0.771181380658E-02
  0.107426996743E+00
  0.113803024178E+00
  0.118585757287E+00
  0.119635580748E+00
  0.538920848893E-01
  0.554386490761E-01
 -0.505774812071E-02
 -0.533232489518E-02
 -0.358668190454E-01
 -0.300342951823E-01
  0.882369924040E-01
  0.103797076420E+00
  0.492724738625E+00
  0.494899289943E+00
 -0.686292404856E+00
 -0.625599507675E+00
 -0.726749747312E+00
 -0.707625148459E+00
 -0.418666883432E+00
 -0.422696063890E+00
 -0.175713065550E+00
 -0.168555529177E+00
 -0.764250840597E-02
 -0.124808267034E-02
  0.114581809195E+00
  0.119558286397E+00
  0.111154090616E+00
  0.117489067114E+00
  0.454257939566E-01
  0.534846642936E-01
 -0.115711714383E-01
 -0.500732932651E-02
 -0.298676233012E-01
 -0.333534940361E-01
  0.103804047738E+00
  0.105992399146E+00
  0.497963032356E+00
  0.498348505646E+00
 -0.701619312524E+00
 -0.686622343717E+00
 -0.729707870495E+00
 -0.729519053936E+00
 -0.413613352709E+00
 -0.421813196821E+00
 -0.169442768348E+00
 -0.159179628891E+00
 -0.121287403480E-02
  0.107367871979E-01
  0.120707284341E+00
  0.131422360438E+00
  0.963280578716E-01
  0.108847125482E+00
  0.264130017690E-01
  0.445234887962E-01
 -0.303484273576E-01
 -0.115975265077E-01
 -0.330164295535E-01
 -0.510475780702E-01
  0.105287874067E+00
  0.918167771321E-01
  0.496704549944E+00
  0.496236481151E+00
 -0.673790090697E+00
 -0.701905260139E+00
 -0.707298834301E+00
 -0.732433815012E+00
 -0.391051828021E+00
 -0.417478586248E+00
 -0.160194465680E+00
 -0.133185716212E+00
  0.106570123747E-01
  0.410789963035E-01
  0.133368329447E+00
  0.160850685254E+00
  0.742324100030E-01
  0.913097124725E-01
  0.332004121951E-02
  0.241594193011E-01
 -0.537261052950E-01
 -0.307349922236E-01
 -0.505413726167E-01
 -0.852395004713E-01
  0.896401093896E-01
  0.570790987164E-01
  0.488164512302E+00
  0.487143003202E+00
 -0.611431723807E+00
 -0.674160734595E+00
 -0.661011201970E+00
 -0.711840269501E+00
 -0.342557138624E+00
 -0.399245840405E+00
 -0.134646672756E+00
 -0.774069364056E-01
  0.403700825563E-01
  0.988699289711E-01
  0.164220057727E+00
  0.218528784766E+00
 -0.106688772472E-02
  0.638448334456E-01
 -0.283247438911E-01
 -0.164190767757E-02
 -0.683544083040E-01
 -0.559079899041E-01
 -0.855369392586E-01
 -0.106628651899E+00
  0.500590545065E-01
 -0.771253760431E-02
  0.462764081342E+00
  0.462676257914E+00
 -0.529913078721E+00
 -0.611464078729E+00
 -0.591001478544E+00
 -0.668874403794E+00
 -0.249830648348E+00
 -0.365959268805E+00
 -0.813092023909E-01
 -0.109119705498E-01
  0.940301676027E-01
  0.170434780534E+00
  0.218935936684E+00
  0.290908734175E+00
 -0.202870115756E+03
 -0.293741283485E+00
 -0.659989546033E+00
 -0.412266223317E-01
 -0.877263304968E-01
 -0.775593783233E-01
 -0.113955742595E+00
 -0.105658974551E+00
 -0.316690905194E-01
 -0.461304256664E-01
  0.347035824556E+00
  0.364238781936E+00
 -0.421384505637E+00
 -0.528238884022E+00
 -0.395526255304E+00
 -0.629655527977E+00
 -0.153229277323E+00
 -0.326635765403E+00
 -0.320506609864E-01
  0.127927199746E-01
  0.136025612042E+00
 -0.202973876564E+00
  0.262755370137E+00
 -0.207658585528E+03
 -0.470478050821E+03
 -0.585724131289E+01
 -0.589284248952E+00
 -0.213587367768E+00
 -0.141947537507E+00
 -0.167612615901E+00
 -0.168361834384E+00
 -0.153486405840E+00
 -0.179151077320E+00
 -0.244227052388E-02
 -0.425923558138E+00
 -0.316099075978E+00
 -0.484844959518E+00
 -0.179678094988E+00
 -0.360967482406E+00
 -0.954676656048E-01
 -0.257012992409E+00
 -0.843556369096E+00
 -0.123586423509E+01
 -0.435366461186E+03
 -0.315154017811E+03
 -0.849911461884E+01
 -0.961640758399E+00
 -0.434634811306E+00
 -0.234281965459E+00
 -0.293292710969E+00
 -0.266974606433E+00
 -0.290609476900E+00
 -0.312608236000E+00
 -0.205343612864E+00
 -0.351933090800E+00
 -0.357543510711E+00
 -0.394391368401E+00
 -0.256236988676E+00
 -0.380511452127E+00
 -0.233569179864E+00
 -0.462676561477E+00
 -0.130442968764E+01
 -0.145510362133E+01
 -0.285773645998E+03
SCALARS inclination float 1
LOOKUP_TABLE default
  0.100000000000E+01
  0.100000000000E+01
  0.100000000000E+01
  0.100000000000E+01
  0.100000000000E+01
  0.100000000000E+01
  0.100000000000E+01
  0.100000000000E+01
  0.100000000000E+01
  0.100000000000E+01
  0.100000000000E+01
  0.100000000000E+01
  0.100000000000E+01
  0.100000000000E+01
  0.100000000000E+01
  0.100000000000E+01
  0.100000000000E+01
  0.100000000000E+01
  0.100000000000E+01
  0.100000000000E+01
  0.100000000000E+01
  0.100000000000E+01
  0.100000000000E+01
  0.100000000000E+01
  0.100000000000E+01
  0.100000000000E+01
  0.100000000000E+01
  0.100000000000E+01
  0.100000000000E+01
  0.100000000000E+01
  0.100000000000E+01
  0.100000000000E+01
  0.100000000000E+01
  0.100000000000E+01
  0.100000000000E+01
  0.100000000000E+01
  0.100000000000E+01
  0.100000000000E+01
  0.100000000000E+01
  0.100000000000E+01
  0.100000000000E+01
  0.100000000000E+01
  0.100000000000E+01
  0.100000000000E+01
  0.100000000000E+01
  0.100000000000E+01
  0.100000000000E+01
  0.100000000000E+01
  0.100000000000E+01
  0.100000000000E+01
  0.100000000000E+01
  0.100000000000E+01
  0.100000000000E+01
  0.100000000000E+01
  0.100000000000E+01
  0.100000000000E+01
  0.100000000000E+01
  0.100000000000E+01
  0.100000000000E+01
  0.100000000000E+01
  0.100000000000E+01
  0.100000000000E+01
  0.100000000000E+01
  0.100000000000E+01
  0.100000000000E+01
  0.100000000000E+01
  0.100000000000E+01
  0.100000000000E+01
  0.100000000000E+01
  0.100000000000E+01
  0.100000000000E+01
  0.100000000000E+01
  0.100000000000E+01
  0.100000000000E+01
  0.100000000000E+01
  0.100000000000E+01
  0.100000000000E+01
  0.100000000000E+01
  0.100000000000E+01
  0.100000000000E+01
  0.100000000000E+01
  0.100000000000E+01
  0.100000000000E+01
  0.100000000000E+01
  0.100000000000E+01
  0.100000000000E+01
  0.100000000000E+01
  0.100000000000E+01
  0.100000000000E+01
  0.100000000000E+01
  0.100000000000E+01
  0.100000000000E+01
  0.100000000000E+01
  0.100000000000E+01
  0.100000000000E+01
  0.100000000000E+01
  0.100000000000E+01
  0.100000000000E+01
  0.100000000000E+01
  0.100000000000E+01
  0.100000000000E+01
  0.100000000000E+01
  0.100000000000E+01
  0.100000000000E+01
  0.100000000000E+01
  0.100000000000E+01
  0.100000000000E+01
  0.100000000000E+01
  0.100000000000E+01
  0.100000000000E+01
  0.100000000000E+01
  0.100000000000E+01
  0.100000000000E+01
  0.100000000000E+01
  0.100000000000E+01
  0.100000000000E+01
  0.100000000000E+01
  0.100000000000E+01
  0.100000000000E+01
  0.100000000000E+01
  0.100000000000E+01
  0.100000000000E+01
  0.100000000000E+01
  0.100000000000E+01
  0.100000000000E+01
  0.100000000000E+01
  0.100000000000E+01
  0.100000000000E+01
  0.100000000000E+01
  0.100000000000E+01
  0.100000000000E+01
  0.100000000000E+01
  0.100000000000E+01
  0.100000000000E+01
  0.100000000000E+01
  0.100000000000E+01
  0.100000000000E+01
  0.100000000000E+01
  0.100000000000E+01
  0.100000000000E+01
  0.100000000000E+01
  0.100000000000E+01
  0.100000000000E+01
  0.100000000000E+01
  0.100000000000E+01
  0.100000000000E+01
  0.100000000000E+01
  0.100000000000E+01
  0.100000000000E+01
  0.100000000000E+01
  0.100000000000E+01
  0.100000000000E+01
  0.100000000000E+01
  0.100000000000E+01
  0.100000000000E+01
  0.100000000000E+01
  0.100000000000E+01
  0.100000000000E+01
  0.100000000000E+01
  0.100000000000E+01
  0.100000000000E+01
  0.100000000000E+01
  0.100000000000E+01
  0.100000000000E+01
  0.100000000000E+01
  0.100000000000E+01
  0.100000000000E+01
  0.100000000000E+01
  0.100000000000E+01
  0.100000000000E+01
  0.100000000000E+01
  0.100000000000E+01
  0.100000000000E+01
  0.100000000000E+01
  0.100000000000E+01
  0.100000000000E+01
  0.100000000000E+01
  0.100000000000E+01
  0.100000000000E+01
  0.100000000000E+01
  0.100000000000E+01
  0.100000000000E+01
  0.100000000000E+01
  0.100000000000E+01
  0.100000000000E+01
  0.100000000000E+01
  0.100000000000E+01
  0.100000000000E+01
  0.100000000000E+01
  0.100000000000E+01
  0.100000000000E+01
  0.100000000000E+01
  0.100000000000E+01
  0.100000000000E+01
  0.100000000000E+01
  0.100000000000E+01
  0.100000000000E+01
  0.100000000000E+01
  0.100000000000E+01
  0.100000000000E+01
  0.100000000000E+01
  0.100000000000E+01
  0.100000000000E+01
  0.100000000000E+01
  0.100000000000E+01
  0.100000000000E+01
  0.100000000000E+01
  0.100000000000E+01
  0.100000000000E+01
  0.100000000000E+01
  0.100000000000E+01
  0.100000000000E+01
  0.100000000000E+01
  0.100000000000E+01
  0.100000000000E+01
  0.100000000000E+01
  0.100000000000E+01
  0.100000000000E+01
  0.100000000000E+01
  0.100000000000E+01
  0.100000000000E+01
  0.100000000000E+01
  0.100000000000E+01
  0.100000000000E+01
  0.100000000000E+01
  0.100000000000E+01
  0.100000000000E+01
  0.100000000000E+01
  0.100000000000E+01
  0.100000000000E+01
  0.100000000000E+01
  0.100000000000E+01
  0.100000000000E+01
  0.100000000000E+01
  0.100000000000E+01
  0.100000000000E+01
  0.100000000000E+01
  0.100000000000E+01
  0.100000000000E+01
  0.100000000000E+01
  0.100000000000E+01
  0.100000000000E+01
  0.100000000000E+01
  0.100000000000E+01
  0.100000000000E+01
  0.100000000000E+01
  0.100000000000E+01
  0.100000000000E+01
  0.100000000000E+01
  0.100000000000E+01
  0.100000000000E+01
  0.100000000000E+01
  0.100000000000E+01
  0.100000000000E+01
  0.100000000000E+01
  0.100000000000E+01
VECTORS v float
  0.151891604594E+03  0.368810937358E+01  0.158361795244E+02
  0.154501782749E+03  0.293585798620E+01  0.161954831073E+02
  0.158209890752E+03 -0.772268355491E+00  0.171445758174E+02
  0.160403052030E+03  0.595951632084E+00  0.172335255930E+02
  0.164178026973E+03 -0.317904216954E+01  0.163005334433E+02
  0.165762536704E+03 -0.552202318733E+00  0.161990114635E+02
  0.164830500871E+03  0.379832320614E+00  0.339823298936E+01
  0.166328538877E+03 -0.514812965378E+01  0.354341887846E+01
  0.147615621175E+03  0.135648043794E+02 -0.185965326349E+02
  0.154701826733E+03 -0.573863099116E+01 -0.222574952228E+02
  0.911448412930E+02  0.578183787175E+02 -0.193177128496E+02
  0.946719479118E+02  0.499498349412E+02 -0.259232114525E+02
  0.156680572462E+03 -0.120587896092E+02  0.978099171257E+02
  0.136657759370E+03  0.326096592595E+02  0.603115709978E+02
  0.197701673879E+03 -0.284342716694E+02  0.313712592168E+02
  0.188357478358E+03 -0.297987699729E+01  0.265437469548E+02
  0.193163486301E+03 -0.778588138638E+01 -0.415244761874E+01
  0.193461321606E+03 -0.888493395974E+01 -0.418131648870E+01
  0.184897975992E+03 -0.321558581206E+00 -0.180403333594E+02
  0.180764847167E+03 -0.717356199928E+01 -0.183051527145E+02
  0.172450473545E+03  0.114085286589E+01 -0.184739518434E+02
  0.166932242459E+03 -0.230173932652E+01 -0.182501293515E+02
  0.160699115045E+03  0.393141891712E+01 -0.167513146523E+02
  0.154087798580E+03  0.583679681371E+01 -0.158412544376E+02
  0.151910421637E+03  0.736134330582E+01  0.154456824389E+02
  0.151932916272E+03  0.734756562919E+01  0.154495626564E+02
  0.157531342565E+03  0.174910703179E+01  0.167994937145E+02
  0.158237968701E+03  0.167019229743E+01  0.168842081591E+02
  0.163056672408E+03 -0.314853419066E+01  0.161883434987E+02
  0.164183164140E+03 -0.263239680798E+01  0.162477903036E+02
  0.166328696880E+03 -0.477794024199E+01  0.353577260330E+01
  0.166618794808E+03 -0.549112682748E+01  0.355650665249E+01
  0.154927258561E+03  0.620041619536E+01 -0.206324972750E+02
  0.155611862616E+03  0.488480217019E+01 -0.209099884889E+02
  0.978620932877E+02  0.626345948908E+02 -0.204196478931E+02
  0.947466145552E+02  0.676186646105E+02 -0.157247369193E+02
  0.170436031299E+03 -0.807075213304E+01  0.103471593449E+03
  0.161342273740E+03  0.647722356074E+01  0.897676600328E+02
  0.203399501505E+03 -0.355800097500E+02  0.331530241687E+02
  0.197770983080E+03 -0.247636052295E+02  0.308716522604E+02
  0.192988489984E+03 -0.199810926618E+02 -0.440084239439E+01
  0.193158103004E+03 -0.203980749602E+02 -0.441296166250E+01
  0.180757108473E+03 -0.799703761986E+01 -0.183846056488E+02
  0.177122848968E+03 -0.966218752551E+01 -0.181928172618E+02
  0.166964408058E+03  0.496301151213E+00 -0.179518567957E+02
  0.163740524035E+03  0.856339361156E+00 -0.175653657089E+02
  0.154139955736E+03  0.104569630626E+02 -0.153531397558E+02
  0.152828977352E+03  0.112599306700E+02 -0.151272506760E+02
  0.151865524737E+03  0.859760642276E+01  0.153087926947E+02
  0.151923872530E+03  0.855284622860E+01  0.153198017195E+02
  0.157488812980E+03  0.298787307588E+01  0.166613093896E+02
  0.157545281333E+03  0.296162085295E+01  0.166702390932E+02
  0.162639932302E+03 -0.213305363730E+01  0.160488448077E+02
  0.163065733646E+03 -0.218432803819E+01  0.160953120441E+02
  0.166618689737E+03 -0.573729864939E+01  0.356159137587E+01
  0.165803552730E+03 -0.420912869033E+01  0.351316841677E+01
  0.155632206427E+03  0.596222487833E+01 -0.207633426442E+02
  0.154133980727E+03  0.828329267620E+01 -0.202334922789E+02
  0.947570683597E+02  0.676602299947E+02 -0.157067022593E+02
  0.910436755885E+02  0.726483232263E+02 -0.106628789110E+02