# vtk DataFile Version 3.0
TriPan results file. Generated by TriPan, USU AeroLab (c) 2021.
ASCII
DATASET POLYDATA
POINTS                 144 float
  0.000000000000E+00  0.000000000000E+00  0.000000000000E+00
  0.113538098335E+01  0.000000000000E+00 -0.658124566078E+00
  0.113538098335E+01  0.000000000000E+00  0.658124566078E+00
  0.192375373840E+01  0.192375373840E+01  0.000000000000E+00
  0.305913543701E+01  0.192375373840E+01 -0.658124983311E+00
  0.305913543701E+01  0.192375373840E+01  0.658124983311E+00
  0.423028087616E+01  0.000000000000E+00 -0.108747220039E+01
  0.423028087616E+01  0.000000000000E+00  0.108747220039E+01
  0.547033166885E+01  0.547033166885E+01  0.000000000000E+00
  0.615403699875E+01  0.192375373840E+01 -0.108747279644E+01
  0.615403699875E+01  0.192375373840E+01  0.108747279644E+01
  0.660571479797E+01  0.547033166885E+01 -0.658125698566E+00
  0.660571479797E+01  0.547033166885E+01  0.658125698566E+00
  0.939508819580E+01  0.000000000000E+00 -0.980745851994E+00
  0.939508819580E+01  0.000000000000E+00  0.980745851994E+00
  0.970061969757E+01  0.547033166885E+01 -0.108747410774E+01
  0.970061969757E+01  0.547033166885E+01  0.108747410774E+01
  0.113188476562E+02  0.192375373840E+01 -0.980746448040E+00
  0.113188476562E+02  0.192375373840E+01  0.980746448040E+00
  0.113820018768E+02  0.113820018768E+02  0.000000000000E+00
  0.125173873901E+02  0.113820018768E+02 -0.658127009869E+00
  0.125173873901E+02  0.113820018768E+02  0.658127009869E+00
  0.145402030945E+02  0.000000000000E+00 -0.479613035917E+00
  0.145402030945E+02  0.000000000000E+00  0.479613035917E+00
  0.148654365540E+02  0.547033166885E+01 -0.980747580528E+00
  0.148654365540E+02  0.547033166885E+01  0.980747580528E+00
  0.156122989655E+02  0.113820018768E+02 -0.108747613430E+01
  0.156122989655E+02  0.113820018768E+02  0.108747613430E+01
  0.164639663696E+02  0.192375373840E+01 -0.479613333941E+00
  0.164639663696E+02  0.192375373840E+01  0.479613333941E+00
  0.176505107880E+02  0.000000000000E+00 -0.144198849797E+00
  0.176505107880E+02  0.000000000000E+00  0.144198849797E+00
  0.190000000000E+02  0.000000000000E+00  0.000000000000E+00
  0.195742740631E+02  0.192375373840E+01 -0.144198939204E+00
  0.195742740631E+02  0.192375373840E+01  0.144198939204E+00
  0.197561950684E+02  0.197561950684E+02  0.000000000000E+00
  0.200105609894E+02  0.547033166885E+01 -0.479613870382E+00
  0.200105609894E+02  0.547033166885E+01  0.479613870382E+00
  0.207771244049E+02  0.113820018768E+02 -0.980749428272E+00
  0.207771244049E+02  0.113820018768E+02  0.980749428272E+00
  0.208915824890E+02  0.197561950684E+02 -0.658128738403E+00
  0.208915824890E+02  0.197561950684E+02  0.658128738403E+00
  0.209237651825E+02  0.192375373840E+01  0.000000000000E+00
  0.231208724976E+02  0.547033166885E+01 -0.144199103117E+00
  0.231208724976E+02  0.547033166885E+01  0.144199103117E+00
  0.239865016937E+02  0.197561950684E+02 -0.108747911453E+01
  0.239865016937E+02  0.197561950684E+02  0.108747911453E+01
  0.244703655243E+02  0.547033166885E+01  0.000000000000E+00
  0.259222583771E+02  0.113820018768E+02 -0.479614794254E+00
  0.259222583771E+02  0.113820018768E+02  0.479614794254E+00
  0.290325775146E+02  0.113820018768E+02 -0.144199386239E+00
  0.290325775146E+02  0.113820018768E+02  0.144199386239E+00
  0.291513423920E+02  0.197561950684E+02 -0.980752110481E+00
  0.291513423920E+02  0.197561950684E+02  0.980752110481E+00
  0.292438049316E+02  0.292438049316E+02  0.000000000000E+00
  0.303791980743E+02  0.292438049316E+02 -0.658130764961E+00
  0.303791980743E+02  0.292438049316E+02  0.658130764961E+00
  0.303820724487E+02  0.113820018768E+02  0.000000000000E+00
  0.334741249084E+02  0.292438049316E+02 -0.108748245239E+01
  0.334741249084E+02  0.292438049316E+02  0.108748245239E+01
  0.342964897156E+02  0.197561950684E+02 -0.479616105556E+00
  0.342964897156E+02  0.197561950684E+02  0.479616105556E+00
  0.374068183899E+02  0.197561950684E+02 -0.144199773669E+00
  0.374068183899E+02  0.197561950684E+02  0.144199773669E+00
  0.376179962158E+02  0.376179962158E+02  0.000000000000E+00
  0.386389808655E+02  0.292438049316E+02 -0.980755090714E+00
  0.386389808655E+02  0.292438049316E+02  0.980755090714E+00
  0.387533912659E+02  0.376179962158E+02 -0.658132553101E+00
  0.387533912659E+02  0.376179962158E+02  0.658132553101E+00
  0.387563171387E+02  0.197561950684E+02  0.000000000000E+00
  0.418483314514E+02  0.376179962158E+02 -0.108748543262E+01
  0.418483314514E+02  0.376179962158E+02  0.108748543262E+01
  0.435296669006E+02  0.435296669006E+02  0.000000000000E+00
  0.437841453552E+02  0.292438049316E+02 -0.479617565870E+00
  0.437841453552E+02  0.292438049316E+02  0.479617565870E+00
  0.446650657654E+02  0.435296669006E+02 -0.658133804798E+00
  0.446650657654E+02  0.435296669006E+02  0.658133804798E+00
  0.468944816589E+02  0.292438049316E+02 -0.144200220704E+00
  0.468944816589E+02  0.292438049316E+02  0.144200220704E+00
  0.470131988525E+02  0.376179962158E+02 -0.980757772923E+00
  0.470131988525E+02  0.376179962158E+02  0.980757772923E+00
  0.470762481689E+02  0.470762481689E+02  0.000000000000E+00
  0.477600097656E+02  0.435296669006E+02 -0.108748745918E+01
  0.477600097656E+02  0.435296669006E+02  0.108748745918E+01
  0.482116432190E+02  0.470762481689E+02 -0.658134579659E+00
  0.482116432190E+02  0.470762481689E+02  0.658134579659E+00
  0.482439842224E+02  0.292438049316E+02  0.000000000000E+00
  0.490000000000E+02  0.490000000000E+02  0.000000000000E+00
  0.501353988647E+02  0.490000000000E+02 -0.658134996891E+00
  0.501353988647E+02  0.490000000000E+02  0.658134996891E+00
  0.506007728577E+02  0.494653701782E+02 -0.465371757746E+00
  0.506007728577E+02  0.494653701782E+02  0.465371757746E+00
  0.507935333252E+02  0.496581344604E+02 -0.771266485397E-15
  0.513065910339E+02  0.470762481689E+02 -0.108748877048E+01
  0.513065910339E+02  0.470762481689E+02  0.108748877048E+01
  0.521583786011E+02  0.376179962158E+02 -0.479618877172E+00
  0.521583786011E+02  0.376179962158E+02  0.479618877172E+00
  0.529248886108E+02  0.435296669006E+02 -0.980759620667E+00
  0.529248886108E+02  0.435296669006E+02  0.980759620667E+00
  0.532303466797E+02  0.490000000000E+02 -0.108748936653E+01
  0.532303466797E+02  0.490000000000E+02  0.108748936653E+01
  0.539993209839E+02  0.497689704895E+02 -0.768971264362E+00
  0.539993209839E+02  0.497689704895E+02  0.768971264362E+00
  0.543178405762E+02  0.500874900818E+02 -0.157378642191E-15
  0.552687225342E+02  0.376179962158E+02 -0.144200608134E+00
  0.552687225342E+02  0.376179962158E+02  0.144200608134E+00
  0.564714775085E+02  0.470762481689E+02 -0.980760753155E+00
  0.564714775085E+02  0.470762481689E+02  0.980760753155E+00
  0.566182289124E+02  0.376179962158E+02  0.000000000000E+00
  0.580700759888E+02  0.435296669006E+02 -0.479619771242E+00
  0.580700759888E+02  0.435296669006E+02  0.479619771242E+00
  0.583952369690E+02  0.490000000000E+02 -0.980761349201E+00
  0.583952369690E+02  0.490000000000E+02  0.980761349201E+00
  0.590887413025E+02  0.496935043335E+02 -0.693503141403E+00
  0.590887413025E+02  0.496935043335E+02  0.693503141403E+00
  0.593759994507E+02  0.499807624817E+02  0.000000000000E+00
  0.611804275513E+02  0.435296669006E+02 -0.144200876355E+00
  0.611804275513E+02  0.435296669006E+02  0.144200876355E+00
  0.616166725159E+02  0.470762481689E+02 -0.479620337486E+00
  0.616166725159E+02  0.470762481689E+02  0.479620337486E+00
  0.625299339294E+02  0.435296669006E+02  0.000000000000E+00
  0.635404319763E+02  0.490000000000E+02 -0.479620635509E+00
  0.635404319763E+02  0.490000000000E+02  0.479620635509E+00
  0.638795776367E+02  0.493391418457E+02 -0.339143037796E+00
  0.638795776367E+02  0.493391418457E+02  0.339143037796E+00
  0.640200576782E+02  0.494796218872E+02  0.296956834055E-15
  0.647270278931E+02  0.470762481689E+02 -0.144201040268E+00
  0.647270278931E+02  0.470762481689E+02  0.144201040268E+00
  0.660765380859E+02  0.470762481689E+02  0.000000000000E+00
  0.666507873535E+02  0.490000000000E+02 -0.144201144576E+00
  0.666507873535E+02  0.490000000000E+02  0.144201144576E+00
  0.667527542114E+02  0.491019668579E+02 -0.101965606213E+00
  0.667527542114E+02  0.491019668579E+02  0.101965606213E+00
  0.667949905396E+02  0.491441993713E+02 -0.260488604752E-16
  0.680002975464E+02  0.490000000000E+02  0.000000000000E+00
  0.190000000000E+02  0.000000000000E+00  0.000000000000E+00
  0.209237651825E+02  0.192375373840E+01  0.000000000000E+00
  0.244703655243E+02  0.547033166885E+01  0.000000000000E+00
  0.303820724487E+02  0.113820018768E+02  0.000000000000E+00
  0.387563171387E+02  0.197561950684E+02  0.000000000000E+00
  0.482439842224E+02  0.292438049316E+02  0.000000000000E+00
  0.566182289124E+02  0.376179962158E+02  0.000000000000E+00
  0.625299339294E+02  0.435296669006E+02  0.000000000000E+00
  0.660765380859E+02  0.470762481689E+02  0.000000000000E+00
POLYGONS                 256                1024
3                 135                  33                 136
3                  32                  30                  33
3                  30                  28                  33
3                  30                  22                  28
3                  22                  17                  28
3                  22                  13                  17
3                  13                   6                  17
3                  17                   6                   9
3                   6                   1                   9
3                   9                   1                   4
3                   1                   0                   4
3                   4                   0                   3
3                   0                   5                   3
3                   0                   2                   5
3                   2                  10                   5
3                   2                   7                  10
[...]
CELL_DATA                 256
SCALARS sigma float 1
LOOKUP_TABLE default
  0.175017226851E-02
  0.175008891247E-02
  0.781459428867E-03
  0.781525349272E-03
  0.110648552507E-01
  0.110648411864E-01
  0.874187508560E-01
  0.874187642387E-01
  0.241315074770E+00
  0.241315060136E+00
  0.529180910234E+00
  0.529180910915E+00
  0.362135599677E+00
  0.362135598649E+00
  0.293570262943E-01
  0.293570426680E-01
 -0.128487771857E+00
 -0.128487784961E+00
 -0.202913446817E+00
 -0.202913432555E+00
 -0.212748227716E+00
 -0.212748293058E+00
 -0.211823817121E+00
 -0.211823736221E+00
  0.175020132871E-02
  0.175017226333E-02
  0.781471698642E-03
  0.781459422472E-03
  0.110648478519E-01
  0.110648552689E-01
  0.874187641525E-01
  0.874187543334E-01
  0.241315060714E+00
  0.241315098655E+00
  0.529180905021E+00
  0.529180870580E+00
  0.362135547719E+00
  0.362135595644E+00
  0.293570678013E-01
  0.293570263646E-01
 -0.128487781398E+00
 -0.128487771730E+00
 -0.202913432890E+00
 -0.202913440222E+00
 -0.212748291317E+00
 -0.212748279356E+00
 -0.211823735594E+00
 -0.211823707597E+00
  0.175014354019E-02
  0.175020132838E-02
  0.781529211958E-03
  0.781471700091E-03
  0.110648488187E-01
  0.110648478586E-01
  0.874187543755E-01
  0.874187540938E-01
  0.241315098155E+00
  0.241315037232E+00
  0.529180868386E+00
  0.529180845556E+00
  0.362135515484E+00
  0.362135546217E+00
  0.293570019491E-01
  0.293570677404E-01
 -0.128487781738E+00
 -0.128487781460E+00
 -0.202913440345E+00
 -0.202913439408E+00
 -0.212748279750E+00
 -0.212748224179E+00
 -0.211823707556E+00
 -0.211823763021E+00
  0.175015825148E-02
  0.175014354183E-02
  0.781562261598E-03
  0.781529214845E-03
  0.110648353021E-01
  0.110648488138E-01
  0.874187540812E-01
  0.874187574238E-01
  0.241315038264E+00
  0.241315094425E+00
  0.529180859204E+00
  0.529181066084E+00
  0.362135799562E+00
  0.362135524823E+00
  0.293570624255E-01
  0.293570020747E-01
 -0.128487778416E+00
 -0.128487781719E+00
 -0.202913439318E+00
 -0.202913452442E+00
 -0.212748224965E+00
 -0.212748193150E+00
 -0.211823763219E+00
 -0.211823749123E+00
  0.175012953080E-02
  0.175015825304E-02
  0.781502049931E-03
  0.781562260451E-03
  0.110648644449E-01
  0.110648352941E-01
  0.874187574292E-01
  0.874187492498E-01
  0.241315093837E+00
  0.241315167425E+00
  0.529181041135E+00
  0.529180609337E+00
  0.362135211193E+00
  0.362135782488E+00
  0.293571413236E-01
  0.293570623540E-01
 -0.128487786510E+00
 -0.128487778424E+00
 -0.202913452295E+00
 -0.202913424026E+00
 -0.212748192838E+00
 -0.212748250744E+00
 -0.211823749312E+00
 -0.211823776823E+00
  0.175014423408E-02
  0.175012952447E-02
  0.781470090532E-03
  0.781502046405E-03
  0.110648865412E-01
  0.110648644375E-01
  0.874187492402E-01
  0.874187373435E-01
  0.241315166560E+00
  0.241314974777E+00
  0.529180624290E+00
  0.529180850944E+00
  0.362135522424E+00
  0.362135221425E+00
  0.293569351254E-01
  0.293571412184E-01
 -0.128487798254E+00
 -0.128487786496E+00
 -0.202913423890E+00
 -0.202913402421E+00
 -0.212748249784E+00
 -0.212748280548E+00
 -0.211823776057E+00
 -0.211823761962E+00
  0.174994879056E-02
  0.175014423691E-02
  0.781532317941E-03
  0.781470094365E-03
  0.110648462050E-01
  0.110648865601E-01
  0.874187373693E-01
  0.874187485223E-01
  0.241314974192E+00
  0.241315045169E+00
  0.529180821168E+00
  0.529180511289E+00
  0.362135084889E+00
  0.362135502047E+00
  0.293570117028E-01
  0.293569350542E-01
 -0.128487787282E+00
 -0.128487798292E+00
 -0.202913402767E+00
 -0.202913442176E+00
 -0.212748281592E+00
 -0.212748221468E+00
 -0.211823762305E+00
 -0.211823949894E+00
  0.175012636001E-02
  0.174994879050E-02
  0.781535179983E-03
  0.781532321896E-03
  0.110648801435E-01
  0.110648462709E-01
  0.874187485326E-01
  0.874187444365E-01
  0.241315053148E+00
  0.241315055212E+00
  0.529180665751E+00
  0.529181568332E+00
  0.362136446544E+00
  0.362135190593E+00
  0.293570149278E-01
  0.293570126735E-01
 -0.128487791330E+00
 -0.128487787297E+00
 -0.202913443386E+00
 -0.202913409899E+00
 -0.212748222545E+00
 -0.212748219760E+00
 -0.211823949887E+00
 -0.211823778843E+00
  0.175005040962E-02
  0.175012639870E-02
  0.781473972955E-03
  0.781535183573E-03
  0.110648230136E-01
  0.110648800193E-01
  0.874187443967E-01
  0.874187596914E-01
  0.241315044479E+00
  0.241315094119E+00
  0.529181397255E+00
  0.529180933302E+00
  0.362135628515E+00
  0.362136329471E+00
  0.293570691650E-01
  0.293570136221E-01
 -0.128487776296E+00
 -0.128487791272E+00
 -0.202913407622E+00
 -0.202913465427E+00
 -0.212748220737E+00
 -0.212748281411E+00
 -0.211823783526E+00
 -0.211823857276E+00
  0.168305636869E-02
  0.752380419759E-03
  0.751846173744E-03
  0.106019540242E-01
  0.106021122037E-01
  0.813656764638E-01
  0.813657714231E-01
  0.213638479167E+00
  0.213638636752E+00
  0.448873688193E+00
  0.307178783225E+00
  0.259904072898E-01
  0.259900841765E-01
 -0.119590802704E+00
 -0.119590976497E+00
 -0.194427992698E+00
 -0.194428086281E+00
 -0.204682416670E+00
 -0.204682156091E+00
 -0.203714984476E+00
 -0.620992042678E-01
 -0.631401331159E-01
 -0.631345625348E-01
 -0.522053822694E-01
 -0.522068576820E-01
  0.227467162283E-01
  0.227466292638E-01
  0.149758588744E+00
  0.149758497651E+00
  0.358360671869E+00
  0.306729199639E+00
  0.764005413708E-01
  0.764009009126E-01
 -0.613786813212E-01
 -0.613782251626E-01
 -0.141867290558E+00
 -0.141867111965E+00
 -0.153552874816E+00
 -0.153552638911E+00
 -0.152440204769E+00
SCALARS C_p_inc float 1
LOOKUP_TABLE default
 -0.445071645813E+00
 -0.882893005594E+00
 -0.243191687840E+00
 -0.215392084630E+00
 -0.172203152034E+00
 -0.168334680848E+00
 -0.103639604212E+00
 -0.137424971298E+00
  0.101927224271E+00
  0.633505425441E-03
  0.519496243896E+00
  0.502692533286E+00
 -0.158730221534E+00
  0.173940497351E+00
 -0.435325696904E+00
 -0.288619629197E+00
 -0.300553378322E+00
 -0.320387303429E+00
 -0.167034049431E+00
 -0.917201815426E-01
  0.929868164549E-01
  0.205345486788E+00
  0.555995874354E+00
  0.435172410415E+00
 -0.340523352766E+00
 -0.430711523569E+00
 -0.189589625137E+00
 -0.248901344162E+00
 -0.174727578867E+00
 -0.174402382044E+00
 -0.136533438201E+00
 -0.164809261749E+00
  0.349960957521E-02
 -0.324657112101E-01
  0.435698841392E+00
  0.436681285574E+00
 -0.294263404984E+00
 -0.163410109769E+00
 -0.497468227767E+00
 -0.430512860533E+00
 -0.282477960312E+00
 -0.313318821497E+00
 -0.895962662862E-01
 -0.295380698936E-01
  0.196806982229E+00
  0.193607901958E+00
  0.427639052899E+00
  0.398822710000E+00
 -0.310176139841E+00
 -0.338472182527E+00
 -0.167454348888E+00
 -0.189916033841E+00
 -0.162578588839E+00
 -0.177060423070E+00
 -0.165138826068E+00
 -0.169295503806E+00
 -0.323377646600E-01
 -0.444906309754E-01
  0.431010333736E+00
  0.431508643397E+00
 -0.327973902759E+00
 -0.294579823432E+00
 -0.504167174407E+00
 -0.501489148174E+00
 -0.260664251072E+00
 -0.291484185374E+00
 -0.287785743326E-01
 -0.147688817128E-01
  0.191524220043E+00
  0.187283894995E+00
  0.397757321413E+00
  0.390284345974E+00
 -0.298509092748E+00
 -0.309553738741E+00
 -0.160025013953E+00
 -0.167481447390E+00
 -0.157120462541E+00
 -0.163110854328E+00
 -0.170530292747E+00
 -0.167748394112E+00
 -0.445803452861E-01
 -0.454549716000E-01
  0.434891193028E+00
  0.434016110356E+00
 -0.320189919711E+00
 -0.327936357596E+00
 -0.496983525848E+00
 -0.508105267848E+00
 -0.254761151293E+00
 -0.263604399167E+00
 -0.147082121625E-01
 -0.126042166548E-01
  0.187003974386E+00
  0.185793938624E+00
  0.390269347739E+00
  0.387508949703E+00
 -0.286369101232E+00
 -0.297935900970E+00
 -0.155288714291E+00
 -0.159906671202E+00
 -0.155248356324E+00
 -0.157113752781E+00
 -0.168119525899E+00
 -0.167981714693E+00
 -0.455160273668E-01
 -0.468082017187E-01
  0.435519001168E+00
  0.434322072568E+00
 -0.312254401060E+00
 -0.320173477464E+00
 -0.492228264272E+00
 -0.498162651737E+00
 -0.252111077876E+00
 -0.255298365045E+00
 -0.125981247583E-01
 -0.116689446161E-01
  0.185809362701E+00
  0.184685481511E+00
  0.387653903213E+00
  0.384139716870E+00
 -0.250612885166E+00
 -0.285543283178E+00
 -0.142838008168E+00
 -0.154826222721E+00
 -0.153268150162E+00
 -0.154814897731E+00
 -0.167559991870E+00
 -0.171922888264E+00
 -0.467548492334E-01
 -0.522467867746E-01
  0.433559389686E+00
  0.431118751354E+00
 -0.302849028004E+00
 -0.312252141180E+00
 -0.485729833994E+00
 -0.492476062611E+00
 -0.247404355552E+00
 -0.252381500517E+00
 -0.116719248239E-01
 -0.839559560438E-02
  0.184979638686E+00
  0.183625537359E+00
  0.384970871382E+00
  0.375905731602E+00
 -0.167195683059E+00
 -0.250006690655E+00
 -0.106070458435E+00
 -0.141876027591E+00
 -0.138651275635E+00
 -0.151861644651E+00
 -0.170105211301E+00
 -0.180799737140E+00
 -0.519994441140E-01
 -0.689403548534E-01
  0.427026080743E+00
  0.421452983038E+00
 -0.286235012306E+00
 -0.302879260625E+00
 -0.473289624200E+00
 -0.485629674783E+00
 -0.232091370744E+00
 -0.248407767688E+00
 -0.842512649597E-02
  0.805362962540E-02
  0.185449280027E+00
  0.185265158694E+00
  0.381161568700E+00
  0.358151640223E+00
 -0.789850021969E-01
 -0.167518553191E+00
 -0.493082556103E-01
 -0.105021734020E+00
 -0.105174035362E+00
 -0.136486040627E+00
 -0.177655585412E+00
 -0.167472824441E+00
 -0.686937455598E-01
 -0.108885583367E+00
  0.406980729779E+00
  0.395885106087E+00
 -0.261890035922E+00
 -0.286504506034E+00
 -0.448073663097E+00
 -0.472600929885E+00
 -0.180105960949E+00
 -0.238725469845E+00
  0.763006110691E-02
  0.344071332990E-01
  0.190340722621E+00
  0.186213118018E+00
  0.373209237127E+00
  0.303827357653E+00
 -0.320838054960E+03
 -0.222293717696E+00
 -0.648029332563E+00
 -0.484008263385E-01
 -0.675551600460E-01
 -0.103975869988E+00
 -0.166315505430E+00
 -0.126383414565E+00
 -0.112514222469E+00
 -0.102939501192E+00
  0.316104262935E+00
  0.295930694444E+00
 -0.236258309947E+00
 -0.266094522857E+00
 -0.310420994963E+00
 -0.460266732359E+00
 -0.112472902284E+00
 -0.210223726565E+00
  0.277458619066E-01
  0.505686705839E-01
  0.187587747838E+00
 -0.431495054693E+00
  0.744694552722E-01
 -0.324552158819E+03
 -0.708982983892E+03
 -0.541892797474E+01
 -0.670934092589E+00
 -0.503468741464E-01
 -0.763493416283E-01
 -0.132988105433E+00
 -0.132192878799E+00
 -0.147739362101E+00
 -0.156862297755E+00
  0.278712870643E-01
 -0.261185119068E+00
 -0.236775923955E+00
 -0.343004566111E+00
 -0.115009427791E+00
 -0.193333013351E+00
  0.199888562939E-02
 -0.224125034080E-01
 -0.742065198949E+00
 -0.392853549402E+01
 -0.697992520253E+03
 -0.474040792826E+03
 -0.733544190130E+01
 -0.907484354810E+00
 -0.705728863084E-01
 -0.886607599364E-01
 -0.160034250477E+00
 -0.164513383579E+00
 -0.206810751591E+00
 -0.218511599464E+00
 -0.120637864372E+00
 -0.220288626838E+00
 -0.248727945309E+00
 -0.265457613862E+00
 -0.157003416149E+00
 -0.185593882198E+00
 -0.592013825493E-01
 -0.860893095255E-01
 -0.106392245406E+01
 -0.474299129465E+01
 -0.463233987929E+03
SCALARS inclination float 1
LOOKUP_TABLE default
  0.100000000000E+01
  0.100000000000E+01
  0.100000000000E+01
  0.100000000000E+01
  0.100000000000E+01
  0.100000000000E+01
  0.100000000000E+01
  0.100000000000E+01
  0.100000000000E+01
  0.100000000000E+01
  0.100000000000E+01
  0.100000000000E+01
  0.100000000000E+01
  0.100000000000E+01
  0.100000000000E+01
  0.100000000000E+01
  0.100000000000E+01
  0.100000000000E+01
  0.100000000000E+01
  0.100000000000E+01
  0.100000000000E+01
  0.100000000000E+01
  0.100000000000E+01
  0.100000000000E+01
  0.100000000000E+01
  0.100000000000E+01
  0.100000000000E+01
  0.100000000000E+01
  0.100000000000E+01
  0.100000000000E+01
  0.100000000000E+01
  0.100000000000E+01
  0.100000000000E+01
  0.100000000000E+01
  0.100000000000E+01
  0.100000000000E+01
  0.100000000000E+01
  0.100000000000E+01
  0.100000000000E+01
  0.100000000000E+01
  0.100000000000E+01
  0.100000000000E+01
  0.100000000000E+01
  0.100000000000E+01
  0.100000000000E+01
  0.100000000000E+01
  0.100000000000E+01
  0.100000000000E+01
  0.100000000000E+01
  0.100000000000E+01
  0.100000000000E+01
  0.100000000000E+01
  0.100000000000E+01
  0.100000000000E+01
  0.100000000000E+01
  0.100000000000E+01
  0.100000000000E+01
  0.100000000000E+01
  0.100000000000E+01
  0.100000000000E+01
  0.100000000000E+01
  0.100000000000E+01
  0.100000000000E+01
  0.100000000000E+01
  0.100000000000E+01
  0.100000000000E+01
  0.100000000000E+01
  0.100000000000E+01
  0.100000000000E+01
  0.100000000000E+01
  0.100000000000E+01
  0.100000000000E+01
  0.100000000000E+01
  0.100000000000E+01
  0.100000000000E+01
  0.100000000000E+01
  0.100000000000E+01
  0.100000000000E+01
  0.100000000000E+01
  0.100000000000E+01
  0.100000000000E+01
  0.100000000000E+01
  0.100000000000E+01
  0.100000000000E+01
  0.100000000000E+01
  0.100000000000E+01
  0.100000000000E+01
  0.100000000000E+01
  0.100000000000E+01
  0.100000000000E+01
  0.100000000000E+01
  0.100000000000E+01
  0.100000000000E+01
  0.100000000000E+01
  0.100000000000E+01
  0.100000000000E+01
  0.100000000000E+01
  0.100000000000E+01
  0.100000000000E+01
  0.100000000000E+01
  0.100000000000E+01
  0.100000000000E+01
  0.100000000000E+01
  0.100000000000E+01
  0.100000000000E+01
  0.100000000000E+01
  0.100000000000E+01
  0.100000000000E+01
  0.100000000000E+01
  0.100000000000E+01
  0.100000000000E+01
  0.100000000000E+01
  0.100000000000E+01
  0.100000000000E+01
  0.100000000000E+01
  0.100000000000E+01
  0.100000000000E+01
  0.100000000000E+01
  0.100000000000E+01
  0.100000000000E+01
  0.100000000000E+01
  0.100000000000E+01
  0.100000000000E+01
  0.100000000000E+01
  0.100000000000E+01
  0.100000000000E+01
  0.100000000000E+01
  0.100000000000E+01
  0.100000000000E+01
  0.100000000000E+01
  0.100000000000E+01
  0.100000000000E+01
  0.100000000000E+01
  0.100000000000E+01
  0.100000000000E+01
  0.100000000000E+01
  0.100000000000E+01
  0.100000000000E+01
  0.100000000000E+01
  0.100000000000E+01
  0.100000000000E+01
  0.100000000000E+01
  0.100000000000E+01
  0.100000000000E+01
  0.100000000000E+01
  0.100000000000E+01
  0.100000000000E+01
  0.100000000000E+01
  0.100000000000E+01
  0.100000000000E+01
  0.100000000000E+01
  0.100000000000E+01
  0.100000000000E+01
  0.100000000000E+01
  0.100000000000E+01
  0.100000000000E+01
  0.100000000000E+01
  0.100000000000E+01
  0.100000000000E+01
  0.100000000000E+01
  0.100000000000E+01
  0.100000000000E+01
  0.100000000000E+01
  0.100000000000E+01
  0.100000000000E+01
  0.100000000000E+01
  0.100000000000E+01
  0.100000000000E+01
  0.100000000000E+01
  0.100000000000E+01
  0.100000000000E+01
  0.100000000000E+01
  0.100000000000E+01
  0.100000000000E+01
  0.100000000000E+01
  0.100000000000E+01
  0.100000000000E+01
  0.100000000000E+01
  0.100000000000E+01
  0.100000000000E+01
  0.100000000000E+01
  0.100000000000E+01
  0.100000000000E+01
  0.100000000000E+01
  0.100000000000E+01
  0.100000000000E+01
  0.100000000000E+01
  0.100000000000E+01
  0.100000000000E+01
  0.100000000000E+01
  0.100000000000E+01
  0.100000000000E+01
  0.100000000000E+01
  0.100000000000E+01
  0.100000000000E+01
  0.100000000000E+01
  0.100000000000E+01
  0.100000000000E+01
  0.100000000000E+01
  0.100000000000E+01
  0.100000000000E+01
  0.100000000000E+01
  0.100000000000E+01
  0.100000000000E+01
  0.100000000000E+01
  0.100000000000E+01
  0.100000000000E+01
  0.100000000000E+01
  0.100000000000E+01
  0.100000000000E+01
  0.100000000000E+01
  0.100000000000E+01
  0.100000000000E+01
  0.100000000000E+01
  0.100000000000E+01
  0.100000000000E+01
  0.100000000000E+01
  0.100000000000E+01
  0.100000000000E+01
  0.100000000000E+01
  0.100000000000E+01
  0.100000000000E+01
  0.100000000000E+01
  0.100000000000E+01
  0.100000000000E+01
  0.100000000000E+01
  0.100000000000E+01
  0.100000000000E+01
  0.100000000000E+01
  0.100000000000E+01
  0.100000000000E+01
  0.100000000000E+01
  0.100000000000E+01
  0.100000000000E+01
  0.100000000000E+01
  0.100000000000E+01
  0.100000000000E+01
  0.100000000000E+01
  0.100000000000E+01
  0.100000000000E+01
  0.100000000000E+01
  0.100000000000E+01
  0.100000000000E+01
  0.100000000000E+01
  0.100000000000E+01
  0.100000000000E+01
  0.100000000000E+01
  0.100000000000E+01
  0.100000000000E+01
  0.100000000000E+01
  0.100000000000E+01
  0.100000000000E+01
  0.100000000000E+01
  0.100000000000E+01
  0.100000000000E+01
  0.100000000000E+01
VECTORS v float
  0.191491649760E+03 -0.338424222410E+02  0.240779377593E+02
  0.218033557683E+03 -0.414619765802E+02  0.277282615338E+02
  0.180603587662E+03 -0.403182136946E+01  0.199110143937E+02
  0.178522401772E+03 -0.533018844084E+01  0.198265845119E+02
  0.175606905222E+03 -0.241467782364E+01  0.173392536074E+02
  0.175304473974E+03 -0.291605517633E+01  0.173586336572E+02
  0.171198254842E+03  0.119017187940E+01  0.351307192836E+01
  0.173625644275E+03 -0.776722208951E+01  0.374832941492E+01
  0.152685228123E+03  0.131732128573E+02 -0.193541508318E+02
  0.160954841281E+03 -0.935392697679E+01 -0.236265002179E+02
  0.953275439008E+02  0.562733950188E+02 -0.226377711542E+02
  0.101023166309E+03  0.435671575486E+02 -0.333044251577E+02
  0.150272816669E+03 -0.568249281078E+01  0.903996299872E+02
  0.132424924371E+03  0.341339735814E+02  0.569744344316E+02
  0.191364843459E+03 -0.248059615678E+02  0.299888212462E+02
  0.183210798128E+03 -0.259363875716E+01  0.257761792230E+02
  0.185774691625E+03 -0.515752622256E+01 -0.394545099323E+01
  0.187004857545E+03 -0.969700439373E+01 -0.406468019889E+01
  0.175265784293E+03  0.204210774281E+01 -0.168719385768E+02
  0.169248815312E+03 -0.793297225649E+01 -0.172574612838E+02
  0.154261668264E+03  0.705424887432E+01 -0.158747771932E+02
  0.144473926680E+03  0.948087019184E+00 -0.154777712270E+02
  0.971613570870E+02  0.482608906803E+02 -0.522520181852E+01
  0.114339543003E+03  0.433101434817E+02 -0.758976977605E+01
  0.185805181701E+03 -0.242677234275E+02  0.224472050040E+02
  0.191550058012E+03 -0.277825992695E+02  0.234366576795E+02
  0.176177723917E+03 -0.124101764450E+02  0.203372531630E+02
  0.180501720750E+03 -0.128930735426E+02  0.208556293078E+02
  0.175579574600E+03 -0.797090468044E+01  0.178777712447E+02
  0.175554582342E+03 -0.798235584876E+01  0.178764510589E+02
  0.173626375463E+03 -0.605414753000E+01  0.371294503366E+01
  0.175547307619E+03 -0.107766320074E+02  0.385022929007E+01
  0.161198903165E+03  0.357178223007E+01 -0.218672097766E+02
  0.164009001626E+03 -0.182842442728E+01 -0.230062107052E+02
  0.104558024371E+03  0.576225759598E+02 -0.272061714033E+02
  0.104310141836E+03  0.580191331882E+02 -0.268326185428E+02
  0.160809509972E+03  0.151976505248E+01  0.923324223873E+02
  0.154587480509E+03  0.114736181414E+02  0.829560736965E+02
  0.194911055479E+03 -0.288499626234E+02  0.310418016912E+02
  0.191415329657E+03 -0.221321757830E+02  0.296248976198E+02
  0.183961553992E+03 -0.146783776253E+02 -0.410473029206E+01
  0.185768731473E+03 -0.191212036475E+02 -0.423388075487E+01
  0.169298454463E+03 -0.265087170946E+01 -0.167478176025E+02
  0.164493743046E+03 -0.485230091497E+01 -0.164942612357E+02
  0.144635533184E+03  0.150060020136E+02 -0.139791892885E+02
  0.144929056966E+03  0.149732215626E+02 -0.140143760468E+02
  0.114364690781E+03  0.455377641427E+02 -0.735442335546E+01
  0.118585096915E+03  0.429527861314E+02 -0.808160696403E+01
  0.183980542424E+03 -0.218515640882E+02  0.219940677416E+02
  0.185802381511E+03 -0.232458392965E+02  0.223377124535E+02
  0.174554888997E+03 -0.119982806613E+02  0.201178175728E+02
  0.176173806694E+03 -0.127509321222E+02  0.203735776931E+02
  0.174470609349E+03 -0.110477273069E+02  0.180694416479E+02
  0.175549438962E+03 -0.111776384757E+02  0.181871729185E+02
  0.175547137442E+03 -0.111753414278E+02  0.385846466122E+01
  0.175826928617E+03 -0.116998771378E+02  0.387508564108E+01
  0.164045073834E+03  0.819865755668E-01 -0.227461886534E+02
  0.164975049794E+03 -0.135874117731E+01 -0.230750588764E+02
  0.104568782860E+03  0.590475493840E+02 -0.263864170704E+02
  0.104459975343E+03  0.591937076286E+02 -0.262386238595E+02