# vtk DataFile Version 3.0
MachLine results file. Generated by MachLine, USU AeroLab (c) 2022.
ASCII
DATASET POLYDATA
POINTS                  86 float
  0.810587965200E+00  0.000000000000E+00  0.000000000000E+00
  0.999999756701E+03  0.000000000000E+00  0.697565747117E+00
  0.810676677800E+00  0.347461097400E-01 -0.128622059200E-02
  0.999999757599E+03  0.347461097400E-01  0.696279465218E+00
  0.820336240200E+00  0.347461097400E-01  0.000000000000E+00
  0.999999756706E+03  0.347461097400E-01  0.697558941539E+00
  0.800803929100E+00  0.000000000000E+00 -0.130279491000E-02
  0.999999757606E+03  0.000000000000E+00  0.696269783385E+00
  0.799987339200E+00  0.347461097400E-01 -0.264710801000E-02
  0.999999758544E+03  0.347461097400E-01  0.694926041027E+00
  0.789976847000E+00  0.000000000000E+00 -0.268121880900E-02
  0.999999758563E+03  0.000000000000E+00  0.694898918885E+00
  0.788200162400E+00  0.347461097400E-01 -0.413831356600E-02
  0.999999759579E+03  0.347461097400E-01  0.693443065197E+00
  0.778037779900E+00  0.000000000000E+00 -0.419164013300E-02
  0.999999759612E+03  0.000000000000E+00  0.693396833335E+00
  0.830938588000E+00  0.725364203800E-01  0.000000000000E+00
  0.999999756711E+03  0.725364203800E-01  0.697551539706E+00
  0.842386850500E+00  0.113341854000E+00  0.000000000000E+00
  0.999999756717E+03  0.113341854000E+00  0.697543547314E+00
  0.854652515100E+00  0.157060781400E+00  0.000000000000E+00
  0.999999756723E+03  0.157060781400E+00  0.697534984267E+00
  0.867684656900E+00  0.203511690000E+00  0.000000000000E+00
  0.999999756729E+03  0.203511690000E+00  0.697525886119E+00
  0.881408890100E+00  0.252429443600E+00  0.000000000000E+00
  0.999999756736E+03  0.252429443600E+00  0.697516304800E+00
  0.895727614200E+00  0.303466161400E+00  0.000000000000E+00
  0.999999756743E+03  0.303466161400E+00  0.697506308448E+00
  0.910521751800E+00  0.356197411800E+00  0.000000000000E+00
  0.999999756750E+03  0.356197411800E+00  0.697495980195E+00
  0.925654029900E+00  0.410133907800E+00  0.000000000000E+00
  0.999999756757E+03  0.410133907800E+00  0.697485415875E+00
  0.940973682400E+00  0.464738268900E+00  0.000000000000E+00
  0.999999756765E+03  0.464738268900E+00  0.697474720744E+00
  0.956322269300E+00  0.519445761800E+00  0.000000000000E+00
  0.999999756772E+03  0.519445761800E+00  0.697464005412E+00
  0.971540152800E+00  0.573687384300E+00  0.000000000000E+00
  0.999999756780E+03  0.573687384300E+00  0.697453381329E+00
  0.986473078300E+00  0.626913321300E+00  0.000000000000E+00
  0.999999756787E+03  0.626913321300E+00  0.697442956183E+00
  0.100097829000E+01  0.678614743900E+00  0.000000000000E+00
  0.999999756794E+03  0.678614743900E+00  0.697432829639E+00
  0.101492968200E+01  0.728342164900E+00  0.000000000000E+00
  0.999999756801E+03  0.728342164900E+00  0.697423089733E+00
  0.102822161300E+01  0.775719050100E+00  0.000000000000E+00
  0.999999756807E+03  0.775719050100E+00  0.697413810217E+00
  0.104077121000E+01  0.820450008200E+00  0.000000000000E+00
  0.999999756813E+03  0.820450008200E+00  0.697405048949E+00
  0.105251913300E+01  0.862323532100E+00  0.000000000000E+00
  0.999999756819E+03  0.862323532100E+00  0.697396847354E+00
  0.106342896600E+01  0.901209822200E+00  0.000000000000E+00
  0.999999756824E+03  0.901209822200E+00  0.697389230856E+00
  0.107348548600E+01  0.937054620400E+00  0.000000000000E+00
  0.999999756829E+03  0.937054620400E+00  0.697382210083E+00
  0.108269213400E+01  0.969870191100E+00  0.000000000000E+00
  0.999999756834E+03  0.969870191100E+00  0.697375782632E+00
  0.109106801000E+01  0.999724613400E+00  0.000000000000E+00
  0.999999756838E+03  0.999724613400E+00  0.697369935170E+00
  0.109864469200E+01  0.102673044000E+01  0.000000000000E+00
  0.999999756842E+03  0.102673044000E+01  0.697364645649E+00
  0.110546311600E+01  0.105103358000E+01  0.000000000000E+00
  0.999999756845E+03  0.105103358000E+01  0.697359885493E+00
  0.111157069400E+01  0.107280302900E+01  0.000000000000E+00
  0.999999756848E+03  0.107280302900E+01  0.697355621601E+00
  0.111701878500E+01  0.109222184700E+01  0.000000000000E+00
  0.999999756850E+03  0.109222184700E+01  0.697351818117E+00
  0.112186056500E+01  0.110947956900E+01  0.000000000000E+00
  0.999999756853E+03  0.110947956900E+01  0.697348437918E+00
  0.112614931300E+01  0.112476609800E+01  0.000000000000E+00
  0.999999756855E+03  0.112476609800E+01  0.697345443808E+00
  0.112993708900E+01  0.113826699800E+01  0.000000000000E+00
  0.999999756857E+03  0.113826699800E+01  0.697342799442E+00
  0.113327377200E+01  0.115016005100E+01  0.000000000000E+00
  0.999999756858E+03  0.115016005100E+01  0.697340469999E+00
  0.113620639300E+01  0.116061289200E+01  0.000000000000E+00
  0.999999756860E+03  0.116061289200E+01  0.697338422644E+00
  0.113877872500E+01  0.116978154300E+01  0.000000000000E+00
  0.999999756861E+03  0.116978154300E+01  0.697336626818E+00
  0.114103107000E+01  0.117780965500E+01  0.000000000000E+00
  0.999999756862E+03  0.117780965500E+01  0.697335054385E+00
  0.114300020200E+01  0.118482829800E+01  0.000000000000E+00
  0.999999756863E+03  0.118482829800E+01  0.697333679672E+00
  0.114471941700E+01  0.119095615500E+01  0.000000000000E+00
  0.999999756864E+03  0.119095615500E+01  0.697332479434E+00
  0.114621867200E+01  0.119630000000E+01  0.000000000000E+00
  0.999999756865E+03  0.119630000000E+01  0.697331432757E+00
POLYGONS                  72                 288
3                   4                   5                   1
3                   4                   1                   0
3                  16                  17                   5
3                  16                   5                   4
3                  18                  19                  17
3                  18                  17                  16
3                  20                  21                  19
3                  20                  19                  18
3                  22                  23                  21
3                  22                  21                  20
3                  24                  25                  23
3                  24                  23                  22
3                  26                  27                  25
3                  26                  25                  24
3                  28                  29                  27
3                  28                  27                  26
3                  30                  31                  29
3                  30                  29                  28
3                  32                  33                  31
3                  32                  31                  30
3                  34                  35                  33
3                  34                  33                  32
3                  36                  37                  35
3                  36                  35                  34
3                  38                  39                  37
3                  38                  37                  36
3                  40                  41                  39
3                  40                  39                  38
3                  42                  43                  41
3                  42                  41                  40
3                  44                  45                  43
3                  44                  43                  42
3                  46                  47                  45
3                  46                  45                  44
3                  48                  49                  47
3                  48                  47                  46
3                  50                  51                  49
3                  50                  49                  48
3                  52                  53                  51
3                  52                  51                  50
3                  54                  55                  53
3                  54                  53                  52
3                  56                  57                  55
3                  56                  55                  54
3                  58                  59                  57
3                  58                  57                  56
3                  60                  61                  59
3                  60                  59                  58
3                  62                  63                  61
3                  62                  61                  60
3                  64                  65                  63
3                  64                  63                  62
3                  66                  67                  65
3                  66                  65                  64
3                  68                  69                  67
3                  68                  67                  66
3                  70                  71                  69
3                  70                  69                  68
3                  72                  73                  71
3                  72                  71                  70
3                  74                  75                  73
3                  74                  73                  72
3                  76                  77                  75
3                  76                  75                  74
3                  78                  79                  77
3                  78                  77                  76
3                  80                  81                  79
3                  80                  79                  78
3                  82                  83                  81
3                  82                  81                  80
3                  84                  85                  83
3                  84                  83                  82
CELL_DATA                  72
NORMALS normals float
  0.698131630696E-03 -0.195865930693E-03 -0.999999737124E+00
  0.698131630696E-03 -0.195865930693E-03 -0.999999737124E+00
  0.698131630696E-03 -0.195865930534E-03 -0.999999737124E+00
  0.698131630696E-03 -0.195865930538E-03 -0.999999737124E+00
  0.698131630696E-03 -0.195865929089E-03 -0.999999737124E+00
  0.698131630696E-03 -0.195865929088E-03 -0.999999737124E+00
  0.698131630696E-03 -0.195865931257E-03 -0.999999737124E+00
  0.698131630696E-03 -0.195865931260E-03 -0.999999737124E+00
  0.698131630696E-03 -0.195865929870E-03 -0.999999737124E+00
  0.698131630696E-03 -0.195865929870E-03 -0.999999737124E+00
  0.698131630696E-03 -0.195865930034E-03 -0.999999737124E+00
  0.698131630696E-03 -0.195865930033E-03 -0.999999737124E+00
  0.698131630696E-03 -0.195865930183E-03 -0.999999737124E+00
  0.698131630696E-03 -0.195865930184E-03 -0.999999737124E+00
  0.698131630696E-03 -0.195865930148E-03 -0.999999737124E+00
  0.698131630696E-03 -0.195865930147E-03 -0.999999737124E+00
  0.698131630696E-03 -0.195865930669E-03 -0.999999737124E+00
  0.698131630696E-03 -0.195865930669E-03 -0.999999737124E+00
  0.698131630696E-03 -0.195865930230E-03 -0.999999737124E+00
  0.698131630696E-03 -0.195865930232E-03 -0.999999737124E+00
  0.698131630696E-03 -0.195865930485E-03 -0.999999737124E+00
  0.698131630696E-03 -0.195865930485E-03 -0.999999737124E+00
  0.698131630696E-03 -0.195865929778E-03 -0.999999737124E+00
  0.698131630696E-03 -0.195865929779E-03 -0.999999737124E+00
  0.698131630696E-03 -0.195865929621E-03 -0.999999737124E+00
  0.698131630696E-03 -0.195865929620E-03 -0.999999737124E+00
  0.698131630696E-03 -0.195865927637E-03 -0.999999737124E+00
  0.698131630696E-03 -0.195865927637E-03 -0.999999737124E+00
  0.698131630696E-03 -0.195865939787E-03 -0.999999737124E+00
  0.698131630696E-03 -0.195865939788E-03 -0.999999737124E+00
  0.698131630696E-03 -0.195865925439E-03 -0.999999737124E+00
  0.698131630696E-03 -0.195865925441E-03 -0.999999737124E+00
  0.698131630696E-03 -0.195865927991E-03 -0.999999737124E+00
  0.698131630696E-03 -0.195865927992E-03 -0.999999737124E+00
  0.698131630696E-03 -0.195865928573E-03 -0.999999737124E+00
  0.698131630696E-03 -0.195865928572E-03 -0.999999737124E+00
  0.698131630696E-03 -0.195865933296E-03 -0.999999737124E+00
  0.698131630696E-03 -0.195865933295E-03 -0.999999737124E+00
  0.698131630696E-03 -0.195865929211E-03 -0.999999737124E+00
  0.698131630696E-03 -0.195865929209E-03 -0.999999737124E+00
  0.698131630696E-03 -0.195865927194E-03 -0.999999737124E+00
  0.698131630696E-03 -0.195865927191E-03 -0.999999737124E+00
  0.698131630696E-03 -0.195865922693E-03 -0.999999737124E+00
  0.698131630696E-03 -0.195865922697E-03 -0.999999737124E+00
  0.698131630696E-03 -0.195865930649E-03 -0.999999737124E+00
  0.698131630696E-03 -0.195865930650E-03 -0.999999737124E+00
  0.698131630696E-03 -0.195865944314E-03 -0.999999737124E+00
  0.698131630696E-03 -0.195865944319E-03 -0.999999737124E+00
  0.698131630696E-03 -0.195865930680E-03 -0.999999737124E+00
  0.698131630696E-03 -0.195865930677E-03 -0.999999737124E+00
  0.698131630696E-03 -0.195865920061E-03 -0.999999737124E+00
  0.698131630696E-03 -0.195865920057E-03 -0.999999737124E+00
  0.698131630696E-03 -0.195865929862E-03 -0.999999737124E+00
  0.698131630696E-03 -0.195865929863E-03 -0.999999737124E+00
  0.698131630696E-03 -0.195865957203E-03 -0.999999737124E+00
  0.698131630696E-03 -0.195865957205E-03 -0.999999737124E+00
  0.698131630696E-03 -0.195865922689E-03 -0.999999737124E+00
  0.698131630696E-03 -0.195865922685E-03 -0.999999737124E+00
  0.698131630696E-03 -0.195865934833E-03 -0.999999737124E+00
  0.698131630696E-03 -0.195865934841E-03 -0.999999737124E+00
  0.698131630696E-03 -0.195865935482E-03 -0.999999737124E+00
  0.698131630696E-03 -0.195865935481E-03 -0.999999737124E+00
  0.698131630696E-03 -0.195865927695E-03 -0.999999737124E+00
  0.698131630696E-03 -0.195865927700E-03 -0.999999737124E+00
  0.698131630696E-03 -0.195865888251E-03 -0.999999737124E+00
  0.698131630696E-03 -0.195865888242E-03 -0.999999737124E+00
  0.698131630696E-03 -0.195865972122E-03 -0.999999737124E+00
  0.698131630696E-03 -0.195865972118E-03 -0.999999737124E+00
  0.698131630696E-03 -0.195865923674E-03 -0.999999737124E+00
  0.698131630696E-03 -0.195865923667E-03 -0.999999737124E+00
  0.698131630696E-03 -0.195865961296E-03 -0.999999737124E+00
  0.698131630696E-03 -0.195865961308E-03 -0.999999737124E+00
POINT_DATA                  86
SCALARS mu float 1
LOOKUP_TABLE default
 -0.981108930774E-03
 -0.981108930774E-03
  0.000000000000E+00
  0.000000000000E+00
 -0.981822304181E-03
 -0.981822304181E-03
  0.000000000000E+00
  0.000000000000E+00
  0.000000000000E+00
  0.000000000000E+00
  0.000000000000E+00
  0.000000000000E+00
  0.000000000000E+00
  0.000000000000E+00
  0.000000000000E+00
  0.000000000000E+00
 -0.982145445223E-03
 -0.982145445223E-03
 -0.982115154379E-03
 -0.982115154379E-03
 -0.981542707555E-03
 -0.981542707555E-03
 -0.979237437375E-03
 -0.979237437375E-03
 -0.975063163811E-03
 -0.975063163811E-03
 -0.969639819563E-03
 -0.969639819563E-03
 -0.962017203536E-03
 -0.962017203536E-03
 -0.952088212456E-03
 -0.952088212456E-03
 -0.939866928277E-03
 -0.939866928277E-03
 -0.925200200401E-03
 -0.925200200401E-03
 -0.908247885477E-03
 -0.908247885477E-03
 -0.889240422369E-03
 -0.889240422369E-03
 -0.867662994951E-03
 -0.867662994951E-03
 -0.843937278685E-03
 -0.843937278685E-03
 -0.818041028809E-03
 -0.818041028809E-03
 -0.790793910615E-03
 -0.790793910615E-03
 -0.761816954085E-03
 -0.761816954085E-03
 -0.731345285908E-03
 -0.731345285908E-03
 -0.699627897725E-03
 -0.699627897725E-03
 -0.666589778364E-03
 -0.666589778364E-03
 -0.632883719222E-03
 -0.632883719222E-03
 -0.598452874118E-03
 -0.598452874118E-03
 -0.563351953321E-03
 -0.563351953321E-03
 -0.527230994294E-03
 -0.527230994294E-03
 -0.491383082598E-03
 -0.491383082598E-03
 -0.455525827423E-03
 -0.455525827423E-03
 -0.418664295721E-03
 -0.418664295721E-03
 -0.381468278131E-03
 -0.381468278131E-03
 -0.343128860650E-03
 -0.343128860650E-03
 -0.303691670777E-03
 -0.303691670777E-03
 -0.262023685932E-03
 -0.262023685932E-03
 -0.216511639622E-03
 -0.216511639622E-03
 -0.163938155371E-03
 -0.163938155371E-03
 -0.968249328697E-04
 -0.968249328697E-04
  0.000000000000E+00
  0.000000000000E+00
