# vtk DataFile Version 3.0
PyPan mesh file. Generated by PyPan, USU AeroLab (c) 2020.
ASCII
DATASET POLYDATA
POINTS 1030 float
-0.75               -2.0                0.0                 
-0.75               -1.95105648041      0.0                 
-0.75               -1.80901694298      0.0                 
-0.75               -1.58778524399      0.0                 
-0.75               -1.30901694298      0.0                 
-0.75               -1.0                0.0                 
-0.75               -0.690982997417     0.0                 
-0.75               -0.412214756012     0.0                 
-0.75               -0.190983012319     0.0                 
-0.75               -0.0489434823394    0.0                 
-0.75               0.0                 0.0                 
-0.75               0.0489434823394     0.0                 
-0.75               0.190983012319      0.0                 
-0.75               0.412214756012      0.0                 
-0.75               0.690982997417      0.0                 
-0.75               1.0                 0.0                 
-0.75               1.30901694298       0.0                 
-0.75               1.58778524399       0.0                 
-0.75               1.80901694298       0.0                 
-0.75               1.95105648041       0.0                 
-0.75               2.0                 0.0                 
-0.743844151497     -2.00037121773      0.0                 
-0.743844151497     -2.00032162666      -0.000185663826414  
-0.743844151497     -2.00032162666      0.000185663826414   
-0.743844151497     -2.00018572807      -0.000321579165757  
-0.743844151497     -2.00018572807      0.000321579165757   
-0.743844151497     -2.0                -0.000371327652829  
-0.743844151497     -2.0                0.000371327652829   
-0.743844151497     -1.95105648041      -0.000371327652829  
-0.743844151497     -1.95105648041      0.000371327652829   
-0.743844151497     -1.80901694298      -0.000371327652829  
-0.743844151497     -1.80901694298      0.000371327652829   
-0.743844151497     -1.58778524399      -0.000371327652829  
-0.743844151497     -1.58778524399      0.000371327652829   
-0.743844151497     -1.30901694298      -0.000371327652829  
-0.743844151497     -1.30901694298      0.000371327652829   
-0.743844151497     -1.0                -0.000371327652829  
-0.743844151497     -1.0                0.000371327652829   
-0.743844151497     -0.690982997417     -0.000371327652829  
-0.743844151497     -0.690982997417     0.000371327652829   
-0.743844151497     -0.412214756012     -0.000371327652829  
-0.743844151497     -0.412214756012     0.000371327652829   
-0.743844151497     -0.190983012319     -0.000371327652829  
-0.743844151497     -0.190983012319     0.000371327652829   
-0.743844151497     -0.0489434823394    -0.000371327652829  
-0.743844151497     -0.0489434823394    0.000371327652829   
-0.743844151497     0.0                 -0.000371327652829  
-0.743844151497     0.0                 0.000371327652829   
-0.743844151497     0.0489434823394     -0.000371327652829  
-0.743844151497     0.0489434823394     0.000371327652829   
-0.743844151497     0.190983012319      -0.000371327652829  
-0.743844151497     0.190983012319      0.000371327652829   
-0.743844151497     0.412214756012      -0.000371327652829  
-0.743844151497     0.412214756012      0.000371327652829   
-0.743844151497     0.690982997417      -0.000371327652829  
-0.743844151497     0.690982997417      0.000371327652829   
-0.743844151497     1.0                 -0.000371327652829  
-0.743844151497     1.0                 0.000371327652829   
-0.743844151497     1.30901694298       -0.000371327652829  
-0.743844151497     1.30901694298       0.000371327652829   
-0.743844151497     1.58778524399       -0.000371327652829  
-0.743844151497     1.58778524399       0.000371327652829   
-0.743844151497     1.80901694298       -0.000371327652829  
-0.743844151497     1.80901694298       0.000371327652829   
-0.743844151497     1.95105648041       -0.000371327652829  
-0.743844151497     1.95105648041       0.000371327652829   
-0.743844151497     2.0                 -0.000371327652829  
-0.743844151497     2.0                 0.000371327652829   
-0.743844151497     2.00018572807       -0.000321579165757  
-0.743844151497     2.00018572807       0.000321579165757   
-0.743844151497     2.00032162666       -0.000185663826414  
-0.743844151497     2.00032162666       0.000185663826414   
-0.743844151497     2.00037121773       0.0                 
-0.725528240204     -2.00145888329      0.0                 
-0.725528240204     -2.00126338005      -0.000729450490326  
-0.725528240204     -2.00126338005      0.000729450490326   
-0.725528240204     -2.00072956085      -0.00126344524324   
-0.725528240204     -2.00072956085      0.00126344524324    
-0.725528240204     -2.0                -0.00145890098065   
-0.725528240204     -2.0                0.00145890098065    
-0.725528240204     -1.95105648041      -0.00145890098065   
-0.725528240204     -1.95105648041      0.00145890098065    
-0.725528240204     -1.80901694298      -0.00145890098065   
-0.725528240204     -1.80901694298      0.00145890098065    
-0.725528240204     -1.58778524399      -0.00145890098065   
-0.725528240204     -1.58778524399      0.00145890098065    
-0.725528240204     -1.30901694298      -0.00145890098065   
-0.725528240204     -1.30901694298      0.00145890098065    
-0.725528240204     -1.0                -0.00145890098065   
-0.725528240204     -1.0                0.00145890098065    
-0.725528240204     -0.690982997417     -0.00145890098065   
-0.725528240204     -0.690982997417     0.00145890098065    
-0.725528240204     -0.412214756012     -0.00145890098065   
-0.725528240204     -0.412214756012     0.00145890098065    
-0.725528240204     -0.190983012319     -0.00145890098065   
-0.725528240204     -0.190983012319     0.00145890098065    
-0.725528240204     -0.0489434823394    -0.00145890098065   
-0.725528240204     -0.0489434823394    0.00145890098065    
-0.725528240204     0.0                 -0.00145890098065   
-0.725528240204     0.0                 0.00145890098065    
-0.725528240204     0.0489434823394     -0.00145890098065   
-0.725528240204     0.0489434823394     0.00145890098065    
-0.725528240204     0.190983012319      -0.00145890098065   
-0.725528240204     0.190983012319      0.00145890098065    
-0.725528240204     0.412214756012      -0.00145890098065   
-0.725528240204     0.412214756012      0.00145890098065    
-0.725528240204     0.690982997417      -0.00145890098065   
-0.725528240204     0.690982997417      0.00145890098065    
-0.725528240204     1.0                 -0.00145890098065   
-0.725528240204     1.0                 0.00145890098065    
-0.725528240204     1.30901694298       -0.00145890098065   
-0.725528240204     1.30901694298       0.00145890098065    
-0.725528240204     1.58778524399       -0.00145890098065   
-0.725528240204     1.58778524399       0.00145890098065    
-0.725528240204     1.80901694298       -0.00145890098065   
-0.725528240204     1.80901694298       0.00145890098065    
-0.725528240204     1.95105648041       -0.00145890098065   
-0.725528240204     1.95105648041       0.00145890098065    
-0.725528240204     2.0                 -0.00145890098065   
-0.725528240204     2.0                 0.00145890098065    
-0.725528240204     2.00072956085       -0.00126344524324   
-0.725528240204     2.00072956085       0.00126344524324    
-0.725528240204     2.00126338005       -0.000729450490326  
-0.725528240204     2.00126338005       0.000729450490326   
-0.725528240204     2.00145888329       0.0                 
-0.695503234863     -2.00318789482      0.0                 
-0.695503234863     -2.00276064873      -0.00159392121714   
-0.695503234863     -2.00276064873      0.00159392121714    
-0.695503234863     -2.0015938282       -0.00276075256988   
-0.695503234863     -2.0015938282       0.00276075256988    
-0.695503234863     -2.0                -0.00318784243427   
-0.695503234863     -2.0                0.00318784243427    
-0.695503234863     -1.95105648041      -0.00318784243427   
-0.695503234863     -1.95105648041      0.00318784243427    
-0.695503234863     -1.80901694298      -0.00318784243427   
-0.695503234863     -1.80901694298      0.00318784243427    
-0.695503234863     -1.58778524399      -0.00318784243427   
-0.695503234863     -1.58778524399      0.00318784243427    
-0.695503234863     -1.30901694298      -0.00318784243427   
-0.695503234863     -1.30901694298      0.00318784243427    
-0.695503234863     -1.0                -0.00318784243427   
-0.695503234863     -1.0                0.00318784243427    
-0.695503234863     -0.690982997417     -0.00318784243427   
-0.695503234863     -0.690982997417     0.00318784243427    
-0.695503234863     -0.412214756012     -0.00318784243427   
-0.695503234863     -0.412214756012     0.00318784243427    
-0.695503234863     -0.190983012319     -0.00318784243427   
-0.695503234863     -0.190983012319     0.00318784243427    
-0.695503234863     -0.0489434823394    -0.00318784243427   
-0.695503234863     -0.0489434823394    0.00318784243427    
-0.695503234863     0.0                 -0.00318784243427   
-0.695503234863     0.0                 0.00318784243427    
-0.695503234863     0.0489434823394     -0.00318784243427   
-0.695503234863     0.0489434823394     0.00318784243427    
-0.695503234863     0.190983012319      -0.00318784243427   
-0.695503234863     0.190983012319      0.00318784243427    
-0.695503234863     0.412214756012      -0.00318784243427   
-0.695503234863     0.412214756012      0.00318784243427    
-0.695503234863     0.690982997417      -0.00318784243427   
-0.695503234863     0.690982997417      0.00318784243427    
-0.695503234863     1.0                 -0.00318784243427   
[...]
CELL_DATA 2056
SCALARS panel_area float 1
LOOKUP_TABLE default
0.000150918152413   
0.000150918152413   
0.000449011720453   
0.000449011720453   
0.000735981333657   
0.000735981333657   
0.00100473439286    
0.00100473439286    
0.00124864813885    
0.00124864813885    
0.00146173032037    
0.00146173032037    
0.00163874290066    
0.00163874290066    
0.00177534381196    
0.00177534381196    
0.00186817643199    
0.00186817643199    
0.00191496941152    
0.00191496941152    
0.00191460174534    
0.00191460174534    
0.00186714679048    
0.00186714679048    
0.00177387950984    
0.00177387950984    
0.00163723921989    
0.00163723921989    
0.00146076565233    
0.00146076565233    
0.00124902110596    
0.00124902110596    
0.00100757281244    
0.00100757281244    
0.000743234151058   
0.000743234151058   
0.000465686223688   
0.000465686223688   
0.00020408713374    
0.00020408713374    
0.00020408713374    
0.00020408713374    
0.000465686223688   
0.000465686223688   
0.000743234151058   
0.000743234151058   
0.00100757281244    
0.00100757281244    
0.00124902110596    
0.00124902110596    
0.00146076565233    
0.00146076565233    
0.00163723921989    
0.00163723921989    
0.00177387950984    
0.00177387950984    
0.00186714679048    
0.00186714679048    
0.00191460174534    
0.00191460174534    
0.00191496941152    
0.00191496941152    
0.00186817643199    
0.00186817643199    
0.00177534381196    
0.00177534381196    
0.00163874290066    
0.00163874290066    
0.00146173032037    
0.00146173032037    
0.00124864813885    
0.00124864813885    
0.00100473439286    
0.00100473439286    
0.000735981333657   
0.000735981333657   
0.000449011720453   
0.000449011720453   
0.000150918152413   
0.000150918152413   
0.000437981574043   
0.000437981574043   
0.001303082876      
0.001303082876      
0.00213590120092    
0.00213590120092    
0.00291585302261    
0.00291585302261    
0.00362371834356    
0.00362371834356    
0.00424210697192    
0.00424210697192    
0.0047558175316     
0.0047558175316     
0.00515224885008    
0.00515224885008    
0.00542165962932    
0.00542165962932    
0.00555745815656    
0.00555745815656    
0.00555639114766    
0.00555639114766    
0.00541867149303    
0.00541867149303    
0.00514799927947    
0.00514799927947    
0.00475145367965    
0.00475145367965    
0.00423930739598    
0.00423930739598    
0.00362480073638    
0.00362480073638    
0.00292409043774    
0.00292409043774    
0.00215694969861    
0.00215694969861    
0.00135147417325    
0.00135147417325    
0.000592283980741   
0.000592283980741   
0.000592283980741   
0.000592283980741   
0.00135147417325    
0.00135147417325    
0.00215694969861    
0.00215694969861    
0.00292409043774    
0.00292409043774    
0.00362480073638    
0.00362480073638    
0.00423930739598    
0.00423930739598    
0.00475145367965    
0.00475145367965    
0.00514799927947    
0.00514799927947    
0.00541867149303    
0.00541867149303    
0.00555639114766    
0.00555639114766    
0.00555745815656    
0.00555745815656    
0.00542165962932    
0.00542165962932    
0.00515224885008    
0.00515224885008    
0.0047558175316     
0.0047558175316     
0.00424210697192    
0.00424210697192    
0.00362371834356    
0.00362371834356    
0.00291585302261    
0.00291585302261    
0.00213590120092    
0.00213590120092    
0.001303082876      
0.001303082876      
0.000437981574043   
0.000437981574043   
0.000682172261097   
0.000682172261097   
0.00202959906215    
0.00202959906215    
0.00332674395013    
0.00332674395013    
0.00454154733291    
0.00454154733291    
0.00564407336407    
0.00564407336407    
0.00660723618607    
0.00660723618607    
0.00740735910177    
0.00740735910177    
0.00802481532579    
0.00802481532579    
0.00844443243146    
0.00844443243146    
0.00865594358598    
0.00865594358598    
0.00865428168073    
0.00865428168073    
0.00843977830031    
0.00843977830031    
0.00801819646472    
0.00801819646472    
0.00740056224335    
0.00740056224335    
0.00660287574454    
0.00660287574454    
0.00564575923032    
0.00564575923032    
0.00455437740714    
0.00455437740714    
0.00335952775225    
0.00335952775225    
0.00210497027094    
0.00210497027094    
0.000922503882125   
0.000922503882125   
0.000922503882125   
0.000922503882125   
0.00210497027094    
0.00210497027094    
0.00335952775225    
0.00335952775225    
0.00455437740714    
0.00455437740714    
0.00564575923032    
0.00564575923032    
0.00660287574454    
0.00660287574454    
0.00740056224335    
0.00740056224335    
0.00801819646472    
0.00801819646472    
0.00843977830031    
0.00843977830031    
0.00865428168073    
0.00865428168073    
0.00865594358598    
0.00865594358598    
0.00844443243146    
0.00844443243146    
0.00802481532579    
0.00802481532579    
0.00740735910177    
0.00740735910177    
0.00660723618607    
0.00660723618607    
0.00564407336407    
0.00564407336407    
0.00454154733291    
0.00454154733291    
0.00332674395013    
0.00332674395013    
0.00202959906215    
0.00202959906215    
0.000682172261097   
0.000682172261097   
0.000859587138748   
0.000859587138748   
0.0025574438454     
0.0025574438454     
0.00419194164951    
0.00419194164951    
0.00572268311102    
0.00572268311102    
0.0071119468653     
0.0071119468653     
0.00832560274305    
0.00832560274305    
0.00933381636734    
0.00933381636734    
0.0101118565475     
0.0101118565475     
0.0106406049118     
0.0106406049118     
0.0109071244971     
0.0109071244971     
0.0109050303744     
0.0109050303744     
0.0106347403648     
0.0106347403648     
0.0101035162965     
0.0101035162965     
0.00932525182665    
0.00932525182665    
0.00832010826654    
0.00832010826654    
0.00711407118056    
0.00711407118056    
0.00573884994662    
0.00573884994662    
0.00423325164741    
0.00423325164741    
0.00265241710273    
0.00265241710273    
0.00116242262804    
0.00116242262804    
0.00116242262804    
0.00116242262804    
0.00265241710273    
0.00265241710273    
0.00423325164741    
0.00423325164741    
0.00573884994662    
0.00573884994662    
0.00711407118056    
0.00711407118056    
0.00832010826654    
0.00832010826654    
0.00932525182665    
0.00932525182665    
0.0101035162965     
0.0101035162965     
0.0106347403648     
0.0106347403648     
0.0109050303744     
0.0109050303744     
0.0109071244971     
0.0109071244971     
0.0106406049118     
0.0106406049118     
0.0101118565475     
0.0101118565475     
0.00933381636734    
0.00933381636734    
0.00832560274305    
0.00832560274305    
0.0071119468653     
0.0071119468653     
0.00572268311102    
0.00572268311102    
0.00419194164951    
0.00419194164951    
0.0025574438454     
0.0025574438454     
0.000859587138748   
0.000859587138748   
0.000952859765284   
0.000952859765284   
0.00283494858451    
0.00283494858451    
0.00464680351321    
0.00464680351321    
0.00634364364026    
0.00634364364026    
0.00788365450727    
0.00788365450727    
0.00922900252689    
0.00922900252689    
0.0103466160347     
0.0103466160347     
0.0112090802923     
0.0112090802923     
0.0117952024195     
0.0117952024195     
0.012090641681      
0.012090641681      
0.012088320328      
0.012088320328      
0.0117887015185     
0.0117887015185     
0.0111998350521     
0.0111998350521     
0.0103371221674     
0.0103371221674     
0.00922291185225    
0.00922291185225    
0.00788600932909    
0.00788600932909    
0.00636156471711    
0.00636156471711    
0.00469259600256    
0.00469259600256    
0.0029402272603     
0.0029402272603     
0.00128855551995    
0.00128855551995    
0.00128855551995    
0.00128855551995    
0.0029402272603     
0.0029402272603     
0.00469259600256    
0.00469259600256    
0.00636156471711    
0.00636156471711    
0.00788600932909    
0.00788600932909    
0.00922291185225    
0.00922291185225    
0.0103371221674     
0.0103371221674     
0.0111998350521     
0.0111998350521     
0.0117887015185     
0.0117887015185     
0.012088320328      
0.012088320328      
0.012090641681      
0.012090641681      
0.0117952024195     
0.0117952024195     
0.0112090802923     
0.0112090802923     
0.0103466160347     
0.0103466160347     
0.00922900252689    
0.00922900252689    
0.00788365450727    
0.00788365450727    
0.00634364364026    
0.00634364364026    
0.00464680351321    
0.00464680351321    
0.00283494858451    
0.00283494858451    
0.000952859765284   
0.000952859765284   
0.000952859581492   
0.000952859581492   
0.00283494803769    
0.00283494803769    
0.00464680261691    
0.00464680261691    
0.00634364241666    
0.00634364241666    
0.00788365298664    
0.00788365298664    
0.00922900074676    
0.00922900074676    
0.010346614039      
0.010346614039      
0.0112090781302     
0.0112090781302     
0.0117952001444     
0.0117952001444     
0.0120906393489     
0.0120906393489     
0.0120883179963     
0.0120883179963     
0.0117886992447     
0.0117886992447     
0.0111998328918     
0.0111998328918     
0.0103371201735     
0.0103371201735     
0.00922291007329    
0.00922291007329    
0.007886007808      
0.007886007808      
0.00636156349006    
0.00636156349006    
0.00469259509743    
0.00469259509743    
0.00294022669317    
0.00294022669317    
0.00128855527141    
0.00128855527141    
0.00128855527141    
0.00128855527141    
0.00294022669317    
0.00294022669317    
0.00469259509743    
0.00469259509743    
0.00636156349006    
0.00636156349006    
0.007886007808      
0.007886007808      
0.00922291007329    
0.00922291007329    
0.0103371201735     
0.0103371201735     
0.0111998328918     
0.0111998328918     
0.0117886992447     
0.0117886992447     
0.0120883179963     
0.0120883179963     
0.0120906393489     
0.0120906393489     
0.0117952001444     
0.0117952001444     
0.0112090781302     
0.0112090781302     
0.010346614039      
0.010346614039      
0.00922900074676    
0.00922900074676    
0.00788365298664    
0.00788365298664    
0.00634364241666    
0.00634364241666    
0.00464680261691    
0.00464680261691    
0.00283494803769    
0.00283494803769    
0.000952859581492   
0.000952859581492   
0.00085958732254    
0.00085958732254    
0.00255744439221    
0.00255744439221    
0.00419194254581    
0.00419194254581    
0.00572268433461    
0.00572268433461    
0.00711194838593    
0.00711194838593    
0.00832560452318    
0.00832560452318    
0.00933381836304    
0.00933381836304    
0.0101118587095     
0.0101118587095     
0.0106406071869     
0.0106406071869     
0.0109071268292     
0.0109071268292     
0.0109050327061     
0.0109050327061     
0.0106347426387     
0.0106347426387     
0.0101035184568     
0.0101035184568     
0.00932525382052    
0.00932525382052    
0.0083201100455     
0.0083201100455     
0.00711407270165    
0.00711407270165    
0.00573885117367    
0.00573885117367    
0.00423325255254    
0.00423325255254    
0.00265241766986    
0.00265241766986    
0.00116242287658    
0.00116242287658    
0.00116242287658    
0.00116242287658    
0.00265241766986    
0.00265241766986    
0.00423325255254    
0.00423325255254    
0.00573885117367    
0.00573885117367    
0.00711407270165    
0.00711407270165    
0.0083201100455     
0.0083201100455     
0.00932525382052    
0.00932525382052    
0.0101035184568     
0.0101035184568     
0.0106347426387     
0.0106347426387     
0.0109050327061     
0.0109050327061     
0.0109071268292     
0.0109071268292     
0.0106406071869     
0.0106406071869     
0.0101118587095     
0.0101118587095     
0.00933381836304    
0.00933381836304    
0.00832560452318    
0.00832560452318    
0.00711194838593    
0.00711194838593    
0.00572268433461    
0.00572268433461    
0.00419194254581    
0.00419194254581    
0.00255744439221    
0.00255744439221    
0.00085958732254    
0.00085958732254    
0.000682172123253   
0.000682172123253   
0.00202959865204    
0.00202959865204    
0.0033267432779     
0.0033267432779     
0.00454154641522    
0.00454154641522    
0.00564407222359    
0.00564407222359    
0.00660723485097    
0.00660723485097    
0.00740735760499    
0.00740735760499    
0.00802481370425    
0.00802481370425    
0.00844443072513    
0.00844443072513    
0.0086559418369     
0.0086559418369     
0.00865427993199    
0.00865427993199    
0.00843977659491    
0.00843977659491    
0.00801819484451    
0.00801819484451    
0.00740056074794    
0.00740056074794    
0.00660287441032    
0.00660287441032    
0.0056457580895     
0.0056457580895     
0.00455437648686    
0.00455437648686    
0.00335952707341    
0.00335952707341    
0.00210496984559    
0.00210496984559    
0.000922503695718   
0.000922503695718   
0.000922503695718   
0.000922503695718   
0.00210496984559    
0.00210496984559    
0.00335952707341    
0.00335952707341    
0.00455437648686    
0.00455437648686    
0.0056457580895     
0.0056457580895     
0.00660287441032    
0.00660287441032    
0.00740056074794    
0.00740056074794    
0.00801819484451    
0.00801819484451    
0.00843977659491    
0.00843977659491    
0.00865427993199    
0.00865427993199    
0.0086559418369     
0.0086559418369     
0.00844443072513    
0.00844443072513    
0.00802481370425    
0.00802481370425    
0.00740735760499    
0.00740735760499    
0.00660723485097    
0.00660723485097    
0.00564407222359    
0.00564407222359    
0.00454154641522    
0.00454154641522    
0.0033267432779     
0.0033267432779     
0.00202959865204    
0.00202959865204    
0.000682172123253   
0.000682172123253   
0.000437981597017   
0.000437981597017   
0.00130308294435    
0.00130308294435    
0.00213590131296    
0.00213590131296    
0.00291585317556    
0.00291585317556    
0.00362371853364    
0.00362371853364    
0.00424210719444    
0.00424210719444    
0.00475581778106    
0.00475581778106    
0.00515224912034    
0.00515224912034    
0.00542165991371    
0.00542165991371    
0.00555745844807    
0.00555745844807    
0.00555639143912    
0.00555639143912    
0.00541867177726    
0.00541867177726    
0.00514799954951    
0.00514799954951    
0.00475145392888    
0.00475145392888    
0.00423930761835    
0.00423930761835    
0.00362480092652    
0.00362480092652    
0.00292409059112    
0.00292409059112    
0.00215694981175    
0.00215694981175    
0.00135147424414    
0.00135147424414    
0.000592284011809   
0.000592284011809   
0.000592284011809   
0.000592284011809   
0.00135147424414    
0.00135147424414    
0.00215694981175    
0.00215694981175    
0.00292409059112    
0.00292409059112    
0.00362480092652    
0.00362480092652    
0.00423930761835    
0.00423930761835    
0.00475145392888    
0.00475145392888    
0.00514799954951    
0.00514799954951    
0.00541867177726    
0.00541867177726    
0.00555639143912    
0.00555639143912    
0.00555745844807    
0.00555745844807    
0.00542165991371    
0.00542165991371    
0.00515224912034    
0.00515224912034    
0.00475581778106    
0.00475581778106    
0.00424210719444    
0.00424210719444    
0.00362371853364    
0.00362371853364    
0.00291585317556    
0.00291585317556    
0.00213590131296    
0.00213590131296    
0.00130308294435    
0.00130308294435    
0.000437981597017   
0.000437981597017   
0.000150918267283   
0.000150918267283   
0.000449012062214   
0.000449012062214   
0.000735981893842   
0.000735981893842   
0.00100473515761    
0.00100473515761    
0.00124864908924    
0.00124864908924    
0.00146173143295    
0.00146173143295    
0.00163874414798    
0.00163874414798    
0.00177534516325    
0.00177534516325    
0.00186817785393    
0.00186817785393    
0.00191497086909    
0.00191497086909    
0.00191460320263    
0.00191460320263    
0.00186714821164    
0.00186714821164    
0.00177388086002    
0.00177388086002    
0.00163724046606    
0.00163724046606    
0.00146076676418    
0.00146076676418    
0.00124902205664    
0.00124902205664    
0.00100757357934    
0.00100757357934    
0.000743234716764   
0.000743234716764   
0.000465686578141   
0.000465686578141   
0.00020408728908    
0.00020408728908    
0.00020408728908    
0.00020408728908    
0.000465686578141   
0.000465686578141   
0.000743234716764   
0.000743234716764   
0.00100757357934    
0.00100757357934    
0.00124902205664    
0.00124902205664    
0.00146076676418    
0.00146076676418    
0.00163724046606    
0.00163724046606    
0.00177388086002    
0.00177388086002    
0.00186714821164    
0.00186714821164    
0.00191460320263    
0.00191460320263    
0.00191497086909    
0.00191497086909    
0.00186817785393    
0.00186817785393    
0.00177534516325    
0.00177534516325    
0.00163874414798    
0.00163874414798    
0.00146173143295    
0.00146173143295    
0.00124864908924    
0.00124864908924    
0.00100473515761    
0.00100473515761    
0.000735981893842   
0.000735981893842   
0.000449012062214   
0.000449012062214   
0.000150918267283   
0.000150918267283   
5.9281287402e-07    
6.92827417941e-06   
1.763743406e-06     
2.48098005965e-05   
1.13563077317e-05   
3.38697355309e-05   
5.78695053826e-05   
0.000106952915018   
7.19189320905e-05   
0.000170074062682   
0.000125205896642   
0.000242701483147   
0.000190671925265   
0.000262935542576   
0.000318290767243   
0.00038891151429    
0.000334938337539   
0.000398657882794   
0.000446074802809   
0.000481826150631   
0.000445994895192   
0.000469888935754   
0.000490030622117   
0.000467782714347   
0.000465555476289   
0.000431747342297   
0.000416381685389   
0.000341692312714   
0.000371490227861   
0.000292140425804   
0.000253430984792   
0.000163642958192   
0.000204403688985   
8.47432038434e-05   
0.000120654134117   
5.30065253063e-05   
2.76419153699e-05   
1.19574639204e-05   
5.92585123722e-07   
6.92615615343e-06   
1.76306500716e-06   
1.13528337832e-05   
2.48110365059e-05   
5.78668897081e-05   
3.38714296129e-05   
0.000106949178528   
7.19156720872e-05   
0.000170070149449   
0.000125201523226   
0.00019066753562    
0.000242704608685   
0.000318292063456   
0.000262938923304   
0.000388905695393   
0.00033493968656    
0.000398651902563   
0.000446074094999   
0.000481827227796   
0.000445994191646   
0.00046988997503    
0.000490041295723   
0.000467782965073   
0.000465565611108   
0.000431747578624   
0.000416385387428   
0.000341696170265   
0.000371493520385   
0.000292143713866   
0.000253430087448   
0.000204402962742   
0.000163646456071   
8.47420579601e-05   
0.000120656753892   
5.30058864857e-05   
2.76431734706e-05   
1.19579812504e-05   
5.92495889665e-07   
6.92740688551e-06   
1.76280273467e-06   
2.48117600397e-05   
1.13548920616e-05   
5.78669583695e-05   
3.3872404348e-05    
7.19157536404e-05   
0.00010695012532    
0.000125202626932   
0.000170071638344   
0.000242702393256   
0.00019066922043    
0.000318291471973   
0.000262936534455   
0.000334939067398   
0.000388911926309   
0.000446075907223   
0.000398658262235   
0.000481825137741   
0.000445995997171   
0.000490033864616   
0.000469887927125   
0.000465558550007   
0.000467782379034   
0.000431747039766   
0.00041638568919    
0.000341695220161   
0.000371493799004   
0.000253431865382   
0.000292142955686   
0.000204404336081   
0.000163645364286   
0.000120655962113   
8.47432904143e-05   
2.76430418411e-05   
5.3006573416e-05    
1.19579611791e-05   
5.92495889665e-07   
1.76280273467e-06   
6.92740688551e-06   
1.13548920616e-05   
2.48117600397e-05   
5.78669430354e-05   
3.38724196822e-05   
0.00010695012532    
7.19157536404e-05   
0.000170071638344   
0.000125202626932   
0.000242702391645   
0.000190669222041   
0.000262936534455   
0.000318291471973   
0.000388911926309   
0.000334939067398   
0.000398658262235   
0.000446075907223   
0.000445995997171   
0.000481825137741   
0.000490033859373   
0.000469887932368   
0.000467782379034   
0.000465558550007   
0.00041638568919    
0.000431747039766   
0.000371493799004   
0.000341695220161   
0.000292142955686   
0.000253431865382   
0.000163645364286   
0.000204404336081   
8.47432904143e-05   
0.000120655962113   