# vtk DataFile Version 3.0
PyPan mesh file. Generated by PyPan, USU AeroLab (c) 2020.
ASCII
DATASET POLYDATA
POINTS 5942 float
-4.79848623276      -3.0                0.0                 
-4.79848623276      3.0                 0.0                 
-4.79597425461      -2.99634599686      0.0                 
-4.79597425461      2.99634599686       0.0                 
-4.79478216171      -3.00023818016      2.12153220436e-34   
-4.79478216171      3.00023818016       2.12153220436e-34   
-4.7947807312       -3.00023674965      -2.4895196475e-05   
-4.7947807312       -3.00023674965      2.4895196475e-05    
-4.7947807312       3.00023674965       -2.4895196475e-05   
-4.7947807312       3.00023674965       2.4895196475e-05    
-4.7947769165       -3.00023293495      -4.95176354889e-05  
-4.7947769165       -3.00023293495      4.95176354889e-05   
-4.7947769165       3.00023293495       -4.95176354889e-05  
-4.7947769165       3.00023293495       4.95176354889e-05   
-4.79477024078      -3.00022649765      -7.35975481803e-05  
-4.79477024078      -3.00022649765      7.35975481803e-05   
-4.79477024078      3.00022649765       -7.35975481803e-05  
-4.79477024078      3.00022649765       7.35975481803e-05   
-4.79476118088      -3.00021767616      -9.6871117421e-05   
-4.79476118088      -3.00021767616      9.6871117421e-05    
-4.79476118088      3.00021767616       -9.6871117421e-05   
-4.79476118088      3.00021767616       9.6871117421e-05    
-4.79475021362      -3.00020623207      -0.000119083342724  
-4.79475021362      -3.00020623207      0.000119083342724   
-4.79475021362      3.00020623207       -0.000119083342724  
-4.79475021362      3.00020623207       0.000119083342724   
-4.79473638535      -3.00019264221      -0.000139990865136  
-4.79473638535      -3.00019264221      0.000139990865136   
-4.79473638535      3.00019264221       -0.000139990865136  
-4.79473638535      3.00019264221       0.000139990865136   
-4.79472064972      -3.00017690659      -0.000159364615683  
-4.79472064972      -3.00017690659      0.000159364615683   
-4.79472064972      3.00017690659       -0.000159364615683  
-4.79472064972      3.00017690659       0.000159364615683   
-4.79470300674      -3.00015926361      -0.00017699234013   
-4.79470300674      -3.00015926361      0.00017699234013    
-4.79470300674      3.00015926361       -0.00017699234013   
-4.79470300674      3.00015926361       0.00017699234013    
-4.79468393326      -3.00013995171      -0.000192680890905  
-4.79468393326      -3.00013995171      0.000192680890905   
-4.79468393326      3.00013995171       -0.000192680890905  
-4.79468393326      3.00013995171       0.000192680890905   
-4.79466295242      -3.00011897087      -0.000206258395337  
-4.79466295242      -3.00011897087      0.000206258395337   
-4.79466295242      3.00011897087       -0.000206258395337  
-4.79466295242      3.00011897087       0.000206258395337   
-4.79464054108      -3.00009679794      -0.000217576089199  
-4.79464054108      -3.00009679794      0.000217576089199   
-4.79464054108      3.00009679794       -0.000217576089199  
-4.79464054108      3.00009679794       0.000217576089199   
-4.79461717606      -3.00007367134      -0.000226509975619  
-4.79461717606      -3.00007367134      0.000226509975619   
-4.79461717606      3.00007367134       -0.000226509975619  
-4.79461717606      3.00007367134       0.000226509975619   
-4.7945933342       -3.00004959106      -0.000232962163864  
-4.7945933342       -3.00004959106      0.000232962163864   
-4.7945933342       3.00004959106       -0.000232962163864  
-4.7945933342       3.00004959106       0.000232962163864   
-4.79456853867      -3.00002479553      -0.000236861975281  
-4.79456853867      -3.00002479553      0.000236861975281   
-4.79456853867      3.00002479553       -0.000236861975281  
-4.79456853867      3.00002479553       0.000236861975281   
-4.79454374313      -3.0                -0.000238166685449  
-4.79454374313      -3.0                0.000238166685449   
-4.79454374313      3.0                 -0.000238166685449  
-4.79454374313      3.0                 0.000238166685449   
-4.7920255661       -2.99634599686      -0.000238529275521  
-4.7920255661       -2.99634599686      0.000238529275521   
-4.7920255661       2.99634599686       -0.000238529275521  
-4.7920255661       2.99634599686       0.000238529275521   
-4.78845024109      -2.98540210724      0.0                 
-4.78845024109      2.98540210724       0.0                 
-4.78448390961      -2.98540210724      -0.000239615314058  
-4.78448390961      -2.98540210724      0.000239615314058   
-4.78448390961      2.98540210724       -0.000239615314058  
-4.78448390961      2.98540210724       0.000239615314058   
-4.78371953964      -3.00094175339      0.0                 
-4.78371953964      3.00094175339       0.0                 
-4.78371477127      -3.00093650818      -9.84383150353e-05  
-4.78371477127      -3.00093650818      9.84383150353e-05   
-4.78371477127      3.00093650818       -9.84383150353e-05  
-4.78371477127      3.00093650818       9.84383150353e-05   
-4.78369903564      -3.00092124939      -0.000195798114873  
-4.78369903564      -3.00092124939      0.000195798114873   
-4.78369903564      3.00092124939       -0.000195798114873  
-4.78369903564      3.00092124939       0.000195798114873   
-4.78367376328      -3.0008957386       -0.0002910127223    
-4.78367376328      -3.0008957386       0.0002910127223     
-4.78367376328      3.0008957386        -0.0002910127223    
-4.78367376328      3.0008957386        0.0002910127223     
-4.78363847733      -3.00086021423      -0.000383038917789  
-4.78363847733      -3.00086021423      0.000383038917789   
-4.78363847733      3.00086021423       -0.000383038917789  
-4.78363847733      3.00086021423       0.000383038917789   
-4.78359365463      -3.00081562996      -0.000470868457342  
-4.78359365463      -3.00081562996      0.000470868457342   
-4.78359365463      3.00081562996       -0.000470868457342  
-4.78359365463      3.00081562996       0.000470868457342   
-4.78353977203      -3.00076198578      -0.000553539081011  
-4.78353977203      -3.00076198578      0.000553539081011   
-4.78353977203      3.00076198578       -0.000553539081011  
-4.78353977203      3.00076198578       0.000553539081011   
-4.7834777832       -3.00069975853      -0.000630145019386  
-4.7834777832       -3.00069975853      0.000630145019386   
-4.7834777832       3.00069975853       -0.000630145019386  
-4.7834777832       3.00069975853       0.000630145019386   
-4.78340816498      -3.0006301403       -0.0006998469471    
-4.78340816498      -3.0006301403       0.0006998469471     
-4.78340816498      3.0006301403        -0.0006998469471    
-4.78340816498      3.0006301403        0.0006998469471     
-4.7833313942       -3.00055360794      -0.000761881179642  
-4.7833313942       -3.00055360794      0.000761881179642   
-4.7833313942       3.00055360794       -0.000761881179642  
-4.7833313942       3.00055360794       0.000761881179642   
-4.78324890137      -3.00047087669      -0.000815568084363  
-4.78324890137      -3.00047087669      0.000815568084363   
-4.78324890137      3.00047087669       -0.000815568084363  
-4.78324890137      3.00047087669       0.000815568084363   
-4.78316116333      -3.00038313866      -0.000860319472849  
-4.78316116333      -3.00038313866      0.000860319472849   
-4.78316116333      3.00038313866       -0.000860319472849  
-4.78316116333      3.00038313866       0.000860319472849   
-4.78306913376      -3.00029110909      -0.000895645061973  
-4.78306913376      -3.00029110909      0.000895645061973   
-4.78306913376      3.00029110909       -0.000895645061973  
-4.78306913376      3.00029110909       0.000895645061973   
-4.78297376633      -3.00019574165      -0.000921157712582  
-4.78297376633      -3.00019574165      0.000921157712582   
-4.78297376633      3.00019574165       -0.000921157712582  
-4.78297376633      3.00019574165       0.000921157712582   
-4.78287649155      -3.00009846687      -0.000936577969696  
-4.78287649155      -3.00009846687      0.000936577969696   
-4.78287649155      3.00009846687       -0.000936577969696  
-4.78287649155      3.00009846687       0.000936577969696   
-4.78277826309      -3.0                -0.000941736914683  
-4.78277826309      -3.0                0.000941736914683   
-4.78277826309      3.0                 -0.000941736914683  
-4.78277826309      3.0                 0.000941736914683   
-4.78024196625      -2.99634599686      -0.000943170685787  
-4.78024196625      -2.99634599686      0.000943170685787   
-4.78024196625      2.99634599686       -0.000943170685787  
-4.78024196625      2.99634599686       0.000943170685787   
-4.7759513855       -2.96722149849      0.0                 
-4.7759513855       2.96722149849       0.0                 
-4.77264642715      -2.98540210724      -0.000947465014178  
-4.77264642715      -2.98540210724      0.000947465014178   
-4.77264642715      2.98540210724       -0.000947465014178  
-4.77264642715      2.98540210724       0.000947465014178   
-4.77195453644      -2.96722149849      -0.000241419504164  
-4.77195453644      -2.96722149849      0.000241419504164   
-4.77195453644      2.96722149849       -0.000241419504164  
-4.77195453644      2.96722149849       0.000241419504164   
-4.76545381546      -3.00207901001      0.0                 
-4.76545381546      3.00207901001       0.0                 
-4.76544237137      -3.00206780434      -0.000217325447011  
-4.76544237137      -3.00206780434      0.000217325447011   
-4.76544237137      3.00206780434       -0.000217325447011  
-4.76544237137      3.00206780434       0.000217325447011   
-4.76540851593      -3.00203371048      -0.00043226982234   
-4.76540851593      -3.00203371048      0.00043226982234    
-4.76540851593      3.00203371048       -0.00043226982234   
[...]
CELL_DATA 11880
SCALARS panel_area float 1
LOOKUP_TABLE default
3.61467202498e-05   
3.60151374152e-05   
0.000107862758906   
0.000107468448921   
0.000177856663285   
0.000177206717357   
0.000245016009072   
0.000244121056817   
0.000308282565474   
0.000307155698955   
0.000366662114575   
0.000365322339076   
0.000419243986221   
0.000417712352807   
0.00046520968441    
0.000463509724279   
0.000503845433659   
0.00050200418544    
0.000534555011131   
0.000532601990468   
0.000556872750222   
0.000554837944078   
0.000570474374892   
0.000568389944898   
0.000575192163653   
0.000573090308773   
0.000571025954549   
0.000568939648194   
0.000558158418277   
0.000556119014723   
0.000536963155437   
0.000535000960019   
0.000508010710394   
0.000506154479885   
0.000472068579549   
0.000470343571465   
0.000430101618774   
0.000428530376833   
0.000383305139967   
0.000381904248004   
0.000333221769862   
0.000332004492025   
0.000282072154067   
0.000281041189145   
0.000233514748122   
0.000232662185115   
0.000194125025289   
0.000193414797349   
0.000174464407862   
0.000173827245126   
0.000174464407862   
0.000173827245126   
0.000194125025289   
0.000193414797349   
0.000233514748122   
0.000232662185115   
0.000282072154067   
0.000281041189145   
0.000333221769862   
0.000332004492025   
0.000383305139967   
0.000381904248004   
0.000430101618774   
0.000428530376833   
0.000472068579549   
0.000470343571465   
0.000508010710394   
0.000506154479885   
0.000536963155437   
0.000535000960019   
0.000558158418277   
0.000556119014723   
0.000571025954549   
0.000568939648194   
0.000575192163653   
0.000573090308773   
0.000570474374892   
0.000568389944898   
0.000556872750222   
0.000554837944078   
0.000534555011131   
0.000532601990468   
0.000503845433659   
0.00050200418544    
0.00046520968441    
0.000463509724279   
0.000419243986221   
0.000417712352807   
0.000366662114575   
0.000365322339076   
0.000308282565474   
0.000307155698955   
0.000245016009072   
0.000244121056817   
0.000177856663285   
0.000177206717357   
0.000107862758906   
0.000107468448921   
3.61467202498e-05   
3.60151374152e-05   
0.000107869921995   
0.00010668492684    
0.000321881716468   
0.000318346632248   
0.000530756759318   
0.000524925929956   
0.000731173615715   
0.000723142289656   
0.000919970562509   
0.000909866708027   
0.00109418718623    
0.00108216855489    
0.00125110183728    
0.0012373586228     
0.00138827074449    
0.00137302168604    
0.00150356679737    
0.00148705216478    
0.00159521123264    
0.00157768948518    
0.00166181049364    
0.00164355688021    
0.00170240055901    
0.00168370120764    
0.00171647875376    
0.00169762496906    
0.00170404717668    
0.00168532943106    
0.00166564780213    
0.00164735208421    
0.0016023966072     
0.00158479568218    
0.00151599717775    
0.00149934536782    
0.00140873887249    
0.00139326523008    
0.00128350296862    
0.00126940440649    
0.00114385238347    
0.00113128872353    
0.000994395403141   
0.000983472740806   
0.000841754451487   
0.000832508560979   
0.000696852695469   
0.000689197831511   
0.000579303438954   
0.000572941347725   
0.000520633871112   
0.000514914855334   
0.000520633871112   
0.000514914855334   
0.000579303438954   
0.000572941347725   
0.000696852695469   
0.000689197831511   
0.000841754451487   
0.000832508560979   
0.000994395403141   
0.000983472740806   
0.00114385238347    
0.00113128872353    
0.00128350296862    
0.00126940440649    
0.00140873887249    
0.00139326523008    
0.00151599717775    
0.00149934536782    
0.0016023966072     
0.00158479568218    
0.00166564780213    
0.00164735208421    
0.00170404717668    
0.00168532943106    
0.00171647875376    
0.00169762496906    
0.00170240055901    
0.00168370120764    
0.00166181049364    
0.00164355688021    
0.00159521123264    
0.00157768948518    
0.00150356679737    
0.00148705216478    
0.00138827074449    
0.00137302168604    
0.00125110183728    
0.0012373586228     
0.00109418718623    
0.00108216855489    
0.000919970562509   
0.000909866708027   
0.000731173615715   
0.000723142289656   
0.000530756759318   
0.000524925929956   
0.000321881716468   
0.000318346632248   
0.000107869921995   
0.00010668492684    
0.000177230620184   
0.000173959090774   
0.000528854160873   
0.000519096816573   
0.0008720345957     
0.00085594781254    
0.0012013221066     
0.00117915635744    
0.00151151843469    
0.00148363089835    
0.00179775530754    
0.00176458509818    
0.00205556524282    
0.00201764204597    
0.00228093595892    
0.00223885327702    
0.00247036938433    
0.0024247895004     
0.00262094069117    
0.00257258299491    
0.00273036317172    
0.00267998984014    
0.00279705304919    
0.002745446906      
0.0028201838654     
0.0027681515612     
0.00279975785997    
0.0027481023354     
0.00273666795017    
0.00268617611711    
0.002632746044      
0.00258417197763    
0.0024907914192     
0.00244483614629    
0.00231456568259    
0.00227186178855    
0.00210880171095    
0.00206989415768    
0.00187935596169    
0.00184468192224    
0.00163379674735    
0.0016036531183     
0.00138300711289    
0.00135749101225    
0.00114493214001    
0.00112380747765    
0.000951799878701   
0.000934239183236   
0.000855405251508   
0.000839622239733   
0.000855405251508   
0.000839622239733   
0.000951799878701   
0.000934239183236   
0.00114493214001    
0.00112380747765    
0.00138300711289    
0.00135749101225    
0.00163379674735    
0.0016036531183     
0.00187935596169    
0.00184468192224    
0.00210880171095    
0.00206989415768    
0.00231456568259    
0.00227186178855    
0.0024907914192     
0.00244483614629    
0.002632746044      
0.00258417197763    
0.00273666795017    
0.00268617611711    
0.00279975785997    
0.0027481023354     
0.0028201838654     
0.0027681515612     
0.00279705304919    
0.002745446906      
0.00273036317172    
0.00267998984014    
0.00262094069117    
0.00257258299491    
0.00247036938433    
0.0024247895004     
0.00228093595892    
0.00223885327702    
0.00205556524282    
0.00201764204597    
0.00179775530754    
0.00176458509818    
0.00151151843469    
0.00148363089835    
0.0012013221066     
0.00117915635744    
0.0008720345957     
0.00085594781254    
0.000528854160873   
0.000519096816573   
0.000177230620184   
0.000173959090774   
0.000242355047882   
0.000236009259009   
0.000723191494386   
0.00070425248131    
0.00119248303003    
0.00116125450243    
0.00164276834406    
0.0015997492544     
0.00206695394124    
0.00201282501326    
0.00245837168098    
0.00239399437207    
0.00281092363566    
0.00273731199082    
0.0031191090709     
0.00303742951977    
0.00337815026949    
0.00328968812934    
0.00358405221857    
0.00349019624517    
0.00373368854887    
0.00363591062208    
0.0038248814225     
0.0037247194213     
0.00385651298506    
0.00375552111329    
0.00382858097854    
0.0037283205838     
0.00374230698445    
0.00364430637516    
0.003600197424      
0.00350591834971    
0.00340607864586    
0.00331688282825    
0.00316509567151    
0.00308221056562    
0.0028837196505     
0.00280820299548    
0.00256996035709    
0.00250265968507    
0.00223416565039    
0.00217565946143    
0.00189121938203    
0.00184169326558    
0.00156565822928    
0.00152465798144    
0.00130155594738    
0.00126747285684    
0.00116973809691    
0.00113910594516    
0.00116973809691    
0.00113910594516    
0.00130155594738    
0.00126747285684    
0.00156565822928    
0.00152465798144    
0.00189121938203    
0.00184169326558    
0.00223416565039    
0.00217565946143    
0.00256996035709    
0.00250265968507    
0.0028837196505     
0.00280820299548    
0.00316509567151    
0.00308221056562    
0.00340607864586    
0.00331688282825    
0.003600197424      
0.00350591834971    
0.00374230698445    
0.00364430637516    
0.00382858097854    
0.0037283205838     
0.00385651298506    
0.00375552111329    
0.0038248814225     
0.0037247194213     
0.00373368854887    
0.00363591062208    
0.00358405221857    
0.00349019624517    
0.00337815026949    
0.00328968812934    
0.0031191090709     
0.00303742951977    
0.00281092363566    
0.00273731199082    
0.00245837168098    
0.00239399437207    
0.00206695394124    
0.00201282501326    
0.00164276834406    
0.0015997492544     
0.00119248303003    
0.00116125450243    
0.000723191494386   
0.00070425248131    
0.000242355047882   
0.000236009259009   
0.00030146455201    
0.000291109798477   
0.000899571321433   
0.000868671877531   
0.00148331924207    
0.0014323688838     
0.00204342704531    
0.00197323516531    
0.00257106610694    
0.00248275177486    
0.0030579497709     
0.00295291271973    
0.00349648386534    
0.00337638003399    
0.00387983653801    
0.00374656231931    
0.00420205706414    
0.00405771766366    
0.00445817448313    
0.00430503757115    
0.00464430155017    
0.00448477430335    
0.00475774078979    
0.00459431327298    
0.0047970851415     
0.00463230782412    
0.00476234071688    
0.00459875708025    
0.00465502585746    
0.00449512734381    
0.00447825716395    
0.00432443087983    
0.00423679422689    
0.00409126228332    
0.00393703731771    
0.00380180171927    
0.00358703578146    
0.0034638231523     
0.0031967525397     
0.00308694525672    
0.00277906136135    
0.00268360144486    
0.00235247231581    
0.00227166586426    
0.00194750952457    
0.00188061335502    
0.00161899624247    
0.00156338390304    
0.0014550284989     
0.00140504925298    
0.0014550284989     
0.00140504925298    
0.00161899624247    
0.00156338390304    
0.00194750952457    
0.00188061335502    
0.00235247231581    
0.00227166586426    
0.00277906136135    
0.00268360144486    
0.0031967525397     
0.00308694525672    
0.00358703578146    
0.0034638231523     
0.00393703731771    
0.00380180171927    
0.00423679422689    
0.00409126228332    
0.00447825716395    
0.00432443087983    
0.00465502585746    
0.00449512734381    
0.00476234071688    
0.00459875708025    
0.0047970851415     
0.00463230782412    
0.00475774078979    
0.00459431327298    
0.00464430155017    
0.00448477430335    
0.00445817448313    
0.00430503757115    
0.00420205706414    
0.00405771766366    
0.00387983653801    
0.00374656231931    
0.00349648386534    
0.00337638003399    
0.0030579497709     
0.00295291271973    
0.00257106610694    
0.00248275177486    
0.00204342704531    
0.00197323516531    
0.00148331924207    
0.0014323688838     
0.000899571321433   
0.000868671877531   
0.00030146455201    
0.000291109798477   
0.00035289853026    
0.000337680592876   
0.0010530494984     
0.00100763828303    
0.00173639247379    
0.00166151480414    
0.00239205886864    
0.00228891391998    
0.00300972159289    
0.00287993543519    
0.00357967521267    
0.00342531231899    
0.00409302444758    
0.00391652955841    
0.00454177878592    
0.00434592913526    
0.0049189776274     
0.004706863929      
0.0052187918142     
0.00499375194926    
0.00543667805172    
0.005202236846      
0.00556946697539    
0.00532930332377    
0.00561552589981    
0.00537337511466    
0.00557485390567    
0.0053344568827     
0.00544922854732    
0.00521425065843    
0.00524230129907    
0.00501624545615    
0.00495964197489    
0.00474577448841    
0.00460874271883    
0.0044100062357     
0.00419902758208    
0.00401795857939    
0.00374215653988    
0.00358078924496    
0.00325320220473    
0.00311291846323    
0.00275383192366    
0.00263508339041    
0.00227977786742    
0.00218146955485    
0.0018952157831     
0.00181349150964    
0.00170327413695    
0.00162982597896    
0.00170327413695    
0.00162982597896    
0.0018952157831     
0.00181349150964    
0.00227977786742    
0.00218146955485    
0.00275383192366    
0.00263508339041    
0.00325320220473    
0.00311291846323    
0.00374215653988    
0.00358078924496    
0.00419902758208    
0.00401795857939    
0.00460874271883    
0.0044100062357     
0.00495964197489    
0.00474577448841    
0.00524230129907    
0.00501624545615    
0.00544922854732    
0.00521425065843    
0.00557485390567    
0.0053344568827     
0.00561552589981    
0.00537337511466    
0.00556946697539    
0.00532930332377    
0.00543667805172    
0.005202236846      
0.0052187918142     
0.00499375194926    
0.0049189776274     
0.004706863929      
0.00454177878592    
0.00434592913526    
0.00409302444758    
0.00391652955841    
0.00357967521267    
0.00342531231899    
0.00300972159289    
0.00287993543519    
0.00239205886864    
0.00228891391998    
0.00173639247379    
0.00166151480414    
0.0010530494984     
0.00100763828303    
0.00035289853026    
0.000337680592876   
0.000395159727995   
0.000374320232346   
0.00117915592896    
0.00111697140348    
0.0019443336698     
0.00184179920479    
0.00267852703612    
0.00253727342444    
0.0033701507668     
0.00319242375132    
0.00400836035407    
0.00379697846176    
0.00458319132454    
0.0043414884833     
0.00508568221141    
0.00481749036809    
0.00550805443906    
0.00521758241929    
0.00584377575824    
0.00553559704339    
0.00608774840324    
0.0057667081139     
0.00623644383879    
0.00590756320225    
0.0062880173532     
0.0059564145534     
0.00624247464621    
0.00591327318756    
0.00610180720845    
0.00578002296933    
0.00587009799416    
0.0055605351572     
0.0055535882669     
0.00526071553246    
0.0051606665401     
0.00488851548581    
0.00470188551579    
0.00445392871132    
0.00419030217159    
0.00396932409922    
0.00364279153383    
0.00345068626187    
0.00308362059816    
0.00292100342916    
0.00255279384383    
0.00241817171895    
0.00212217937529    
0.00201026416896    
0.00190725052118    
0.00180667085372    
0.00190725052118    
0.00180667085372    
0.00212217937529    
0.00201026416896    
0.00255279384383    
0.00241817171895    
0.00308362059816    
0.00292100342916    
0.00364279153383    
0.00345068626187    
0.00419030217159    
0.00396932409922    
0.00470188551579    
0.00445392871132    
0.0051606665401     
0.00488851548581    
0.0055535882669     
0.00526071553246    
0.00587009799416    
0.0055605351572     
0.00610180720845    
0.00578002296933    
0.00624247464621    
0.00591327318756    
0.0062880173532     
0.0059564145534     
0.00623644383879    
0.00590756320225    
0.00608774840324    
0.0057667081139     
0.00584377575824    
0.00553559704339    
0.00550805443906    
0.00521758241929    
0.00508568221141    
0.00481749036809    
0.00458319132454    
0.0043414884833     
0.00400836035407    
0.00379697846176    
0.0033701507668     
0.00319242375132    
0.00267852703612    
0.00253727342444    
0.0019443336698     
0.00184179920479    
0.00117915592896    
0.00111697140348    
0.000395159727995   
0.000374320232346   
0.000426944362046   
0.000399836767343   
0.00127400179573    
0.0011931107829     
0.00210073016465    
0.00196733050225    
0.00289397818861    
0.00271021436       
0.00364123337093    
0.00341002019781    
0.00433077988591    
0.00405578510892    
0.00495184042278    
0.00463741266705    
0.00549476149601    
0.00514585370376    
0.00595110070693    
0.00557321336489    
0.00631382373867    
0.00591290957245    
0.00657742584259    
0.00615977416196    
0.0067380830971     
0.00631022469824    
0.00679380232393    
0.00636240613793    
0.00674459590485    
0.00631633001292    
0.0065926125944     
0.00617399346838    
0.00634226783209    
0.00593954307156    
0.00600029789963    
0.00561929043845    
0.00557577154737    
0.00522172162207    
0.00508008798553    
0.00475751100061    
0.00452735496256    
0.00423987626713    
0.00393580406718    
0.00368588804158    
0.00333165547543    
0.00312010127483    
0.00275813254904    
0.00258299595523    
0.00229287920582    
0.00214728603812    
0.00206066347413    
0.00192981483837    
0.00206066347413    
0.00192981483837    
0.00229287920582    
0.00214728603812    
0.00275813254904    
0.00258299595523    
0.00333165547543    
0.00312010127483    
0.00393580406718    
0.00368588804158    
0.00452735496256    
0.00423987626713    
0.00508008798553    
0.00475751100061    
0.00557577154737    
0.00522172162207    
0.00600029789963    
0.00561929043845    
0.00634226783209    
0.00593954307156    
0.0065926125944     
0.00617399346838    
0.00674459590485    
0.00631633001292    
0.00679380232393    
0.00636240613793    
0.0067380830971     
0.00631022469824    
0.00657742584259    
0.00615977416196    
0.00631382373867    
0.00591290957245    
0.00595110070693    
0.00557321336489    
0.00549476149601    
0.00514585370376    
0.00495184042278    
0.00463741266705    
0.00433077988591    
0.00405578510892    
0.00364123337093    
0.00341002019781    
0.00289397818861    
0.00271021436       
0.00210073016465    
0.00196733050225    
0.00127400179573    
0.0011931107829     
0.000426944362046   
0.000399836767343   
0.000447171773485   
0.000413261591733   
0.00133435816498    
0.00123317427009    
0.00220023455782    
0.00203339381043    
0.00303106537332    
0.00280121418709    
0.00381371830223    
0.00352452563634    
0.00453593263649    
0.00419196486044    
0.00518641654703    
0.0047931266038     
0.00575504977895    
0.00531864229426    
0.00623300278119    
0.00576034936314    
0.00661291424218    
0.00611145403637    
0.00688900402339    
0.00636660654229    
0.00705726580984    
0.00652210979093    
0.00711562476424    
0.00657604617725    
0.00706409390237    
0.00652841688736    
0.00690490665505    
0.00638130649941    
0.00664270072049    
0.00613897987611    
0.00628453473445    
0.00580797565162    
0.00583989947608    
0.00539705602941    
0.00532073298655    
0.00491725931313    
0.00474181756286    
0.00438224226368    
0.00412224483294    
0.00380965315458    
0.00348947701136    
0.00322486814279    
0.00288878600553    
0.00266972782981    
0.00240149420972    
0.00221938721313    
0.00215827768175    
0.0019946142936     
0.00215827768175    
0.0019946142936     
0.00240149420972    
0.00221938721313    
0.00288878600553    
0.00266972782981    
0.00348947701136    
0.00322486814279    
0.00412224483294    
0.00380965315458    
0.00474181756286    
0.00438224226368    
0.00532073298655    
0.00491725931313    
0.00583989947608    
0.00539705602941    
0.00628453473445    
0.00580797565162    
0.00664270072049    
0.00613897987611    
0.00690490665505    
0.00638130649941    
0.00706409390237    
0.00652841688736    
0.00711562476424    
0.00657604617725    
0.00705726580984    
0.00652210979093    
0.00688900402339    
0.00636660654229    
0.00661291424218    
0.00611145403637    
0.00623300278119    
0.00576034936314    
0.00575504977895    
0.00531864229426    
0.00518641654703    
0.0047931266038     
0.00453593263649    
0.00419196486044    
0.00381371830223    
0.00352452563634    
0.00303106537332    
0.00280121418709    
0.00220023455782    
0.00203339381043    
0.00133435816498    
0.00123317427009    
0.000447171773485   
0.000413261591733   
0.000454993870898   
0.000413888112119   
0.00135770355161    
0.00123505062125    
0.00223873141086    
0.00203648333072    
0.00308408836881    
0.00280548559959    
0.00388044179094    
0.00352988154805    
0.00461528084404    
0.00419834816578    
0.00527714957131    
0.00480041985415    
0.00585573326151    
0.00532673162887    
0.00634204514554    
0.00576912209531    
0.00672860530274    
0.0061207503064     
0.00700952380681    
0.00637629043834    
0.00718073021933    
0.00653203680669    
0.00724011322421    
0.00658604993855    
0.00718767420096    
0.00653834961961    
0.00702570815073    
0.00639101656779    
0.00675891082251    
0.0061483215571     
0.00639448074752    
0.00581681360961    
0.00594206539238    
0.0054052663498     
0.00541381726807    
0.00492474207308    
0.00482477281492    
0.00438891043034    
0.00419436214528    
0.00381544967659    
0.00355052373643    
0.00322977397554    
0.00293932368962    
0.0026737900294     
0.00244350638351    
0.00222276381911    
0.00219603498126    