# vtk DataFile Version 3.0
MachLine results file. Generated by MachLine, USU AeroLab (c) 2022.
ASCII
DATASET POLYDATA
POINTS                1164 float
  0.100000000000E+01  0.000000000000E+00  0.000000000000E+00
  0.973034464140E+00  0.105263157890E+00 -0.235917869390E-02
  0.100000000000E+01  0.105263157890E+00  0.000000000000E+00
  0.973034464140E+00  0.000000000000E+00 -0.235917869390E-02
  0.929717765040E+00  0.105263157890E+00 -0.614889880620E-02
  0.929717765040E+00  0.000000000000E+00 -0.614889880620E-02
  0.863184801440E+00  0.105263157890E+00 -0.119697788720E-01
  0.863184801440E+00  0.000000000000E+00 -0.119697788720E-01
  0.767714243180E+00  0.105263157890E+00 -0.203223704200E-01
  0.767714243180E+00  0.000000000000E+00 -0.203223704200E-01
  0.643290544900E+00  0.105263157890E+00 -0.312080334940E-01
  0.643290544900E+00  0.000000000000E+00 -0.312080334940E-01
  0.500000000000E+00  0.105263157890E+00 -0.437443317630E-01
  0.500000000000E+00  0.000000000000E+00 -0.437443317630E-01
  0.356709455100E+00  0.000000000000E+00 -0.312080334940E-01
  0.356709455100E+00  0.105263157890E+00 -0.312080334940E-01
  0.232285756820E+00  0.000000000000E+00 -0.203223704200E-01
  0.232285756820E+00  0.105263157890E+00 -0.203223704200E-01
  0.136815198560E+00  0.000000000000E+00 -0.119697788720E-01
  0.136815198560E+00  0.105263157890E+00 -0.119697788720E-01
  0.702822349590E-01  0.000000000000E+00 -0.614889880620E-02
  0.702822349590E-01  0.105263157890E+00 -0.614889880620E-02
  0.269655358630E-01  0.000000000000E+00 -0.235917869390E-02
  0.269655358630E-01  0.105263157890E+00 -0.235917869390E-02
  0.000000000000E+00  0.000000000000E+00  0.000000000000E+00
  0.000000000000E+00  0.105263157890E+00  0.000000000000E+00
  0.269655358630E-01  0.105263157890E+00  0.235917869390E-02
  0.269655358630E-01  0.000000000000E+00  0.235917869390E-02
  0.702822349590E-01  0.105263157890E+00  0.614889880620E-02
  0.702822349590E-01  0.000000000000E+00  0.614889880620E-02
  0.136815198560E+00  0.105263157890E+00  0.119697788720E-01
  0.136815198560E+00  0.000000000000E+00  0.119697788720E-01
  0.232285756820E+00  0.105263157890E+00  0.203223704200E-01
  0.232285756820E+00  0.000000000000E+00  0.203223704200E-01
  0.356709455100E+00  0.105263157890E+00  0.312080334940E-01
  0.356709455100E+00  0.000000000000E+00  0.312080334940E-01
  0.500000000000E+00  0.105263157890E+00  0.437443317630E-01
  0.500000000000E+00  0.000000000000E+00  0.437443317630E-01
  0.643290544900E+00  0.000000000000E+00  0.312080334940E-01
  0.643290544900E+00  0.105263157890E+00  0.312080334940E-01
  0.767714243180E+00  0.000000000000E+00  0.203223704200E-01
  0.767714243180E+00  0.105263157890E+00  0.203223704200E-01
  0.863184801440E+00  0.000000000000E+00  0.119697788720E-01
  0.863184801440E+00  0.105263157890E+00  0.119697788720E-01
  0.929717765040E+00  0.000000000000E+00  0.614889880620E-02
  0.929717765040E+00  0.105263157890E+00  0.614889880620E-02
  0.973034464140E+00  0.000000000000E+00  0.235917869390E-02
  0.973034464140E+00  0.105263157890E+00  0.235917869390E-02
  0.973034464140E+00  0.210526315790E+00 -0.235917869390E-02
  0.100000000000E+01  0.210526315790E+00  0.000000000000E+00
  0.929717765040E+00  0.210526315790E+00 -0.614889880620E-02
  0.863184801440E+00  0.210526315790E+00 -0.119697788720E-01
  0.767714243180E+00  0.210526315790E+00 -0.203223704200E-01
  0.643290544900E+00  0.210526315790E+00 -0.312080334940E-01
  0.500000000000E+00  0.210526315790E+00 -0.437443317630E-01
  0.356709455100E+00  0.210526315790E+00 -0.312080334940E-01
  0.232285756820E+00  0.210526315790E+00 -0.203223704200E-01
  0.136815198560E+00  0.210526315790E+00 -0.119697788720E-01
  0.702822349590E-01  0.210526315790E+00 -0.614889880620E-02
  0.269655358630E-01  0.210526315790E+00 -0.235917869390E-02
  0.000000000000E+00  0.210526315790E+00  0.000000000000E+00
  0.269655358630E-01  0.210526315790E+00  0.235917869390E-02
  0.702822349590E-01  0.210526315790E+00  0.614889880620E-02
  0.136815198560E+00  0.210526315790E+00  0.119697788720E-01
  0.232285756820E+00  0.210526315790E+00  0.203223704200E-01
  0.356709455100E+00  0.210526315790E+00  0.312080334940E-01
  0.500000000000E+00  0.210526315790E+00  0.437443317630E-01
  0.643290544900E+00  0.210526315790E+00  0.312080334940E-01
  0.767714243180E+00  0.210526315790E+00  0.203223704200E-01
  0.863184801440E+00  0.210526315790E+00  0.119697788720E-01
  0.929717765040E+00  0.210526315790E+00  0.614889880620E-02
  0.973034464140E+00  0.210526315790E+00  0.235917869390E-02
  0.973034464140E+00  0.315789473680E+00 -0.235917869390E-02
  0.100000000000E+01  0.315789473680E+00  0.000000000000E+00
  0.929717765040E+00  0.315789473680E+00 -0.614889880620E-02
  0.863184801440E+00  0.315789473680E+00 -0.119697788720E-01
  0.767714243180E+00  0.315789473680E+00 -0.203223704200E-01
  0.643290544900E+00  0.315789473680E+00 -0.312080334940E-01
  0.500000000000E+00  0.315789473680E+00 -0.437443317630E-01
  0.356709455100E+00  0.315789473680E+00 -0.312080334940E-01
  0.232285756820E+00  0.315789473680E+00 -0.203223704200E-01
  0.136815198560E+00  0.315789473680E+00 -0.119697788720E-01
  0.702822349590E-01  0.315789473680E+00 -0.614889880620E-02
  0.269655358630E-01  0.315789473680E+00 -0.235917869390E-02
  0.000000000000E+00  0.315789473680E+00  0.000000000000E+00
  0.269655358630E-01  0.315789473680E+00  0.235917869390E-02
  0.702822349590E-01  0.315789473680E+00  0.614889880620E-02
  0.136815198560E+00  0.315789473680E+00  0.119697788720E-01
  0.232285756820E+00  0.315789473680E+00  0.203223704200E-01
  0.356709455100E+00  0.315789473680E+00  0.312080334940E-01
  0.500000000000E+00  0.315789473680E+00  0.437443317630E-01
  0.643290544900E+00  0.315789473680E+00  0.312080334940E-01
  0.767714243180E+00  0.315789473680E+00  0.203223704200E-01
  0.863184801440E+00  0.315789473680E+00  0.119697788720E-01
  0.929717765040E+00  0.315789473680E+00  0.614889880620E-02
  0.973034464140E+00  0.315789473680E+00  0.235917869390E-02
  0.973034464140E+00  0.421052631580E+00 -0.235917869390E-02
  0.100000000000E+01  0.421052631580E+00  0.000000000000E+00
  0.929717765040E+00  0.421052631580E+00 -0.614889880620E-02
  0.863184801440E+00  0.421052631580E+00 -0.119697788720E-01
  0.767714243180E+00  0.421052631580E+00 -0.203223704200E-01
  0.643290544900E+00  0.421052631580E+00 -0.312080334940E-01
  0.500000000000E+00  0.421052631580E+00 -0.437443317630E-01
  0.356709455100E+00  0.421052631580E+00 -0.312080334940E-01
  0.232285756820E+00  0.421052631580E+00 -0.203223704200E-01
  0.136815198560E+00  0.421052631580E+00 -0.119697788720E-01
  0.702822349590E-01  0.421052631580E+00 -0.614889880620E-02
  0.269655358630E-01  0.421052631580E+00 -0.235917869390E-02
  0.000000000000E+00  0.421052631580E+00  0.000000000000E+00
  0.269655358630E-01  0.421052631580E+00  0.235917869390E-02
  0.702822349590E-01  0.421052631580E+00  0.614889880620E-02
  0.136815198560E+00  0.421052631580E+00  0.119697788720E-01
  0.232285756820E+00  0.421052631580E+00  0.203223704200E-01
  0.356709455100E+00  0.421052631580E+00  0.312080334940E-01
  0.500000000000E+00  0.421052631580E+00  0.437443317630E-01
  0.643290544900E+00  0.421052631580E+00  0.312080334940E-01
  0.767714243180E+00  0.421052631580E+00  0.203223704200E-01
  0.863184801440E+00  0.421052631580E+00  0.119697788720E-01
  0.929717765040E+00  0.421052631580E+00  0.614889880620E-02
  0.973034464140E+00  0.421052631580E+00  0.235917869390E-02
  0.973034464140E+00  0.526315789470E+00 -0.235917869390E-02
  0.100000000000E+01  0.526315789470E+00  0.000000000000E+00
  0.929717765040E+00  0.526315789470E+00 -0.614889880620E-02
  0.863184801440E+00  0.526315789470E+00 -0.119697788720E-01
  0.767714243180E+00  0.526315789470E+00 -0.203223704200E-01
  0.643290544900E+00  0.526315789470E+00 -0.312080334940E-01
  0.500000000000E+00  0.526315789470E+00 -0.437443317630E-01
  0.356709455100E+00  0.526315789470E+00 -0.312080334940E-01
  0.232285756820E+00  0.526315789470E+00 -0.203223704200E-01
  0.136815198560E+00  0.526315789470E+00 -0.119697788720E-01
  0.702822349590E-01  0.526315789470E+00 -0.614889880620E-02
  0.269655358630E-01  0.526315789470E+00 -0.235917869390E-02
  0.000000000000E+00  0.526315789470E+00  0.000000000000E+00
  0.269655358630E-01  0.526315789470E+00  0.235917869390E-02
  0.702822349590E-01  0.526315789470E+00  0.614889880620E-02
  0.136815198560E+00  0.526315789470E+00  0.119697788720E-01
  0.232285756820E+00  0.526315789470E+00  0.203223704200E-01
  0.356709455100E+00  0.526315789470E+00  0.312080334940E-01
  0.500000000000E+00  0.526315789470E+00  0.437443317630E-01
  0.643290544900E+00  0.526315789470E+00  0.312080334940E-01
  0.767714243180E+00  0.526315789470E+00  0.203223704200E-01
  0.863184801440E+00  0.526315789470E+00  0.119697788720E-01
  0.929717765040E+00  0.526315789470E+00  0.614889880620E-02
  0.973034464140E+00  0.526315789470E+00  0.235917869390E-02
  0.973034464140E+00  0.631578947370E+00 -0.235917869390E-02
  0.100000000000E+01  0.631578947370E+00  0.000000000000E+00
  0.929717765040E+00  0.631578947370E+00 -0.614889880620E-02
  0.863184801440E+00  0.631578947370E+00 -0.119697788720E-01
  0.767714243180E+00  0.631578947370E+00 -0.203223704200E-01
  0.643290544900E+00  0.631578947370E+00 -0.312080334940E-01
  0.500000000000E+00  0.631578947370E+00 -0.437443317630E-01
  0.356709455100E+00  0.631578947370E+00 -0.312080334940E-01
  0.232285756820E+00  0.631578947370E+00 -0.203223704200E-01
  0.136815198560E+00  0.631578947370E+00 -0.119697788720E-01
  0.702822349590E-01  0.631578947370E+00 -0.614889880620E-02
  0.269655358630E-01  0.631578947370E+00 -0.235917869390E-02
  0.000000000000E+00  0.631578947370E+00  0.000000000000E+00
  0.269655358630E-01  0.631578947370E+00  0.235917869390E-02
  0.702822349590E-01  0.631578947370E+00  0.614889880620E-02
  0.136815198560E+00  0.631578947370E+00  0.119697788720E-01
  0.232285756820E+00  0.631578947370E+00  0.203223704200E-01
[...]
CELL_DATA                2176
SCALARS C_p_ise float 1
LOOKUP_TABLE default
  0.742606040551E-03
  0.844082711270E-03
  0.379135704401E-03
  0.473624799078E-03
  0.370531730992E-03
  0.454868681382E-03
  0.357385886081E-03
  0.445022593787E-03
  0.340978824493E-03
  0.366713023098E-03
  0.335427701715E-03
  0.462721620770E-03
  0.363211891946E+00
  0.363088730697E+00
  0.363362794355E+00
  0.363306576162E+00
  0.363463386781E+00
  0.363311163603E+00
  0.363615837055E+00
  0.363116018071E+00
  0.363986644862E+00
  0.362979476711E+00
  0.364455839625E+00
  0.362852657305E+00
 -0.400698750927E-03
 -0.190763106336E-02
 -0.521279306531E-03
 -0.145384399810E-02
 -0.653519956521E-03
 -0.109996371917E-02
 -0.838598435836E-03
 -0.966733091772E-03
 -0.821130953378E-03
 -0.868638589938E-03
 -0.577943215726E-03
 -0.718492160145E-03
 -0.254845321186E+00
 -0.254764170650E+00
 -0.254764652458E+00
 -0.254746800319E+00
 -0.254848067998E+00
 -0.254780786200E+00
 -0.254836165225E+00
 -0.254765725023E+00
 -0.254871003322E+00
 -0.254788726106E+00
 -0.255147909737E+00
 -0.255066932525E+00
  0.669600939703E-03
  0.742577978813E-03
  0.290960177083E-03
  0.379102660049E-03
  0.275220687982E-03
  0.370488148739E-03
  0.274878014980E-03
  0.357329658103E-03
  0.326216651245E-03
  0.340946865800E-03
  0.281452919988E-03
  0.335373650196E-03
  0.363088891006E+00
  0.362799410581E+00
  0.363306497449E+00
  0.362853007653E+00
  0.363310662244E+00
  0.362679690367E+00
  0.363115066050E+00
  0.362480465644E+00
  0.362978370163E+00
  0.362330302912E+00
  0.362851652813E+00
  0.362183801743E+00
  0.226660593318E-03
 -0.401417216355E-03
  0.859037681594E-04
 -0.522074772723E-03
 -0.582539594550E-04
 -0.654194566990E-03
 -0.246003156485E-03
 -0.838930409241E-03
 -0.404532407847E-03
 -0.821157496683E-03
 -0.330018351830E-03
 -0.577813265948E-03
 -0.254764198863E+00
 -0.254743356786E+00
 -0.254746824809E+00
 -0.254731109558E+00
 -0.254780824610E+00
 -0.254707359446E+00
 -0.254765752943E+00
 -0.254691116522E+00
 -0.254788748074E+00
 -0.254717225053E+00
 -0.255066950961E+00
 -0.255018052915E+00
  0.562510924780E-03
  0.669569294574E-03
  0.236312396087E-03
  0.290926206518E-03
  0.213599949345E-03
  0.275183977674E-03
  0.213488021529E-03
  0.274840667227E-03
  0.259840639023E-03
  0.326174268296E-03
  0.200818980940E-03
  0.281360846841E-03
  0.362799622715E+00
  0.362468704337E+00
  0.362853387516E+00
  0.362096482479E+00
  0.362679746856E+00
  0.362108836043E+00
  0.362480330042E+00
  0.362308749572E+00
  0.362330450708E+00
  0.362537349814E+00
  0.362184430160E+00
  0.362786505081E+00
 -0.339349574749E-03
  0.227108563038E-03
 -0.997080062908E-04
  0.859958495150E-04
  0.119931998837E-03
 -0.583574745733E-04
  0.311323550174E-03
 -0.245940747743E-03
  0.319110904400E-03
 -0.404233031651E-03
 -0.103608149077E-03
 -0.329905543664E-03
 -0.254743422681E+00
 -0.254674871405E+00
 -0.254731140362E+00
 -0.254670011479E+00
 -0.254707385352E+00
 -0.254653758759E+00
 -0.254691140129E+00
 -0.254652152431E+00
 -0.254717249255E+00
 -0.254678662306E+00
 -0.255018075463E+00
 -0.254941806477E+00
  0.154871261651E-03
  0.562480937829E-03
  0.163097700869E-03
  0.236280214829E-03
  0.194011122972E-03
  0.213571416345E-03
  0.151486459790E-03
  0.213450083241E-03
  0.162178741884E-03
  0.259769521819E-03
 -0.251155852940E-06
  0.200621242352E-03
  0.362468880942E+00
  0.362015589222E+00
  0.362097112298E+00
  0.361830717437E+00
  0.362109896142E+00
  0.361684450034E+00
  0.362309432740E+00
  0.361774706689E+00
  0.362537309758E+00
  0.361764042357E+00
  0.362785601359E+00
  0.361858334138E+00
  0.530388455737E-03
 -0.339991933400E-03
  0.623303505498E-03
 -0.997061853109E-04
  0.617256276053E-03
  0.120463967814E-03
  0.706939908660E-03
  0.312113313890E-03
  0.546453928880E-03
  0.319528366895E-03
  0.326915597933E-03
 -0.103519394590E-03
 -0.254674988060E+00
 -0.254531288028E+00
 -0.254670059172E+00
 -0.254588144981E+00
 -0.254653783622E+00
 -0.254620253376E+00
 -0.254652174214E+00
 -0.254636292106E+00
 -0.254678685778E+00
 -0.254618053741E+00
 -0.254941827277E+00
 -0.254621457711E+00
 -0.784800683706E-03
  0.154870803412E-03
 -0.133888221634E-03
  0.163089548815E-03
  0.408350138629E-04
  0.193971698894E-03
  0.102208196519E-03
  0.151430495518E-03
  0.314041451729E-04
  0.162064677157E-03
 -0.308056840065E-03
 -0.595192260768E-06
  0.362015965914E+00
  0.361723671309E+00
  0.361831057009E+00
  0.361849035840E+00
  0.361685386158E+00
  0.361769022751E+00
  0.361776302895E+00
  0.361305515788E+00
  0.361765863363E+00
  0.360533497007E+00
  0.361859887956E+00
  0.359618037099E+00
  0.264367072397E-02
  0.531540289607E-03
  0.176103207098E-02
  0.624640736780E-03
  0.102290247429E-02
  0.618402018953E-03
  0.599061703653E-03
  0.707571741812E-03
  0.540168845666E-03
  0.546659313780E-03
  0.667482168925E-03
  0.327248587317E-03
 -0.254531479079E+00
 -0.254321835103E+00
 -0.254588216573E+00
 -0.254507073793E+00
 -0.254620292692E+00
 -0.254581519219E+00
 -0.254636320281E+00
 -0.254507198579E+00
 -0.254618059021E+00
 -0.254395745480E+00
 -0.254621459306E+00
 -0.253878337815E+00
 -0.228814447569E-02
 -0.784771443646E-03
 -0.759291728414E-03
 -0.133847589931E-03
 -0.402723527275E-03
  0.408177693898E-04
 -0.143963609100E-03
  0.102121657638E-03
 -0.175899038525E-03
  0.311861729165E-04
 -0.476940567503E-03
 -0.308362225304E-03
  0.361724086788E+00
  0.361741689159E+00
  0.361849449511E+00
  0.361769570985E+00
  0.361769250235E+00
  0.362118137240E+00
  0.361306417260E+00
  0.362652584376E+00
  0.360535676838E+00
  0.363365186159E+00
  0.359621294326E+00
  0.364036749654E+00
 -0.151075072502E-02
  0.264604992679E-02
 -0.864265345383E-03
  0.176257144228E-02
 -0.181601582924E-03
  0.102349251793E-02
  0.314860189741E-03
  0.599196812545E-03
  0.654095758171E-03
  0.540506669116E-03
  0.637268086298E-03
  0.667794676300E-03
 -0.254322055864E+00
 -0.254147432335E+00
 -0.254507190279E+00
 -0.254392947843E+00
 -0.254581579856E+00
 -0.254380143393E+00
 -0.254507211187E+00
 -0.254148072060E+00
 -0.254395715244E+00
 -0.253914636600E+00
 -0.253878316815E+00
 -0.252683987146E+00
 -0.429930094045E-02
 -0.228817557760E-02
 -0.170421849390E-02
 -0.759259547730E-03
 -0.118730925981E-02
 -0.402699123840E-03
 -0.763430754692E-03
 -0.144062629606E-03
 -0.515332265088E-03
 -0.176146427930E-03
 -0.424729320753E-03
 -0.476982150230E-03
  0.361741844324E+00
  0.361862712901E+00
  0.361769962443E+00
  0.361994755940E+00
  0.362118419845E+00
  0.362387678710E+00
  0.362652479724E+00
  0.362958202232E+00
  0.363365117349E+00
  0.363516188868E+00
  0.364037398942E+00
  0.364207778520E+00
 -0.167338068016E-02
 -0.151028244284E-02
 -0.100562446338E-02
 -0.864324606034E-03
 -0.468937975540E-03
 -0.181662230747E-03
  0.726901499757E-04
  0.315096070153E-03
  0.433186692134E-03
  0.654378770396E-03
  0.519269468824E-03
  0.637329499954E-03
 -0.254147515435E+00
 -0.254145341546E+00
 -0.254393099845E+00
 -0.254119717837E+00
 -0.254380198909E+00
 -0.253926872925E+00
 -0.254148058521E+00
 -0.253484716294E+00
 -0.253914612606E+00
 -0.253184156875E+00
 -0.252684007609E+00
 -0.251084796624E+00
 -0.801901434432E-02
 -0.429962737306E-02
 -0.311173202013E-02
 -0.170437076580E-02
 -0.225511369590E-02
 -0.118731698070E-02
 -0.165557605724E-02
 -0.763459550769E-03
 -0.996521751068E-03
 -0.515393221174E-03
 -0.516636481371E-03
 -0.424608256960E-03
  0.361862667664E+00
  0.362190506965E+00
  0.361994833258E+00
  0.362408034182E+00
  0.362387829225E+00
  0.362239874697E+00
  0.362958218652E+00
  0.361389127178E+00
  0.363515523827E+00
  0.360143308324E+00
  0.364205230497E+00
  0.358758643258E+00
  0.344979060617E-02
 -0.167515615283E-02
  0.211769644868E-02
 -0.100605076907E-02
  0.924920273682E-03
 -0.468909186127E-03
  0.143515209072E-03
  0.728025796949E-04
  0.993250026311E-05
  0.433218119319E-03
  0.261211060439E-03
  0.519250640932E-03
 -0.254145278598E+00
 -0.254068247688E+00
 -0.254119774030E+00
 -0.253702381775E+00
 -0.253926880963E+00
 -0.253214715204E+00
 -0.253484723817E+00
 -0.252651979249E+00
 -0.253184266561E+00
 -0.252086123824E+00
 -0.251085025430E+00
 -0.248094119005E+00
 -0.148516179364E-01
 -0.802064696214E-02
 -0.583617032594E-02
 -0.311263449894E-02
 -0.396895127866E-02
 -0.225535026268E-02
 -0.263623757520E-02
 -0.165560877032E-02
 -0.170357741088E-02
 -0.996468967530E-03
 -0.847911719006E-03
 -0.516471226168E-03
  0.362190529182E+00
  0.362377387853E+00
  0.362407964457E+00
  0.362486531063E+00
  0.362239886503E+00
  0.361955589922E+00
  0.361389683694E+00
  0.362173541730E+00
  0.360145907089E+00
  0.362771900938E+00
  0.358764126107E+00
  0.363517227389E+00
 -0.102387683908E-02
  0.345380002467E-02
 -0.304960848320E-03
  0.211951089962E-02
  0.269857181622E-03
  0.925261587082E-03
  0.446097551246E-03
  0.143513673711E-03
 -0.976774615083E-04
  0.987501301499E-05
  0.135799745224E-03
  0.261272280406E-03
 -0.254068120613E+00
 -0.253804762742E+00
 -0.253702349201E+00
 -0.253120154397E+00
 -0.253214742802E+00
 -0.252424284982E+00
 -0.252652162565E+00
 -0.251264423538E+00
 -0.252086799800E+00
 -0.250117110948E+00
 -0.248095203340E+00
 -0.242901670176E+00
 -0.240658974334E-01
 -0.148569462022E-01
 -0.877017409469E-02
 -0.584153794144E-02
 -0.754795892475E-02
 -0.397067566489E-02
 -0.446498964888E-02
 -0.263670515470E-02
 -0.252244697679E-02
 -0.170374553524E-02
 -0.149487310015E-02
 -0.847864568099E-03
  0.362377536613E+00
  0.361789763183E+00
  0.362486475844E+00
  0.362263737140E+00
  0.361955511161E+00
  0.362929841809E+00
  0.362173579367E+00
  0.362989968778E+00
  0.362771998207E+00
  0.362805519987E+00
  0.363518229409E+00
  0.362419269323E+00
  0.116270712313E-04
 -0.102315419549E-02
 -0.361159201007E-03
 -0.304902578245E-03
 -0.539207012195E-03
  0.269891895845E-03
 -0.465733728330E-03
  0.446015215955E-03
  0.207016507093E-03
 -0.977053523700E-04
  0.740208323150E-03
  0.135907478880E-03
 -0.253804739757E+00
 -0.253367923002E+00
 -0.253120266271E+00
 -0.252402501121E+00
 -0.252424650849E+00
 -0.251099441269E+00
 -0.251265491925E+00
 -0.248806225576E+00
 -0.250120139084E+00
 -0.246300437703E+00
 -0.242906656043E+00
 -0.232905141353E+00
 -0.653467491757E-01
 -0.240921248816E-01
 -0.221516359886E-01
 -0.877563651759E-02
 -0.874930457767E-02
 -0.755425387795E-02
 -0.773271688155E-02
 -0.446741092277E-02
 -0.420775749100E-02
 -0.252341750631E-02
 -0.258478744363E-02
 -0.149504861370E-02
  0.361789400053E+00
  0.360423719055E+00
  0.362263969915E+00
  0.362204430629E+00
  0.362929755343E+00
  0.362929953823E+00
  0.362989915472E+00
  0.363330922755E+00
  0.362805526553E+00
  0.363883027844E+00
  0.362419269950E+00
  0.364476003518E+00
 -0.192343336757E-02
  0.116281804272E-04
 -0.135237429956E-02
 -0.361156635030E-03
 -0.824499785376E-03
 -0.539247865831E-03
 -0.448861624562E-03
 -0.465790942840E-03
  0.290063943673E-03
  0.207227974033E-03
  0.214366840824E-02
  0.739746804061E-03
 -0.253368168922E+00
 -0.252643078496E+00
 -0.252403121946E+00
 -0.251110029344E+00
 -0.251101088817E+00
 -0.247872679904E+00
 -0.248813104690E+00
 -0.243654910340E+00
 -0.246317592014E+00
 -0.245012164526E+00
 -0.232915672422E+00
 -0.225165682847E+00
 -0.988922260252E-01
 -0.657729742276E-01
 -0.540219667919E-01
 -0.224260673017E-01
 -0.432502245576E-01
 -0.878220660798E-02
 -0.129169446664E-01
 -0.774077340380E-02
 -0.739853224167E-02
 -0.421058015803E-02
 -0.487408029401E-02
 -0.258471825364E-02
  0.360421316696E+00
  0.359270118498E+00
  0.362203985576E+00
  0.360768113466E+00
  0.362930015440E+00
  0.362032422320E+00
  0.363330584240E+00
  0.362456569211E+00
  0.363882206505E+00
  0.362534009432E+00
  0.364474661311E+00
  0.362444115407E+00
 -0.163418198392E-04
 -0.192438440632E-02
 -0.101919768789E-03
 -0.135294607126E-02
 -0.261308954026E-04
 -0.824723810504E-03
  0.414785920990E-03
 -0.448804799182E-03
  0.170496286724E-02
  0.289598651604E-03
  0.326468116833E-02
  0.214147612169E-02
 -0.252643330362E+00
 -0.251013428963E+00
 -0.251112048122E+00
 -0.247467934532E+00
 -0.247882323091E+00
 -0.248003370489E+00
 -0.243649415980E+00
 -0.248528548930E+00
 -0.244991526775E+00
 -0.247547837389E+00
 -0.225128752647E+00
 -0.218078488186E+00
 -0.124963410416E+00
 -0.995156298132E-01
 -0.755157278201E-01
 -0.545982118355E-01
 -0.659569513480E-01
 -0.436746448339E-01
 -0.479594252838E-01
 -0.130067349057E-01
 -0.184827601885E-01
 -0.740432353069E-02
 -0.835418883094E-02
 -0.487461207167E-02
  0.359258311645E+00
  0.356652735704E+00
  0.360765552953E+00
  0.359112697112E+00
  0.362032479105E+00
  0.359621332882E+00
  0.362457022686E+00
  0.360588002747E+00
  0.362533921703E+00
  0.361375848545E+00
  0.362444078151E+00
  0.362573766802E+00
 -0.143730473037E-03
 -0.163719841767E-04
  0.101452957515E-02
 -0.101974939714E-03
  0.178271607549E-02
 -0.257773019381E-04
  0.271378580895E-02
  0.414707619608E-03
  0.317944688399E-02
  0.170286863275E-02
  0.596600300485E-02
  0.325434026421E-02
 -0.251015223349E+00
 -0.247437672443E+00
 -0.247474364989E+00
 -0.248670599437E+00
 -0.248003058228E+00
 -0.251949356399E+00
 -0.248526835426E+00
 -0.248832151664E+00
 -0.247548559696E+00
 -0.246850035065E+00
 -0.218074521331E+00
 -0.207827655888E+00
 -0.164207773762E+00
 -0.125875675581E+00
 -0.957754504644E-01
 -0.763592137420E-01
 -0.846540108106E-01
 -0.666085828966E-01
 -0.711929079669E-01
 -0.482846431551E-01
 -0.534272274316E-01
 -0.185043884235E-01
 -0.180839556146E-01
 -0.836382857798E-02
  0.356602331997E+00
  0.350824676694E+00
  0.359103735454E+00
  0.356617918530E+00
  0.359619540390E+00
  0.358230860386E+00
  0.360588904701E+00
  0.357641671094E+00
  0.361378041049E+00
  0.355402486780E+00
  0.362573645210E+00
  0.352723627294E+00
  0.914705935159E-02
 -0.143710682935E-03
  0.656104797573E-02
  0.101614185502E-02
  0.442213521967E-02
  0.178327317495E-02
  0.395287192905E-02
  0.271233202951E-02
  0.578620710422E-02
  0.317171387579E-02
  0.114064998477E-01
  0.592510965546E-02
 -0.247439598196E+00
 -0.246490089021E+00
 -0.248687604247E+00
 -0.252931807427E+00
 -0.251954493061E+00
 -0.251498050693E+00
 -0.248839416992E+00
 -0.248046155412E+00
 -0.246858552532E+00
 -0.244392146933E+00
 -0.207832051174E+00
 -0.186449296659E+00
 -0.219546201559E+00
 -0.165759512664E+00
 -0.127477053527E+00
 -0.972039484751E-01
 -0.108123036805E+00
 -0.856497144154E-01
 -0.913020643045E-01
 -0.717982851389E-01
 -0.740824150428E-01
 -0.538007110232E-01
 -0.611835577163E-01
 -0.180139348785E-01
  0.350706738662E+00
  0.344196170510E+00
  0.356577838321E+00
  0.351463281467E+00
  0.358220934591E+00
  0.356827843252E+00
  0.357635100294E+00
  0.359383895696E+00
  0.355394788352E+00
  0.361015791881E+00
  0.352712488311E+00
  0.362411693473E+00
 -0.372343781362E-04
  0.913916235399E-02
  0.132886270351E-02
  0.655562019378E-02
  0.292720093911E-02
  0.441743584599E-02
  0.549703882895E-02
  0.394514489091E-02
  0.981939385525E-02
  0.576011453400E-02
  0.244529007389E-01
  0.112137795863E-01
 -0.246591773591E+00
 -0.256720520100E+00
 -0.252939927657E+00
 -0.252280768511E+00
 -0.251508481729E+00
 -0.251299379294E+00
 -0.248055626384E+00
 -0.243488215910E+00
 -0.244414645435E+00
 -0.233348879298E+00
 -0.186479243854E+00
 -0.141027418163E+00
 -0.248989788946E+00
 -0.220195129750E+00
 -0.115246933338E+00
 -0.129765130033E+00
 -0.136256920969E+00
 -0.109981548592E+00
 -0.116845172990E+00
 -0.925152632207E-01
 -0.954111502487E-01
 -0.748091132958E-01
 -0.867640258141E-01
 -0.613364792092E-01
  0.341945989623E+00
  0.292599900826E+00
  0.351363911881E+00
  0.346029648617E+00
  0.356784139702E+00
  0.353457756579E+00
  0.359363933494E+00
  0.359659119816E+00
  0.361004091312E+00
  0.361680668644E+00
  0.362411817409E+00
  0.362420202184E+00
 -0.453227814439E-04
 -0.371439326605E-04
  0.677417380551E-03
  0.132010905524E-02
  0.266877255508E-02
  0.291230873953E-02
  0.798165218736E-02
  0.546788054015E-02
  0.247865771361E-01
  0.961210167087E-02
  0.140956856512E-01
  0.244197366050E-01
 -0.256741566265E+00
 -0.256168974452E+00
 -0.252303611529E+00
 -0.252779147914E+00
 -0.251317319997E+00
 -0.245700378402E+00
 -0.243531448263E+00
 -0.216841691679E+00
 -0.233596518055E+00
 -0.170627750552E+00
 -0.141907724786E+00
 -0.432239975455E-02
 -0.352163578277E+00
 -0.248859379094E+00
 -0.127918446301E+00
 -0.115354063924E+00
 -0.108194833053E+00
 -0.137389356949E+00
 -0.124433947827E+00
 -0.118875523896E+00
 -0.122636512999E+00
 -0.966523708166E-01
 -0.104796241329E+00
 -0.879168112923E-01
  0.286596366753E+00
  0.246407901679E+00
  0.343825657798E+00
  0.291443459812E+00
  0.353314869109E+00
  0.344932913517E+00
  0.359608149005E+00
  0.352313385331E+00
  0.361670154183E+00
  0.357798281235E+00
  0.362420231158E+00
  0.360760365570E+00
  0.148537324144E-02
 -0.453254292845E-04
  0.406712788806E-02
  0.670088757838E-03
  0.942669718613E-02
  0.263163332410E-02
  0.270055973004E-01
  0.773552395979E-02
  0.126239809504E-01
  0.247321610453E-01
  0.827600941446E-02
  0.142841388795E-01
 -0.256141355682E+00
 -0.250296533395E+00
 -0.252809305871E+00
 -0.246587883169E+00
 -0.245770379035E+00
 -0.190272225715E+00
 -0.218052556506E+00
 -0.136199228614E+00
 -0.174217725235E+00
 -0.100561710862E+00
 -0.100028499160E-01
  0.188546605432E+00
 -0.530123606430E+00
 -0.354110421243E+00
 -0.178693691217E+00
 -0.131743499826E+00
 -0.132651894593E+00
 -0.111217331867E+00
 -0.109843717999E+00
 -0.127360445311E+00
 -0.119565008973E+00
 -0.126822837463E+00
 -0.137294797762E+00
 -0.107721990748E+00
  0.236308112699E+00
  0.212762379837E+00
  0.283054276766E+00
  0.229622920376E+00
  0.341769637905E+00
  0.262334685505E+00
  0.352065231919E+00
  0.328362668329E+00
  0.357749851878E+00
  0.346529931754E+00
  0.360747860070E+00
  0.365475967066E+00
 -0.800996602635E-03
  0.147331045564E-02
  0.226176896564E-01
  0.399786997783E-02
  0.345921451184E-01
  0.914767928283E-02
  0.133908680383E-01
  0.269302290310E-01
  0.922160354904E-02
  0.128032448048E-01
  0.113318339914E-01
  0.822966860512E-02
 -0.250315506022E+00
 -0.241744356487E+00
 -0.246681822744E+00
 -0.174140821179E+00
 -0.192698374503E+00
 -0.112835919492E+00
 -0.142677807257E+00
 -0.614360247075E-01
 -0.111744846949E+00
 -0.123916754200E-01
  0.171067267063E+00
  0.553783329788E+00
 -0.349438413996E+00
 -0.533441125135E+00
 -0.263222694077E+00
 -0.192636753859E+00
 -0.200616910664E+00
 -0.144250970857E+00
 -0.149300020618E+00
 -0.119545880131E+00
 -0.106107411718E+00
 -0.131388372134E+00
 -0.136632190742E+00
 -0.150456584080E+00
  0.184629952408E+00
  0.160686269470E+00
  0.204234318276E+00
  0.167787987381E+00
  0.242327343161E+00
  0.171690681364E+00
  0.317001589374E+00
  0.173325296786E+00
  0.343448334793E+00
  0.167727037375E+00
  0.365259309036E+00
  0.160684881744E+00
  0.651515313598E-01
 -0.767341146356E-03
  0.539100868543E-01
  0.226329302669E-01
  0.385106270313E-01
  0.346563321241E-01
  0.258588504343E-01
  0.135789281943E-01
  0.259958462452E-01
  0.891504444759E-02
  0.216275133428E-01
  0.106232527794E-01
 -0.242052515025E+00
 -0.153300628081E+00
 -0.178780184695E+00
 -0.641601642823E-01
 -0.133918437259E+00
 -0.392473317277E-01
 -0.100466852408E+00
 -0.739832112360E-02
 -0.667212524264E-01
  0.472320006328E-01
  0.469490281794E+00
  0.209049306565E+00
 -0.543945062274E+00
 -0.506789814477E+00
 -0.414554585845E+00
 -0.385227045995E+00
 -0.302240679284E+00
 -0.275576820581E+00
 -0.214535416196E+00
 -0.188949115842E+00
 -0.149230835518E+00
 -0.170649800978E+00
 -0.182360421785E+00
  0.702248323250E-01
  0.744113603504E-01
  0.755386672415E-01
  0.820472000905E-01
  0.801924869272E-01
  0.883041681869E-01
  0.858225214672E-01
  0.947309731008E-01
  0.899372866965E-01
  0.971456584346E-01
  0.922197263354E-01
  0.641017305516E-01
  0.554963997850E-01
  0.538205147025E-01
  0.430786747069E-01
  0.380107176032E-01
  0.300663116352E-01
  0.233625143102E-01
  0.264933294878E-01
  0.219098828793E-01
  0.222924041989E-01
  0.151937704918E-01
 -0.155629126120E+00
 -0.189004611294E+00
 -0.129094918429E+00