# vtk DataFile Version 3.0
MachLine results file. Generated by MachLine, USU AeroLab (c) 2022.
ASCII
DATASET POLYDATA
POINTS                 419 float
  0.100000000000E+01  0.000000000000E+00  0.000000000000E+00
  0.953837434700E+00  0.222222222220E+00 -0.403870114270E-02
  0.100000000000E+01  0.222222222220E+00  0.000000000000E+00
  0.953837434700E+00  0.000000000000E+00 -0.403870114270E-02
  0.863184801440E+00  0.222222222220E+00 -0.119697788720E-01
  0.863184801440E+00  0.000000000000E+00 -0.119697788720E-01
  0.708754398800E+00  0.222222222220E+00 -0.254806884070E-01
  0.708754398800E+00  0.000000000000E+00 -0.254806884070E-01
  0.500000000000E+00  0.222222222220E+00 -0.437443317630E-01
  0.500000000000E+00  0.000000000000E+00 -0.437443317630E-01
  0.291245601200E+00  0.000000000000E+00 -0.254806884070E-01
  0.291245601200E+00  0.222222222220E+00 -0.254806884070E-01
  0.136815198560E+00  0.000000000000E+00 -0.119697788720E-01
  0.136815198560E+00  0.222222222220E+00 -0.119697788720E-01
  0.461625652960E-01  0.000000000000E+00 -0.403870114270E-02
  0.461625652960E-01  0.222222222220E+00 -0.403870114270E-02
  0.000000000000E+00  0.000000000000E+00  0.000000000000E+00
  0.000000000000E+00  0.222222222220E+00  0.000000000000E+00
  0.461625652960E-01  0.222222222220E+00  0.403870114270E-02
  0.461625652960E-01  0.000000000000E+00  0.403870114270E-02
  0.136815198560E+00  0.222222222220E+00  0.119697788720E-01
  0.136815198560E+00  0.000000000000E+00  0.119697788720E-01
  0.291245601200E+00  0.222222222220E+00  0.254806884070E-01
  0.291245601200E+00  0.000000000000E+00  0.254806884070E-01
  0.500000000000E+00  0.222222222220E+00  0.437443317630E-01
  0.500000000000E+00  0.000000000000E+00  0.437443317630E-01
  0.708754398800E+00  0.000000000000E+00  0.254806884070E-01
  0.708754398800E+00  0.222222222220E+00  0.254806884070E-01
  0.863184801440E+00  0.000000000000E+00  0.119697788720E-01
  0.863184801440E+00  0.222222222220E+00  0.119697788720E-01
  0.953837434700E+00  0.000000000000E+00  0.403870114270E-02
  0.953837434700E+00  0.222222222220E+00  0.403870114270E-02
  0.953837434700E+00  0.444444444440E+00 -0.403870114270E-02
  0.100000000000E+01  0.444444444440E+00  0.000000000000E+00
  0.863184801440E+00  0.444444444440E+00 -0.119697788720E-01
  0.708754398800E+00  0.444444444440E+00 -0.254806884070E-01
  0.500000000000E+00  0.444444444440E+00 -0.437443317630E-01
  0.291245601200E+00  0.444444444440E+00 -0.254806884070E-01
  0.136815198560E+00  0.444444444440E+00 -0.119697788720E-01
  0.461625652960E-01  0.444444444440E+00 -0.403870114270E-02
  0.000000000000E+00  0.444444444440E+00  0.000000000000E+00
  0.461625652960E-01  0.444444444440E+00  0.403870114270E-02
  0.136815198560E+00  0.444444444440E+00  0.119697788720E-01
  0.291245601200E+00  0.444444444440E+00  0.254806884070E-01
  0.500000000000E+00  0.444444444440E+00  0.437443317630E-01
  0.708754398800E+00  0.444444444440E+00  0.254806884070E-01
  0.863184801440E+00  0.444444444440E+00  0.119697788720E-01
  0.953837434700E+00  0.444444444440E+00  0.403870114270E-02
  0.953837434700E+00  0.666666666670E+00 -0.403870114270E-02
  0.100000000000E+01  0.666666666670E+00  0.000000000000E+00
  0.863184801440E+00  0.666666666670E+00 -0.119697788720E-01
  0.708754398800E+00  0.666666666670E+00 -0.254806884070E-01
  0.500000000000E+00  0.666666666670E+00 -0.437443317630E-01
  0.291245601200E+00  0.666666666670E+00 -0.254806884070E-01
  0.136815198560E+00  0.666666666670E+00 -0.119697788720E-01
  0.461625652960E-01  0.666666666670E+00 -0.403870114270E-02
  0.000000000000E+00  0.666666666670E+00  0.000000000000E+00
  0.461625652960E-01  0.666666666670E+00  0.403870114270E-02
  0.136815198560E+00  0.666666666670E+00  0.119697788720E-01
  0.291245601200E+00  0.666666666670E+00  0.254806884070E-01
  0.500000000000E+00  0.666666666670E+00  0.437443317630E-01
  0.708754398800E+00  0.666666666670E+00  0.254806884070E-01
  0.863184801440E+00  0.666666666670E+00  0.119697788720E-01
  0.953837434700E+00  0.666666666670E+00  0.403870114270E-02
  0.953837434700E+00  0.888888888890E+00 -0.403870114270E-02
  0.100000000000E+01  0.888888888890E+00  0.000000000000E+00
  0.863184801440E+00  0.888888888890E+00 -0.119697788720E-01
  0.708754398800E+00  0.888888888890E+00 -0.254806884070E-01
  0.500000000000E+00  0.888888888890E+00 -0.437443317630E-01
  0.291245601200E+00  0.888888888890E+00 -0.254806884070E-01
  0.136815198560E+00  0.888888888890E+00 -0.119697788720E-01
  0.461625652960E-01  0.888888888890E+00 -0.403870114270E-02
  0.000000000000E+00  0.888888888890E+00  0.000000000000E+00
  0.461625652960E-01  0.888888888890E+00  0.403870114270E-02
  0.136815198560E+00  0.888888888890E+00  0.119697788720E-01
  0.291245601200E+00  0.888888888890E+00  0.254806884070E-01
  0.500000000000E+00  0.888888888890E+00  0.437443317630E-01
  0.708754398800E+00  0.888888888890E+00  0.254806884070E-01
  0.863184801440E+00  0.888888888890E+00  0.119697788720E-01
  0.953837434700E+00  0.888888888890E+00  0.403870114270E-02
  0.953837434700E+00  0.111111111110E+01 -0.403870114270E-02
  0.100000000000E+01  0.111111111110E+01  0.000000000000E+00
  0.863184801440E+00  0.111111111110E+01 -0.119697788720E-01
  0.708754398800E+00  0.111111111110E+01 -0.254806884070E-01
  0.500000000000E+00  0.111111111110E+01 -0.437443317630E-01
  0.291245601200E+00  0.111111111110E+01 -0.254806884070E-01
  0.136815198560E+00  0.111111111110E+01 -0.119697788720E-01
  0.461625652960E-01  0.111111111110E+01 -0.403870114270E-02
  0.000000000000E+00  0.111111111110E+01  0.000000000000E+00
  0.461625652960E-01  0.111111111110E+01  0.403870114270E-02
  0.136815198560E+00  0.111111111110E+01  0.119697788720E-01
  0.291245601200E+00  0.111111111110E+01  0.254806884070E-01
  0.500000000000E+00  0.111111111110E+01  0.437443317630E-01
  0.708754398800E+00  0.111111111110E+01  0.254806884070E-01
  0.863184801440E+00  0.111111111110E+01  0.119697788720E-01
  0.953837434700E+00  0.111111111110E+01  0.403870114270E-02
  0.953837434700E+00  0.133333333330E+01 -0.403870114270E-02
  0.100000000000E+01  0.133333333330E+01  0.000000000000E+00
  0.863184801440E+00  0.133333333330E+01 -0.119697788720E-01
  0.708754398800E+00  0.133333333330E+01 -0.254806884070E-01
  0.500000000000E+00  0.133333333330E+01 -0.437443317630E-01
  0.291245601200E+00  0.133333333330E+01 -0.254806884070E-01
  0.136815198560E+00  0.133333333330E+01 -0.119697788720E-01
  0.461625652960E-01  0.133333333330E+01 -0.403870114270E-02
  0.000000000000E+00  0.133333333330E+01  0.000000000000E+00
  0.461625652960E-01  0.133333333330E+01  0.403870114270E-02
  0.136815198560E+00  0.133333333330E+01  0.119697788720E-01
  0.291245601200E+00  0.133333333330E+01  0.254806884070E-01
  0.500000000000E+00  0.133333333330E+01  0.437443317630E-01
  0.708754398800E+00  0.133333333330E+01  0.254806884070E-01
  0.863184801440E+00  0.133333333330E+01  0.119697788720E-01
  0.953837434700E+00  0.133333333330E+01  0.403870114270E-02
  0.953837434700E+00  0.155555555560E+01 -0.403870114270E-02
  0.100000000000E+01  0.155555555560E+01  0.000000000000E+00
  0.863184801440E+00  0.155555555560E+01 -0.119697788720E-01
  0.708754398800E+00  0.155555555560E+01 -0.254806884070E-01
  0.500000000000E+00  0.155555555560E+01 -0.437443317630E-01
  0.291245601200E+00  0.155555555560E+01 -0.254806884070E-01
  0.136815198560E+00  0.155555555560E+01 -0.119697788720E-01
  0.461625652960E-01  0.155555555560E+01 -0.403870114270E-02
  0.000000000000E+00  0.155555555560E+01  0.000000000000E+00
  0.461625652960E-01  0.155555555560E+01  0.403870114270E-02
  0.136815198560E+00  0.155555555560E+01  0.119697788720E-01
  0.291245601200E+00  0.155555555560E+01  0.254806884070E-01
  0.500000000000E+00  0.155555555560E+01  0.437443317630E-01
  0.708754398800E+00  0.155555555560E+01  0.254806884070E-01
  0.863184801440E+00  0.155555555560E+01  0.119697788720E-01
  0.953837434700E+00  0.155555555560E+01  0.403870114270E-02
  0.953837434700E+00  0.177777777780E+01 -0.403870114270E-02
  0.100000000000E+01  0.177777777780E+01  0.000000000000E+00
  0.863184801440E+00  0.177777777780E+01 -0.119697788720E-01
  0.708754398800E+00  0.177777777780E+01 -0.254806884070E-01
  0.500000000000E+00  0.177777777780E+01 -0.437443317630E-01
  0.291245601200E+00  0.177777777780E+01 -0.254806884070E-01
  0.136815198560E+00  0.177777777780E+01 -0.119697788720E-01
  0.461625652960E-01  0.177777777780E+01 -0.403870114270E-02
  0.000000000000E+00  0.177777777780E+01  0.000000000000E+00
  0.461625652960E-01  0.177777777780E+01  0.403870114270E-02
  0.136815198560E+00  0.177777777780E+01  0.119697788720E-01
  0.291245601200E+00  0.177777777780E+01  0.254806884070E-01
  0.500000000000E+00  0.177777777780E+01  0.437443317630E-01
  0.708754398800E+00  0.177777777780E+01  0.254806884070E-01
  0.863184801440E+00  0.177777777780E+01  0.119697788720E-01
  0.953837434700E+00  0.177777777780E+01  0.403870114270E-02
  0.953837434700E+00  0.200000000000E+01 -0.403870114270E-02
  0.100000000000E+01  0.200000000000E+01  0.000000000000E+00
  0.863184801440E+00  0.200000000000E+01 -0.119697788720E-01
  0.708754398800E+00  0.200000000000E+01 -0.254806884070E-01
  0.500000000000E+00  0.200000000000E+01 -0.437443317630E-01
  0.291245601200E+00  0.200000000000E+01 -0.254806884070E-01
  0.136815198560E+00  0.200000000000E+01 -0.119697788720E-01
  0.461625652960E-01  0.200000000000E+01 -0.403870114270E-02
  0.000000000000E+00  0.200000000000E+01  0.000000000000E+00
  0.461625652960E-01  0.200000000000E+01  0.403870114270E-02
  0.136815198560E+00  0.200000000000E+01  0.119697788720E-01
  0.291245601200E+00  0.200000000000E+01  0.254806884070E-01
  0.500000000000E+00  0.200000000000E+01  0.437443317630E-01
  0.708754398800E+00  0.200000000000E+01  0.254806884070E-01
  0.863184801440E+00  0.200000000000E+01  0.119697788720E-01
  0.953837434700E+00  0.200000000000E+01  0.403870114270E-02
  0.953837434700E+00  0.200157141480E+01 -0.372111000410E-02
[...]
CELL_DATA                 800
SCALARS C_p_ise float 1
LOOKUP_TABLE default
 -0.168633470534E-04
 -0.666219501415E-05
 -0.198904812490E-05
 -0.617621376304E-06
 -0.647719695498E-06
 -0.202414903569E-06
 -0.200829602868E-06
 -0.596344797749E-07
  0.253768638487E+00
  0.253768552498E+00
  0.253768660481E+00
  0.253768637829E+00
  0.253768666736E+00
  0.253768664986E+00
  0.253768667121E+00
  0.253768667071E+00
  0.526165619011E-10
  0.761668506044E-11
  0.199261107614E-08
  0.363059582398E-09
  0.284182100074E-07
  0.646026073906E-08
  0.119090639334E-06
  0.298439762585E-07
 -0.150091499408E+00
 -0.150091401301E+00
 -0.150091382048E+00
 -0.150091019886E+00
 -0.150091088424E+00
 -0.150090083094E+00
 -0.150086493427E+00
 -0.150078784239E+00
 -0.960254399091E-04
 -0.168633630456E-04
 -0.126319537881E-04
 -0.198905237023E-05
 -0.422283301699E-05
 -0.647720407706E-06
 -0.135829023025E-05
 -0.200829705564E-06
  0.253768552498E+00
  0.253767859128E+00
  0.253768637829E+00
  0.253768440433E+00
  0.253768664986E+00
  0.253768645914E+00
  0.253768667071E+00
  0.253768666324E+00
  0.721001036652E-09
  0.526165619011E-10
  0.197450632035E-07
  0.199261107614E-08
  0.219790659323E-06
  0.284182052493E-07
  0.836994074049E-06
  0.119090471928E-06
 -0.150091401301E+00
 -0.150090588428E+00
 -0.150091019887E+00
 -0.150088129251E+00
 -0.150090083097E+00
 -0.150082286970E+00
 -0.150078784250E+00
 -0.150018933781E+00
 -0.564248435256E-03
 -0.960260458595E-04
 -0.787291992748E-04
 -0.126321341656E-04
 -0.273654844072E-04
 -0.422286487413E-05
 -0.914280753800E-05
 -0.135829503141E-05
  0.253767859120E+00
  0.253763128118E+00
  0.253768440433E+00
  0.253766943482E+00
  0.253768645914E+00
  0.253768458792E+00
  0.253768666324E+00
  0.253768655978E+00
  0.998003909672E-08
  0.721001036652E-09
  0.193728307919E-06
  0.197450617761E-07
  0.166242369593E-05
  0.219790367890E-06
  0.569543520377E-05
  0.836986067121E-06
 -0.150090588433E+00
 -0.150085084307E+00
 -0.150088129274E+00
 -0.150069376529E+00
 -0.150082287105E+00
 -0.150033964162E+00
 -0.150018934197E+00
 -0.149665054959E+00
 -0.298039451596E-02
 -0.564269701479E-03
 -0.453688389578E-03
 -0.787361683503E-04
 -0.167067206132E-03
 -0.273668229498E-04
 -0.588114723348E-04
 -0.914302055705E-05
  0.253763127752E+00
  0.253732458661E+00
  0.253766943464E+00
  0.253755998543E+00
  0.253768458792E+00
  0.253766650840E+00
  0.253768655978E+00
  0.253768512665E+00
  0.138259475773E-06
  0.998003909672E-08
  0.187751135091E-05
  0.193728179689E-06
  0.122886882331E-04
  0.166240717715E-05
  0.371019874492E-04
  0.569507934105E-05
 -0.150085084522E+00
 -0.150050207235E+00
 -0.150069377487E+00
 -0.149957359308E+00
 -0.150033969321E+00
 -0.149758969004E+00
 -0.149665069567E+00
 -0.147827238825E+00
 -0.129890394461E-01
 -0.298099489741E-02
 -0.231184246858E-02
 -0.453912075736E-03
 -0.926868539783E-03
 -0.167115095189E-03
 -0.345081435999E-03
 -0.588201125940E-04
  0.253732443745E+00
  0.253545442356E+00
  0.253755997531E+00
  0.253677686105E+00
  0.253766650825E+00
  0.253749446673E+00
  0.253768512665E+00
  0.253766526097E+00
  0.191426532665E-05
  0.138259441673E-06
  0.177483539611E-04
  0.187749955416E-05
  0.859005793033E-04
  0.122878410496E-04
  0.226407387648E-03
  0.370879969378E-04
 -0.150050215619E+00
 -0.149841173896E+00
 -0.149957395106E+00
 -0.149341428247E+00
 -0.149759139915E+00
 -0.148439512598E+00
 -0.147827651586E+00
 -0.140150370940E+00
 -0.446023969941E-01
 -0.129994175814E-01
 -0.837760494099E-02
 -0.231752569797E-02
 -0.432568705831E-02
 -0.928461681093E-03
 -0.196905938322E-02
 -0.345377136158E-03
  0.253544927675E+00
  0.252501576221E+00
  0.253677640496E+00
  0.253179611318E+00
  0.253749445412E+00
  0.253594218686E+00
  0.253766526088E+00
  0.253739107066E+00
  0.266043284990E-04
  0.191425870028E-05
  0.165233393673E-03
  0.177472802643E-04
  0.590113593995E-03
  0.858570922549E-04
  0.124977379936E-02
  0.225931172041E-03
 -0.149841455723E+00
 -0.148803177225E+00
 -0.149342441649E+00
 -0.146618863921E+00
 -0.148443482777E+00
 -0.142897492748E+00
 -0.140159251425E+00
 -0.113225913687E+00
 -0.145084407609E+00
 -0.448919557412E-01
 -0.476395695112E-01
 -0.848083571516E-02
 -0.206456628227E-01
 -0.434569158520E-02
 -0.634830346265E-02
 -0.197677883893E-02
  0.252487560576E+00
  0.247935679198E+00
  0.253177228904E+00
  0.249817272834E+00
  0.253594102134E+00
  0.252165351102E+00
  0.253739105346E+00
  0.253351096250E+00
  0.361711579007E-03
  0.266031084020E-04
  0.137043331359E-02
  0.165154184030E-03
  0.325886947541E-02
  0.588649781816E-03
  0.644925466892E-02
  0.123647794654E-02
 -0.148811026342E+00
 -0.143038661560E+00
 -0.146649789176E+00
 -0.142427846261E+00
 -0.142943672504E+00
 -0.140680665431E+00
 -0.113254402175E+00
 -0.500254678382E-01
 -0.287208114927E+00
 -0.148124141572E+00
 -0.113323053822E+00
 -0.504593280178E-01
 -0.794462152383E-01
 -0.219159195358E-01
 -0.547951351228E-01
 -0.653499398446E-02
  0.247623618066E+00
  0.224241922166E+00
  0.249778011405E+00
  0.238741731747E+00
  0.252159985045E+00
  0.243531014075E+00
  0.253350843019E+00
  0.248645720904E+00
  0.559567276147E-02
  0.361416201681E-03
  0.130097674800E-01
  0.136199393849E-02
  0.219885402810E-01
  0.317157155710E-02
  0.138804706279E-01
  0.628455759704E-02
 -0.143116626389E+00
 -0.152197050657E+00
 -0.142406165707E+00
 -0.136531887203E+00
 -0.140682278780E+00
 -0.108254873262E+00
 -0.500520350144E-01
  0.224077395870E+00
 -0.194367222404E+00
 -0.287961099898E+00
 -0.133165290325E+00
 -0.117907947049E+00
 -0.839302481406E-01
 -0.862227777246E-01
 -0.863103436992E-01
 -0.616291942677E-01
  0.211343567409E+00
  0.134536616267E+00
  0.233408071299E+00
  0.135655984709E+00
  0.242227015573E+00
  0.134047944163E+00
  0.248484086769E+00
  0.132513978108E+00
  0.322157525044E-01
  0.558829717657E-02
  0.288779606302E-01
  0.129749111013E-01
  0.225699222327E-01
  0.219590034281E-01
  0.126447450367E-01
  0.139390046748E-01
 -0.152182371157E+00
 -0.847662472309E-01
 -0.137907556174E+00
  0.116313219999E-01
 -0.116675011379E+00
  0.696429004302E-01
  0.195820200762E+00
  0.176807300170E+00
 -0.262686733819E+00
 -0.224683108756E+00
 -0.178403784913E+00
 -0.144464204506E+00
 -0.108828296130E+00
 -0.109193673505E+00
 -0.115096949803E+00
  0.636053342733E-01
  0.665625451790E-01
  0.656256735897E-01
  0.686315733617E-01
  0.672264668394E-01
  0.691923275091E-01
  0.681524884187E-01
  0.321906373825E-01
  0.297636009027E-01
  0.288733963203E-01
  0.246300979114E-01
  0.222506051415E-01
  0.159224012611E-01
  0.110804085644E-01
 -0.877311407937E-01
 -0.127797986845E+00
 -0.698846526851E-01
 -0.170533000736E+00
 -0.143401962111E+00
 -0.270407425317E+00
 -0.242961351165E+00
 -0.316645271382E+00
 -0.300689192174E+00
 -0.226772120873E+00
 -0.206964803303E+00
 -0.136903235507E+00
 -0.140841671942E+00
 -0.109081021944E+00
  0.351821261919E-01
  0.390387260684E-01
  0.391407001037E-01
  0.425530796944E-01
  0.419945380463E-01
  0.441750581300E-01
  0.436430549082E-01
  0.278264778708E-01
  0.262056025723E-01
  0.242541100484E-01
  0.214783873548E-01
  0.174200522102E-01
  0.132209582292E-01
  0.646704546443E-02
 -0.835153562106E-01
 -0.148480382706E+00
 -0.114831222362E+00
 -0.235380187728E+00
 -0.225231108413E+00
 -0.334200677085E+00
 -0.326945792422E+00
 -0.343777339529E+00
 -0.339398358505E+00
 -0.261912055351E+00
 -0.253332356967E+00
 -0.155632809762E+00
 -0.166704064028E+00
 -0.101711347833E+00
  0.152394126987E-01
  0.189898368217E-01
  0.200696518439E-01
  0.232430687264E-01
  0.234447822729E-01
  0.254691993853E-01
  0.253973122723E-01
  0.195759816029E-01
  0.186240669395E-01
  0.161930323987E-01
  0.145823699247E-01
  0.995809267788E-02
  0.741456705876E-02
  0.277939348457E-03
 -0.881115232283E-01
 -0.163293095242E+00
 -0.147071507647E+00
 -0.267705454868E+00
 -0.267596881366E+00
 -0.350523178841E+00
 -0.349315737078E+00
 -0.352494305781E+00
 -0.351974898246E+00
 -0.280089751847E+00
 -0.279847708668E+00
 -0.162623137277E+00
 -0.183718110674E+00
 -0.919633467615E-01
  0.301161770667E-02
  0.660869021760E-02
  0.881179205764E-02
  0.117644425925E-01
  0.127716420155E-01
  0.146424387641E-01
  0.150399652332E-01
  0.136377152523E-01
  0.132369009978E-01
  0.107347094821E-01
  0.100578814546E-01
  0.554010291864E-02
  0.429234164918E-02
 -0.231752854896E-02
 -0.967542543284E-01
 -0.169270531512E+00
 -0.165620867791E+00
 -0.277540465975E+00
 -0.284445295356E+00
 -0.353236447181E+00
 -0.353650135164E+00
 -0.167921920942E-04
 -0.666219501415E-05
 -0.198904812601E-05
 -0.617621375907E-06
 -0.647719694388E-06
 -0.202414903569E-06
 -0.200829604375E-06
 -0.596344797749E-07
  0.253768638487E+00
  0.253768552498E+00
  0.253768660481E+00
  0.253768637829E+00
  0.253768666736E+00
  0.253768664986E+00
  0.253768667121E+00
  0.253768667071E+00
  0.526165619011E-10
  0.761668506044E-11
  0.199261083824E-08
  0.363059582398E-09
  0.284182100074E-07
  0.646026073906E-08
  0.119090639889E-06
  0.298439762585E-07
 -0.150091499408E+00
 -0.150091401301E+00
 -0.150091382048E+00
 -0.150091019886E+00
 -0.150091088424E+00
 -0.150090083094E+00
 -0.150086493427E+00
 -0.150078838578E+00
 -0.959308916564E-04
 -0.167922081101E-04
 -0.126319537856E-04
 -0.198905237106E-05
 -0.422283301838E-05
 -0.647720406755E-06
 -0.135829023093E-05
 -0.200829707348E-06
  0.253768552498E+00
  0.253767859128E+00
  0.253768637829E+00
  0.253768440433E+00
  0.253768664986E+00
  0.253768645914E+00
  0.253768667071E+00
  0.253768666324E+00
  0.721001036652E-09
  0.526165619011E-10
  0.197450632035E-07
  0.199261083824E-08
  0.219790659323E-06
  0.284182052493E-07
  0.836994073494E-06
  0.119090472801E-06
 -0.150091401301E+00
 -0.150090588428E+00
 -0.150091019887E+00
 -0.150088129251E+00
 -0.150090083097E+00
 -0.150082286970E+00
 -0.150078838589E+00
 -0.150019006005E+00
 -0.564169395645E-03
 -0.959314976682E-04
 -0.787291992863E-04
 -0.126321341634E-04
 -0.273654844111E-04
 -0.422286487552E-05
 -0.914280753939E-05
 -0.135829503224E-05
  0.253767859120E+00
  0.253763128118E+00
  0.253768440433E+00
  0.253766943482E+00
  0.253768645914E+00
  0.253768458792E+00
  0.253768666324E+00
  0.253768655978E+00
  0.998003909672E-08
  0.721001036652E-09
  0.193728307919E-06
  0.197450617761E-07
  0.166242369593E-05
  0.219790367890E-06
  0.569543520457E-05
  0.836986066804E-06
 -0.150090588433E+00
 -0.150085084307E+00
 -0.150088129274E+00
 -0.150069376529E+00
 -0.150082287105E+00
 -0.150033964162E+00
 -0.150019006421E+00
 -0.149665115433E+00
 -0.298026204081E-02
 -0.564190661625E-03
 -0.453688389654E-03
 -0.787361683622E-04
 -0.167067206167E-03
 -0.273668229536E-04
 -0.588114723443E-04
 -0.914302055843E-05
  0.253763127752E+00
  0.253732458661E+00
  0.253766943464E+00
  0.253755998543E+00
  0.253768458792E+00
  0.253766650840E+00
  0.253768655978E+00
  0.253768512665E+00
  0.138259475773E-06
  0.998003909672E-08
  0.187751135036E-05
  0.193728179689E-06
  0.122886882348E-04
  0.166240717715E-05
  0.371019874556E-04
  0.569507934161E-05
 -0.150085084522E+00
 -0.150050207235E+00
 -0.150069377487E+00
 -0.149957359308E+00
 -0.150033969321E+00
 -0.149758969004E+00
 -0.149665130040E+00
 -0.147827341012E+00
 -0.129889585421E-01
 -0.298086242708E-02
 -0.231184246887E-02
 -0.453912075812E-03
 -0.926868539852E-03
 -0.167115095223E-03
 -0.345081436053E-03
 -0.588201126034E-04
  0.253732443745E+00
  0.253545442356E+00
  0.253755997531E+00
  0.253677686105E+00
  0.253766650825E+00
  0.253749446673E+00
  0.253768512665E+00
  0.253766526097E+00
  0.191426532665E-05
  0.138259441673E-06
  0.177483539617E-04
  0.187749955392E-05
  0.859005793139E-04
  0.122878410513E-04
  0.226407387674E-03
  0.370879969442E-04
 -0.150050215619E+00
 -0.149841173896E+00
 -0.149957395106E+00
 -0.149341428247E+00
 -0.149759139914E+00
 -0.148439512598E+00
 -0.147827753777E+00
 -0.140150435545E+00
 -0.446023625577E-01
 -0.129993366592E-01
 -0.837760494768E-02
 -0.231752569827E-02
 -0.432568705988E-02
 -0.928461681163E-03
 -0.196905938372E-02
 -0.345377136213E-03
  0.253544927675E+00
  0.252501576221E+00
  0.253677640496E+00
  0.253179611318E+00
  0.253749445412E+00
  0.253594218686E+00
  0.253766526088E+00
  0.253739107066E+00
  0.266043284966E-04
  0.191425870028E-05
  0.165233393678E-03
  0.177472802649E-04
  0.590113594157E-03
  0.858570922654E-04
  0.124977379969E-02
  0.225931172067E-03
 -0.149841455723E+00
 -0.148803177225E+00
 -0.149342441649E+00
 -0.146618863921E+00
 -0.148443482776E+00
 -0.142897492743E+00
 -0.140159316013E+00
 -0.113225944524E+00
 -0.145084437799E+00
 -0.448919212669E-01
 -0.476395697765E-01
 -0.848083572164E-02
 -0.206456628007E-01
 -0.434569158675E-02
 -0.634830345841E-02
 -0.197677883945E-02
  0.252487560576E+00
  0.247935679195E+00
  0.253177228904E+00
  0.249817272832E+00
  0.253594102134E+00
  0.252165351102E+00
  0.253739105346E+00
  0.253351096250E+00
  0.361711578978E-03
  0.266031083998E-04
  0.137043331365E-02
  0.165154184036E-03
  0.325886947515E-02
  0.588649781979E-03
  0.644925466864E-02
  0.123647794688E-02
 -0.148811026342E+00
 -0.143038661555E+00
 -0.146649789176E+00
 -0.142427846213E+00
 -0.142943672500E+00
 -0.140680665772E+00
 -0.113254432954E+00
 -0.500254319628E-01
 -0.287208123158E+00
 -0.148124171088E+00
 -0.113323053856E+00
 -0.504593282690E-01
 -0.794462143007E-01
 -0.219159195332E-01
 -0.547951356598E-01
 -0.653499398002E-02
  0.247623618065E+00
  0.224241922168E+00
  0.249778011403E+00
  0.238741731765E+00
  0.252159985044E+00
  0.243531014075E+00
  0.253350843019E+00
  0.248645720904E+00
  0.559567276100E-02
  0.361416201651E-03
  0.130097674813E-01
  0.136199393856E-02
  0.219885403104E-01
  0.317157155664E-02
  0.138804706269E-01
  0.628455759651E-02
 -0.143116626385E+00
 -0.152197050980E+00
 -0.142406165656E+00
 -0.136531886672E+00
 -0.140682279122E+00
 -0.108254873135E+00
 -0.500519989027E-01
  0.224077420439E+00
 -0.194367222034E+00
 -0.287961108198E+00
 -0.133165290147E+00
 -0.117907947127E+00
 -0.839302484575E-01
 -0.862227767575E-01
 -0.863103435805E-01
 -0.616291947767E-01
  0.211343567413E+00
  0.134536616660E+00
  0.233408071288E+00
  0.135655984206E+00
  0.242227015572E+00
  0.134047944138E+00
  0.248484086769E+00
  0.132513978118E+00
  0.322157525023E-01
  0.558829717610E-02
  0.288779606334E-01
  0.129749111026E-01
  0.225699218231E-01
  0.219590034594E-01
  0.126447453730E-01
  0.139390046740E-01
 -0.152182371482E+00
 -0.847662473552E-01
 -0.137907555654E+00
  0.116313223884E-01
 -0.116675011260E+00
  0.696429000658E-01
  0.195820224278E+00
  0.176807300932E+00
 -0.262686733753E+00
 -0.224683108160E+00
 -0.178403787903E+00
 -0.144464210635E+00
 -0.108828291436E+00
 -0.109193666437E+00
 -0.115096949734E+00
  0.636053346713E-01
  0.665625516063E-01
  0.656256817982E-01
  0.686315748598E-01
  0.672264666444E-01
  0.691923274485E-01
  0.681524884240E-01
  0.321906373803E-01
  0.297636009163E-01
  0.288733963230E-01
  0.246300974782E-01
  0.222506047355E-01
  0.159224016245E-01
  0.110804088930E-01
 -0.877311409133E-01
 -0.127797987030E+00
 -0.698846524730E-01
 -0.170533001093E+00
 -0.143401963084E+00
 -0.270407425577E+00
 -0.242961351335E+00
 -0.316645271078E+00
 -0.300689191813E+00
 -0.226772115390E+00
 -0.206964798339E+00
 -0.136903240053E+00
 -0.140841673833E+00
 -0.109081020740E+00
  0.351821250104E-01
  0.390387307558E-01
  0.391407098020E-01
  0.425530830983E-01
  0.419945379856E-01
  0.441750579790E-01
  0.436430548014E-01
  0.278264778456E-01
  0.262056025479E-01
  0.242541100605E-01
  0.214783869939E-01
  0.174200516984E-01
  0.132209584274E-01
  0.646704578871E-02
 -0.835153563356E-01
 -0.148480382726E+00
 -0.114831221928E+00
 -0.235380184517E+00
 -0.225231105103E+00
 -0.334200676800E+00
 -0.326945792096E+00
 -0.343777339131E+00
 -0.339398358013E+00
 -0.261912054723E+00
 -0.253332356124E+00
 -0.155632817856E+00
 -0.166704071725E+00
 -0.101711346648E+00
  0.152394107764E-01
  0.189898351052E-01
  0.200696559975E-01
  0.232430725920E-01
  0.234447826355E-01
  0.254691993557E-01
  0.253973121989E-01
  0.195759816639E-01
  0.186240670885E-01
  0.161930322114E-01
  0.145823692776E-01
  0.995809236449E-02
  0.741456737153E-02
  0.277939787572E-03
 -0.881115232298E-01
 -0.163293095310E+00
 -0.147071507584E+00
 -0.267705455396E+00
 -0.267596881962E+00
 -0.350523178718E+00
 -0.349315736931E+00
 -0.352494305839E+00
 -0.351974898311E+00
 -0.280089751871E+00
 -0.279847708649E+00
 -0.162623136065E+00
 -0.183718109754E+00
 -0.919633475528E-01
  0.301161469154E-02
  0.660868112386E-02
  0.881178612158E-02
  0.117644440581E-01
  0.127716423863E-01
  0.146424387869E-01
  0.150399651254E-01
  0.136377153541E-01
  0.132369012311E-01
  0.107347095042E-01
  0.100578825664E-01
  0.554009757850E-02
  0.429233495247E-02
 -0.231752820880E-02
 -0.967542543244E-01
 -0.169270531513E+00
 -0.165620867630E+00
 -0.277540465583E+00
 -0.284445295045E+00
 -0.353236447184E+00
 -0.353650135166E+00
SCALARS C_p_2nd float 1
LOOKUP_TABLE default
 -0.168633470539E-04
 -0.666219501407E-05
 -0.198904812484E-05
 -0.617621376176E-06
 -0.647719695403E-06
 -0.202414903601E-06
 -0.200829602804E-06
 -0.596344797147E-07
  0.293128378425E+00
  0.293128272049E+00
  0.293128405635E+00
  0.293128377613E+00
  0.293128413372E+00
  0.293128411206E+00
  0.293128413849E+00
  0.293128413787E+00
  0.526165488286E-10
  0.761673695967E-11
  0.199261117623E-08
  0.363059673288E-09
  0.284182101799E-07
  0.646026091212E-08
  0.119090639311E-06
  0.298439762146E-07
 -0.155970326014E+00
 -0.155970226078E+00
 -0.155970206467E+00
 -0.155969837555E+00
 -0.155969907370E+00
 -0.155968883305E+00
 -0.155965226735E+00
 -0.155957373852E+00
 -0.960254400279E-04
 -0.168633630467E-04
 -0.126319537886E-04
 -0.198905237003E-05
 -0.422283301699E-05
 -0.647720407572E-06
 -0.135829023015E-05
 -0.200829705606E-06
  0.293128272049E+00
  0.293127414290E+00
  0.293128377613E+00
  0.293128133416E+00
  0.293128411206E+00
  0.293128387613E+00
  0.293128413787E+00
  0.293128412863E+00
  0.721001259162E-09
  0.526165488238E-10
  0.197450632320E-07
  0.199261116429E-08
  0.219790659314E-06
  0.284182052162E-07
  0.836994073955E-06
  0.119090472136E-06
 -0.155970226079E+00
 -0.155969398056E+00
 -0.155969837556E+00
 -0.155966893049E+00
 -0.155968883310E+00
 -0.155960941881E+00
 -0.155957373868E+00
 -0.155896407131E+00
 -0.564248459825E-03
 -0.960260460946E-04
 -0.787291994436E-04
 -0.126321341708E-04
 -0.273654844200E-04
 -0.422286487431E-05
 -0.914280753860E-05
 -0.135829503137E-05
  0.293127414284E+00
  0.293121561630E+00
  0.293128133416E+00
  0.293126281559E+00
  0.293128387613E+00
  0.293128156126E+00
  0.293128412863E+00
  0.293128400064E+00
  0.998003916357E-08
  0.721001258230E-09
  0.193728308097E-06
  0.197450618951E-07
  0.166242369603E-05
  0.219790367975E-06
  0.569543520399E-05
  0.836986067327E-06
 -0.155969398064E+00
 -0.155963791364E+00
 -0.155966893083E+00
 -0.155947790826E+00
 -0.155960942081E+00
 -0.155911718166E+00
 -0.155896407745E+00
 -0.155535903208E+00
 -0.298039820433E-02
 -0.564269750080E-03
 -0.453688423545E-03
 -0.787361696169E-04
 -0.167067209183E-03
 -0.273668230358E-04
 -0.588114725359E-04
 -0.914302056166E-05
  0.293121561381E+00
  0.293083621373E+00
  0.293126281546E+00
  0.293112741780E+00
  0.293128156126E+00
  0.293125919534E+00
  0.293128400064E+00
  0.293128222773E+00
  0.138259476018E-06
  0.998003898112E-08
  0.187751135082E-05
  0.193728179845E-06
  0.122886882333E-04
  0.166240717736E-05
  0.371019874557E-04
  0.569507934530E-05
 -0.155963791681E+00
 -0.155928264506E+00
 -0.155947792240E+00
 -0.155833685391E+00
 -0.155911725780E+00
 -0.155631586974E+00
 -0.155535924739E+00
 -0.153662995963E+00
 -0.129893572293E-01
 -0.298100219068E-02
 -0.231184730429E-02
 -0.453912312942E-03
 -0.926869084816E-03
 -0.167115114249E-03
 -0.345081478509E-03
 -0.588201138117E-04
  0.293083611207E+00
  0.292852286297E+00
  0.293112741090E+00
  0.293015865795E+00
  0.293125919524E+00
  0.293104636629E+00
  0.293128222773E+00
  0.293125765217E+00
  0.191426532689E-05
  0.138259441732E-06