# vtk DataFile Version 3.0
MachLine results file. Generated by MachLine, USU AeroLab (c) 2022.
ASCII
DATASET POLYDATA
POINTS                 419 float
  0.100000000000E+01  0.000000000000E+00  0.000000000000E+00
  0.953837434700E+00  0.222222222220E+00 -0.403870114270E-02
  0.100000000000E+01  0.222222222220E+00  0.000000000000E+00
  0.953837434700E+00  0.000000000000E+00 -0.403870114270E-02
  0.863184801440E+00  0.222222222220E+00 -0.119697788720E-01
  0.863184801440E+00  0.000000000000E+00 -0.119697788720E-01
  0.708754398800E+00  0.222222222220E+00 -0.254806884070E-01
  0.708754398800E+00  0.000000000000E+00 -0.254806884070E-01
  0.500000000000E+00  0.222222222220E+00 -0.437443317630E-01
  0.500000000000E+00  0.000000000000E+00 -0.437443317630E-01
  0.291245601200E+00  0.000000000000E+00 -0.254806884070E-01
  0.291245601200E+00  0.222222222220E+00 -0.254806884070E-01
  0.136815198560E+00  0.000000000000E+00 -0.119697788720E-01
  0.136815198560E+00  0.222222222220E+00 -0.119697788720E-01
  0.461625652960E-01  0.000000000000E+00 -0.403870114270E-02
  0.461625652960E-01  0.222222222220E+00 -0.403870114270E-02
  0.000000000000E+00  0.000000000000E+00  0.000000000000E+00
  0.000000000000E+00  0.222222222220E+00  0.000000000000E+00
  0.461625652960E-01  0.222222222220E+00  0.403870114270E-02
  0.461625652960E-01  0.000000000000E+00  0.403870114270E-02
  0.136815198560E+00  0.222222222220E+00  0.119697788720E-01
  0.136815198560E+00  0.000000000000E+00  0.119697788720E-01
  0.291245601200E+00  0.222222222220E+00  0.254806884070E-01
  0.291245601200E+00  0.000000000000E+00  0.254806884070E-01
  0.500000000000E+00  0.222222222220E+00  0.437443317630E-01
  0.500000000000E+00  0.000000000000E+00  0.437443317630E-01
  0.708754398800E+00  0.000000000000E+00  0.254806884070E-01
  0.708754398800E+00  0.222222222220E+00  0.254806884070E-01
  0.863184801440E+00  0.000000000000E+00  0.119697788720E-01
  0.863184801440E+00  0.222222222220E+00  0.119697788720E-01
  0.953837434700E+00  0.000000000000E+00  0.403870114270E-02
  0.953837434700E+00  0.222222222220E+00  0.403870114270E-02
  0.953837434700E+00  0.444444444440E+00 -0.403870114270E-02
  0.100000000000E+01  0.444444444440E+00  0.000000000000E+00
  0.863184801440E+00  0.444444444440E+00 -0.119697788720E-01
  0.708754398800E+00  0.444444444440E+00 -0.254806884070E-01
  0.500000000000E+00  0.444444444440E+00 -0.437443317630E-01
  0.291245601200E+00  0.444444444440E+00 -0.254806884070E-01
  0.136815198560E+00  0.444444444440E+00 -0.119697788720E-01
  0.461625652960E-01  0.444444444440E+00 -0.403870114270E-02
  0.000000000000E+00  0.444444444440E+00  0.000000000000E+00
  0.461625652960E-01  0.444444444440E+00  0.403870114270E-02
  0.136815198560E+00  0.444444444440E+00  0.119697788720E-01
  0.291245601200E+00  0.444444444440E+00  0.254806884070E-01
  0.500000000000E+00  0.444444444440E+00  0.437443317630E-01
  0.708754398800E+00  0.444444444440E+00  0.254806884070E-01
  0.863184801440E+00  0.444444444440E+00  0.119697788720E-01
  0.953837434700E+00  0.444444444440E+00  0.403870114270E-02
  0.953837434700E+00  0.666666666670E+00 -0.403870114270E-02
  0.100000000000E+01  0.666666666670E+00  0.000000000000E+00
  0.863184801440E+00  0.666666666670E+00 -0.119697788720E-01
  0.708754398800E+00  0.666666666670E+00 -0.254806884070E-01
  0.500000000000E+00  0.666666666670E+00 -0.437443317630E-01
  0.291245601200E+00  0.666666666670E+00 -0.254806884070E-01
  0.136815198560E+00  0.666666666670E+00 -0.119697788720E-01
  0.461625652960E-01  0.666666666670E+00 -0.403870114270E-02
  0.000000000000E+00  0.666666666670E+00  0.000000000000E+00
  0.461625652960E-01  0.666666666670E+00  0.403870114270E-02
  0.136815198560E+00  0.666666666670E+00  0.119697788720E-01
  0.291245601200E+00  0.666666666670E+00  0.254806884070E-01
  0.500000000000E+00  0.666666666670E+00  0.437443317630E-01
  0.708754398800E+00  0.666666666670E+00  0.254806884070E-01
  0.863184801440E+00  0.666666666670E+00  0.119697788720E-01
  0.953837434700E+00  0.666666666670E+00  0.403870114270E-02
  0.953837434700E+00  0.888888888890E+00 -0.403870114270E-02
  0.100000000000E+01  0.888888888890E+00  0.000000000000E+00
  0.863184801440E+00  0.888888888890E+00 -0.119697788720E-01
  0.708754398800E+00  0.888888888890E+00 -0.254806884070E-01
  0.500000000000E+00  0.888888888890E+00 -0.437443317630E-01
  0.291245601200E+00  0.888888888890E+00 -0.254806884070E-01
  0.136815198560E+00  0.888888888890E+00 -0.119697788720E-01
  0.461625652960E-01  0.888888888890E+00 -0.403870114270E-02
  0.000000000000E+00  0.888888888890E+00  0.000000000000E+00
  0.461625652960E-01  0.888888888890E+00  0.403870114270E-02
  0.136815198560E+00  0.888888888890E+00  0.119697788720E-01
  0.291245601200E+00  0.888888888890E+00  0.254806884070E-01
  0.500000000000E+00  0.888888888890E+00  0.437443317630E-01
  0.708754398800E+00  0.888888888890E+00  0.254806884070E-01
  0.863184801440E+00  0.888888888890E+00  0.119697788720E-01
  0.953837434700E+00  0.888888888890E+00  0.403870114270E-02
  0.953837434700E+00  0.111111111110E+01 -0.403870114270E-02
  0.100000000000E+01  0.111111111110E+01  0.000000000000E+00
  0.863184801440E+00  0.111111111110E+01 -0.119697788720E-01
  0.708754398800E+00  0.111111111110E+01 -0.254806884070E-01
  0.500000000000E+00  0.111111111110E+01 -0.437443317630E-01
  0.291245601200E+00  0.111111111110E+01 -0.254806884070E-01
  0.136815198560E+00  0.111111111110E+01 -0.119697788720E-01
  0.461625652960E-01  0.111111111110E+01 -0.403870114270E-02
  0.000000000000E+00  0.111111111110E+01  0.000000000000E+00
  0.461625652960E-01  0.111111111110E+01  0.403870114270E-02
  0.136815198560E+00  0.111111111110E+01  0.119697788720E-01
  0.291245601200E+00  0.111111111110E+01  0.254806884070E-01
  0.500000000000E+00  0.111111111110E+01  0.437443317630E-01
  0.708754398800E+00  0.111111111110E+01  0.254806884070E-01
  0.863184801440E+00  0.111111111110E+01  0.119697788720E-01
  0.953837434700E+00  0.111111111110E+01  0.403870114270E-02
  0.953837434700E+00  0.133333333330E+01 -0.403870114270E-02
  0.100000000000E+01  0.133333333330E+01  0.000000000000E+00
  0.863184801440E+00  0.133333333330E+01 -0.119697788720E-01
  0.708754398800E+00  0.133333333330E+01 -0.254806884070E-01
  0.500000000000E+00  0.133333333330E+01 -0.437443317630E-01
  0.291245601200E+00  0.133333333330E+01 -0.254806884070E-01
  0.136815198560E+00  0.133333333330E+01 -0.119697788720E-01
  0.461625652960E-01  0.133333333330E+01 -0.403870114270E-02
  0.000000000000E+00  0.133333333330E+01  0.000000000000E+00
  0.461625652960E-01  0.133333333330E+01  0.403870114270E-02
  0.136815198560E+00  0.133333333330E+01  0.119697788720E-01
  0.291245601200E+00  0.133333333330E+01  0.254806884070E-01
  0.500000000000E+00  0.133333333330E+01  0.437443317630E-01
  0.708754398800E+00  0.133333333330E+01  0.254806884070E-01
  0.863184801440E+00  0.133333333330E+01  0.119697788720E-01
  0.953837434700E+00  0.133333333330E+01  0.403870114270E-02
  0.953837434700E+00  0.155555555560E+01 -0.403870114270E-02
  0.100000000000E+01  0.155555555560E+01  0.000000000000E+00
  0.863184801440E+00  0.155555555560E+01 -0.119697788720E-01
  0.708754398800E+00  0.155555555560E+01 -0.254806884070E-01
  0.500000000000E+00  0.155555555560E+01 -0.437443317630E-01
  0.291245601200E+00  0.155555555560E+01 -0.254806884070E-01
  0.136815198560E+00  0.155555555560E+01 -0.119697788720E-01
  0.461625652960E-01  0.155555555560E+01 -0.403870114270E-02
  0.000000000000E+00  0.155555555560E+01  0.000000000000E+00
  0.461625652960E-01  0.155555555560E+01  0.403870114270E-02
  0.136815198560E+00  0.155555555560E+01  0.119697788720E-01
  0.291245601200E+00  0.155555555560E+01  0.254806884070E-01
  0.500000000000E+00  0.155555555560E+01  0.437443317630E-01
  0.708754398800E+00  0.155555555560E+01  0.254806884070E-01
  0.863184801440E+00  0.155555555560E+01  0.119697788720E-01
  0.953837434700E+00  0.155555555560E+01  0.403870114270E-02
  0.953837434700E+00  0.177777777780E+01 -0.403870114270E-02
  0.100000000000E+01  0.177777777780E+01  0.000000000000E+00
  0.863184801440E+00  0.177777777780E+01 -0.119697788720E-01
  0.708754398800E+00  0.177777777780E+01 -0.254806884070E-01
  0.500000000000E+00  0.177777777780E+01 -0.437443317630E-01
  0.291245601200E+00  0.177777777780E+01 -0.254806884070E-01
  0.136815198560E+00  0.177777777780E+01 -0.119697788720E-01
  0.461625652960E-01  0.177777777780E+01 -0.403870114270E-02
  0.000000000000E+00  0.177777777780E+01  0.000000000000E+00
  0.461625652960E-01  0.177777777780E+01  0.403870114270E-02
  0.136815198560E+00  0.177777777780E+01  0.119697788720E-01
  0.291245601200E+00  0.177777777780E+01  0.254806884070E-01
  0.500000000000E+00  0.177777777780E+01  0.437443317630E-01
  0.708754398800E+00  0.177777777780E+01  0.254806884070E-01
  0.863184801440E+00  0.177777777780E+01  0.119697788720E-01
  0.953837434700E+00  0.177777777780E+01  0.403870114270E-02
  0.953837434700E+00  0.200000000000E+01 -0.403870114270E-02
  0.100000000000E+01  0.200000000000E+01  0.000000000000E+00
  0.863184801440E+00  0.200000000000E+01 -0.119697788720E-01
  0.708754398800E+00  0.200000000000E+01 -0.254806884070E-01
  0.500000000000E+00  0.200000000000E+01 -0.437443317630E-01
  0.291245601200E+00  0.200000000000E+01 -0.254806884070E-01
  0.136815198560E+00  0.200000000000E+01 -0.119697788720E-01
  0.461625652960E-01  0.200000000000E+01 -0.403870114270E-02
  0.000000000000E+00  0.200000000000E+01  0.000000000000E+00
  0.461625652960E-01  0.200000000000E+01  0.403870114270E-02
  0.136815198560E+00  0.200000000000E+01  0.119697788720E-01
  0.291245601200E+00  0.200000000000E+01  0.254806884070E-01
  0.500000000000E+00  0.200000000000E+01  0.437443317630E-01
  0.708754398800E+00  0.200000000000E+01  0.254806884070E-01
  0.863184801440E+00  0.200000000000E+01  0.119697788720E-01
  0.953837434700E+00  0.200000000000E+01  0.403870114270E-02
  0.953837434700E+00  0.200157141480E+01 -0.372111000410E-02
[...]
CELL_DATA                 800
SCALARS C_p_ise float 1
LOOKUP_TABLE default
 -0.654706464269E-02
 -0.654705374902E-02
 -0.654705516124E-02
 -0.654705516124E-02
 -0.654705516076E-02
 -0.654705516076E-02
 -0.654705515992E-02
 -0.654705515992E-02
 -0.571428571429E-01
 -0.571428571429E-01
 -0.571428571429E-01
 -0.571428571429E-01
 -0.571428571429E-01
 -0.571428571429E-01
 -0.571428571429E-01
 -0.571428571429E-01
  0.776266785479E-02
  0.776266785479E-02
  0.776266785415E-02
  0.776266785415E-02
  0.776266785533E-02
  0.776266785533E-02
  0.776266785415E-02
  0.776266785415E-02
 -0.335647024537E-01
 -0.335647024537E-01
 -0.335647024540E-01
 -0.335647024540E-01
 -0.335647024541E-01
 -0.335647024541E-01
 -0.335647038584E-01
 -0.335646929913E-01
 -0.654705620585E-02
 -0.654706464269E-02
 -0.654705516123E-02
 -0.654705516124E-02
 -0.654705516085E-02
 -0.654705516076E-02
 -0.654705515995E-02
 -0.654705515992E-02
 -0.571428571429E-01
 -0.571428571429E-01
 -0.571428571429E-01
 -0.571428571429E-01
 -0.571428571429E-01
 -0.571428571429E-01
 -0.571428571429E-01
 -0.571428571429E-01
  0.776266785480E-02
  0.776266785479E-02
  0.776266785415E-02
  0.776266785415E-02
  0.776266785534E-02
  0.776266785533E-02
  0.776266785416E-02
  0.776266785415E-02
 -0.335647024537E-01
 -0.335647024537E-01
 -0.335647024540E-01
 -0.335647024537E-01
 -0.335647024541E-01
 -0.335647024537E-01
 -0.335646929913E-01
 -0.335647014087E-01
 -0.654705509193E-02
 -0.654705620585E-02
 -0.654705516469E-02
 -0.654705516123E-02
 -0.654705516965E-02
 -0.654705516085E-02
 -0.654705516396E-02
 -0.654705515995E-02
 -0.571428571429E-01
 -0.571428571429E-01
 -0.571428571429E-01
 -0.571428571429E-01
 -0.571428571429E-01
 -0.571428571429E-01
 -0.571428571429E-01
 -0.571428571429E-01
  0.776266785488E-02
  0.776266785480E-02
  0.776266785432E-02
  0.776266785415E-02
  0.776266785578E-02
  0.776266785534E-02
  0.776266785503E-02
  0.776266785416E-02
 -0.335647024537E-01
 -0.335647024561E-01
 -0.335647024538E-01
 -0.335647024444E-01
 -0.335647024537E-01
 -0.335647024319E-01
 -0.335647014087E-01
 -0.335647025520E-01
 -0.654710106702E-02
 -0.654705509193E-02
 -0.654705489414E-02
 -0.654705516469E-02
 -0.654705550282E-02
 -0.654705516965E-02
 -0.654705525906E-02
 -0.654705516396E-02
 -0.571428571429E-01
 -0.571428571429E-01
 -0.571428571429E-01
 -0.571428571429E-01
 -0.571428571429E-01
 -0.571428571429E-01
 -0.571428571429E-01
 -0.571428571429E-01
  0.776266786156E-02
  0.776266785488E-02
  0.776266786836E-02
  0.776266785432E-02
  0.776266789796E-02
  0.776266785578E-02
  0.776266793983E-02
  0.776266785503E-02
 -0.335647024561E-01
 -0.335647023920E-01
 -0.335647024444E-01
 -0.335647009713E-01
 -0.335647024319E-01
 -0.335647002730E-01
 -0.335647025520E-01
 -0.335646658686E-01
 -0.654970559660E-02
 -0.654710106703E-02
 -0.654708754235E-02
 -0.654705489414E-02
 -0.654712022695E-02
 -0.654705550282E-02
 -0.654708859972E-02
 -0.654705525906E-02
 -0.571428571429E-01
 -0.571428571429E-01
 -0.571428571429E-01
 -0.571428571429E-01
 -0.571428571429E-01
 -0.571428571429E-01
 -0.571428571429E-01
 -0.571428571429E-01
  0.776266825823E-02
  0.776266786156E-02
  0.776266859857E-02
  0.776266786836E-02
  0.776266937723E-02
  0.776266789796E-02
  0.776267072925E-02
  0.776266793983E-02
 -0.335647023920E-01
 -0.335647300400E-01
 -0.335647009713E-01
 -0.335646759451E-01
 -0.335647002730E-01
 -0.335645867125E-01
 -0.335646658686E-01
 -0.335619945837E-01
 -0.664887136018E-02
 -0.654970559652E-02
 -0.654801524009E-02
 -0.654708754234E-02
 -0.654771669218E-02
 -0.654712022700E-02
 -0.654657657909E-02
 -0.654708859972E-02
 -0.571428571429E-01
 -0.571428571429E-01
 -0.571428571429E-01
 -0.571428571429E-01
 -0.571428571429E-01
 -0.571428571429E-01
 -0.571428571429E-01
 -0.571428571429E-01
  0.776270757473E-02
  0.776266825823E-02
  0.776275826292E-02
  0.776266859857E-02
  0.776298771218E-02
  0.776266937721E-02
  0.776332332867E-02
  0.776267072907E-02
 -0.335647300401E-01
 -0.335630488246E-01
 -0.335646759460E-01
 -0.335590650756E-01
 -0.335645867186E-01
 -0.335579468402E-01
 -0.335619945963E-01
 -0.335006703302E-01
 -0.828870634075E-02
 -0.664889700967E-02
 -0.652393572874E-02
 -0.654804272178E-02
 -0.676768356434E-02
 -0.654772406388E-02
 -0.669984758623E-02
 -0.654657669168E-02
 -0.571428571429E-01
 -0.571428571429E-01
 -0.571428571429E-01
 -0.571428571429E-01
 -0.571428571429E-01
 -0.571428571429E-01
 -0.571428571429E-01
 -0.571428571429E-01
  0.776396626545E-02
  0.776270757472E-02
  0.776389497642E-02
  0.776275826279E-02
  0.776337349665E-02
  0.776298771195E-02
  0.776519389782E-02
  0.776332332693E-02
 -0.335630488246E-01
 -0.336962138227E-01
 -0.335590674627E-01
 -0.334634603783E-01
 -0.335579473313E-01
 -0.332874797517E-01
 -0.335006707200E-01
 -0.314115738779E-01
 -0.318508068648E-01
 -0.828897695127E-02
 -0.153856664635E-01
 -0.652582768849E-02
 -0.651109286329E-02
 -0.676931691993E-02
 -0.412680174114E-02
 -0.669984240810E-02
 -0.571428571429E-01
 -0.571428571429E-01
 -0.571428571429E-01
 -0.571428571429E-01
 -0.571428571429E-01
 -0.571428571429E-01
 -0.571428571429E-01
 -0.571428571429E-01
  0.806935727062E-02
  0.776396533445E-02
  0.858107486412E-02
  0.776385871612E-02
  0.915509766736E-02
  0.776294708864E-02
  0.982818855968E-02
  0.776270735151E-02
 -0.336974129419E-01
 -0.289606111304E-01
 -0.334718603772E-01
 -0.354724731563E-01
 -0.332929961811E-01
 -0.325529686881E-01
 -0.314179725479E-01
 -0.141899049248E-01
 -0.571428571429E-01
 -0.332455453653E-01
 -0.380561932690E-01
 -0.168979438233E-01
 -0.227984195378E-01
 -0.778353986357E-02
 -0.246457245061E-01
 -0.477126567962E-02
 -0.571428571429E-01
 -0.561771602921E-01
 -0.571428571429E-01
 -0.561648216055E-01
 -0.571428571429E-01
 -0.561713010239E-01
 -0.571428571429E-01
 -0.561707433859E-01
  0.926279252821E-04
  0.806866402651E-02
 -0.158072271483E-03
  0.857416523037E-02
 -0.564663628933E-03
  0.911863482623E-02
 -0.836604779889E-03
  0.970527814764E-02
 -0.290175683170E-01
 -0.365617834554E-01
 -0.355706627414E-01
 -0.168642803530E-01
 -0.325513415918E-01
 -0.524158906782E-01
 -0.145455242863E-01
 -0.571428571429E-01
 -0.571428571429E-01
 -0.571428571429E-01
 -0.483872545620E-01
 -0.427559056066E-01
 -0.302850487081E-01
 -0.296089203952E-01
 -0.356646528617E-01
 -0.520089696045E-01
 -0.519744191603E-01
 -0.519941926122E-01
 -0.519901986522E-01
 -0.520128428036E-01
 -0.520027258228E-01
 -0.520085961413E-01
  0.851305728728E-04
 -0.530885658024E-04
 -0.171904533613E-03
 -0.320915266032E-03
 -0.591214239348E-03
 -0.779891062970E-03
 -0.840801062047E-03
 -0.376931677327E-01
 -0.351861649150E-01
 -0.206711020355E-01
 -0.571420288613E-01
 -0.571428549540E-01
 -0.571428571429E-01
 -0.571428571429E-01
 -0.571428571429E-01
 -0.571428571429E-01
 -0.542254426932E-01
 -0.521525506856E-01
 -0.381863992763E-01
 -0.399735901757E-01
 -0.257861982683E-01
 -0.174501585091E-01
 -0.174325391081E-01
 -0.174588995593E-01
 -0.174445145881E-01
 -0.174710552145E-01
 -0.174557454147E-01
 -0.174663460510E-01
 -0.156597995238E-02
 -0.164442053231E-02
 -0.176369648917E-02
 -0.185166381169E-02
 -0.203083050268E-02
 -0.220653110821E-02
 -0.242003973810E-02
 -0.355656738124E-01
 -0.462622194399E-01
 -0.359388577358E-01
 -0.571428571429E-01
 -0.571428571429E-01
 -0.571428571429E-01
 -0.571428571429E-01
 -0.571428571429E-01
 -0.571428571429E-01
 -0.558732670995E-01
 -0.546102930990E-01
 -0.417731898054E-01
 -0.466453372954E-01
 -0.239548166616E-01
  0.516709361323E-02
  0.519739406213E-02
  0.523685767719E-02
  0.524180595386E-02
  0.527133068015E-02
  0.528677626468E-02
  0.530204848171E-02
 -0.309967722509E-02
 -0.315076229889E-02
 -0.322556629871E-02
 -0.328892025206E-02
 -0.339422225000E-02
 -0.351483241194E-02
 -0.372556045624E-02
 -0.335667471088E-01
 -0.514230956034E-01
 -0.468737627601E-01
 -0.571428571429E-01
 -0.571428571429E-01
 -0.571428571429E-01
 -0.571428571429E-01
 -0.571428571429E-01
 -0.571428571429E-01
 -0.571423520817E-01
 -0.571270787796E-01
 -0.435245252382E-01
 -0.518509016857E-01
 -0.227414293615E-01
  0.340283140018E-02
  0.344778074076E-02
  0.355357633510E-02
  0.355836272264E-02
  0.361175296723E-02
  0.363588831858E-02
  0.367276832235E-02
 -0.160661643535E-02
 -0.164531095242E-02
 -0.168737498393E-02
 -0.173586395126E-02
 -0.180452659622E-02
 -0.190311770781E-02
 -0.200751631141E-02
 -0.319182026436E-01
 -0.500409389644E-01
 -0.478328776425E-01
 -0.571428571429E-01
 -0.571428571429E-01
 -0.571428571429E-01
 -0.571428571429E-01
 -0.654706090586E-02
 -0.654705374902E-02
 -0.654705516124E-02
 -0.654705516124E-02
 -0.654705516076E-02
 -0.654705516076E-02
 -0.654705515992E-02
 -0.654705515992E-02
 -0.571428571429E-01
 -0.571428571429E-01
 -0.571428571429E-01
 -0.571428571429E-01
 -0.571428571429E-01
 -0.571428571429E-01
 -0.571428571429E-01
 -0.571428571429E-01
  0.776266785479E-02
  0.776266785479E-02
  0.776266785415E-02
  0.776266785415E-02
  0.776266785533E-02
  0.776266785533E-02
  0.776266785415E-02
  0.776266785415E-02
 -0.335647024537E-01
 -0.335647024537E-01
 -0.335647024540E-01
 -0.335647024540E-01
 -0.335647024541E-01
 -0.335647024541E-01
 -0.335647038584E-01
 -0.335646967190E-01
 -0.654705552851E-02
 -0.654706090586E-02
 -0.654705516123E-02
 -0.654705516124E-02
 -0.654705516085E-02
 -0.654705516076E-02
 -0.654705515995E-02
 -0.654705515992E-02
 -0.571428571429E-01
 -0.571428571429E-01
 -0.571428571429E-01
 -0.571428571429E-01
 -0.571428571429E-01
 -0.571428571429E-01
 -0.571428571429E-01
 -0.571428571429E-01
  0.776266785480E-02
  0.776266785479E-02
  0.776266785415E-02
  0.776266785415E-02
  0.776266785534E-02
  0.776266785533E-02
  0.776266785416E-02
  0.776266785415E-02
 -0.335647024537E-01
 -0.335647024537E-01
 -0.335647024540E-01
 -0.335647024537E-01
 -0.335647024541E-01
 -0.335647024537E-01
 -0.335646967190E-01
 -0.335647020844E-01
 -0.654705288453E-02
 -0.654705552851E-02
 -0.654705516469E-02
 -0.654705516123E-02
 -0.654705516965E-02
 -0.654705516085E-02
 -0.654705516396E-02
 -0.654705515995E-02
 -0.571428571429E-01
 -0.571428571429E-01
 -0.571428571429E-01
 -0.571428571429E-01
 -0.571428571429E-01
 -0.571428571429E-01
 -0.571428571429E-01
 -0.571428571429E-01
  0.776266785488E-02
  0.776266785480E-02
  0.776266785432E-02
  0.776266785415E-02
  0.776266785578E-02
  0.776266785534E-02
  0.776266785503E-02
  0.776266785416E-02
 -0.335647024537E-01
 -0.335647024561E-01
 -0.335647024537E-01
 -0.335647024444E-01
 -0.335647024537E-01
 -0.335647024319E-01
 -0.335647020844E-01
 -0.335647047540E-01
 -0.654710363333E-02
 -0.654705288453E-02
 -0.654705489414E-02
 -0.654705516469E-02
 -0.654705550282E-02
 -0.654705516965E-02
 -0.654705525906E-02
 -0.654705516396E-02
 -0.571428571429E-01
 -0.571428571429E-01
 -0.571428571429E-01
 -0.571428571429E-01
 -0.571428571429E-01
 -0.571428571429E-01
 -0.571428571429E-01
 -0.571428571429E-01
  0.776266786156E-02
  0.776266785488E-02
  0.776266786836E-02
  0.776266785432E-02
  0.776266789796E-02
  0.776266785578E-02
  0.776266793983E-02
  0.776266785503E-02
 -0.335647024561E-01
 -0.335647023920E-01
 -0.335647024444E-01
 -0.335647009713E-01
 -0.335647024319E-01
 -0.335647002730E-01
 -0.335647047540E-01
 -0.335646633086E-01
 -0.654970686964E-02
 -0.654710363333E-02
 -0.654708754235E-02
 -0.654705489414E-02
 -0.654712022695E-02
 -0.654705550282E-02
 -0.654708859972E-02
 -0.654705525906E-02
 -0.571428571429E-01
 -0.571428571429E-01
 -0.571428571429E-01
 -0.571428571429E-01
 -0.571428571429E-01
 -0.571428571429E-01
 -0.571428571429E-01
 -0.571428571429E-01
  0.776266825823E-02
  0.776266786156E-02
  0.776266859857E-02
  0.776266786836E-02
  0.776266937723E-02
  0.776266789796E-02
  0.776267072925E-02
  0.776266793983E-02
 -0.335647023920E-01
 -0.335647300400E-01
 -0.335647009713E-01
 -0.335646759451E-01
 -0.335647002730E-01
 -0.335645867125E-01
 -0.335646633086E-01
 -0.335619933137E-01
 -0.664887521923E-02
 -0.654970686957E-02
 -0.654801524008E-02
 -0.654708754235E-02
 -0.654771669218E-02
 -0.654712022700E-02
 -0.654657657909E-02
 -0.654708859972E-02
 -0.571428571429E-01
 -0.571428571429E-01
 -0.571428571429E-01
 -0.571428571429E-01
 -0.571428571429E-01
 -0.571428571429E-01
 -0.571428571429E-01
 -0.571428571429E-01
  0.776270757473E-02
  0.776266825823E-02
  0.776275826292E-02
  0.776266859857E-02
  0.776298771218E-02
  0.776266937721E-02
  0.776332332867E-02
  0.776267072907E-02
 -0.335647300401E-01
 -0.335630488246E-01
 -0.335646759460E-01
 -0.335590650755E-01
 -0.335645867186E-01
 -0.335579468402E-01
 -0.335619933263E-01
 -0.335006664757E-01
 -0.828870621666E-02
 -0.664890086871E-02
 -0.652393572997E-02
 -0.654804272177E-02
 -0.676768356477E-02
 -0.654772406388E-02
 -0.669984758645E-02
 -0.654657669168E-02
 -0.571428571429E-01
 -0.571428571429E-01
 -0.571428571429E-01
 -0.571428571429E-01
 -0.571428571429E-01
 -0.571428571429E-01
 -0.571428571429E-01
 -0.571428571429E-01
  0.776396626545E-02
  0.776270757472E-02
  0.776389497642E-02
  0.776275826279E-02
  0.776337349665E-02
  0.776298771195E-02
  0.776519389782E-02
  0.776332332693E-02
 -0.335630488246E-01
 -0.336962138229E-01
 -0.335590674627E-01
 -0.334634603792E-01
 -0.335579473313E-01
 -0.332874797516E-01
 -0.335006668654E-01
 -0.314115739957E-01
 -0.318508122189E-01
 -0.828897682747E-02
 -0.153856665676E-01
 -0.652582768979E-02
 -0.651109282983E-02
 -0.676931692040E-02
 -0.412680170905E-02
 -0.669984240831E-02
 -0.571428571429E-01
 -0.571428571429E-01
 -0.571428571429E-01
 -0.571428571429E-01
 -0.571428571429E-01
 -0.571428571429E-01
 -0.571428571429E-01
 -0.571428571429E-01
  0.806935727062E-02
  0.776396533445E-02
  0.858107486419E-02
  0.776385871612E-02
  0.915509766934E-02
  0.776294708864E-02
  0.982818856456E-02
  0.776270735150E-02
 -0.336974129421E-01
 -0.289606110842E-01
 -0.334718603783E-01
 -0.354724732157E-01
 -0.332929961810E-01
 -0.325529686975E-01
 -0.314179726658E-01
 -0.141899027627E-01
 -0.571428571429E-01
 -0.332455505006E-01
 -0.380561933960E-01
 -0.168979439202E-01
 -0.227984195723E-01
 -0.778353982409E-02
 -0.246457241075E-01
 -0.477126565565E-02
 -0.571428571429E-01
 -0.561771602408E-01
 -0.571428571429E-01
 -0.561648215878E-01
 -0.571428571429E-01
 -0.561713010233E-01
 -0.571428571429E-01
 -0.561707433859E-01
  0.926279253654E-04
  0.806866402652E-02
 -0.158072271744E-03
  0.857416523044E-02
 -0.564663847850E-03
  0.911863482721E-02
 -0.836605118689E-03
  0.970527814687E-02
 -0.290175682738E-01
 -0.365617825099E-01
 -0.355706627974E-01
 -0.168642799112E-01
 -0.325513416010E-01
 -0.524158908897E-01
 -0.145455221281E-01
 -0.571428571429E-01
 -0.571428571429E-01
 -0.571428571429E-01
 -0.483872551850E-01
 -0.427559069372E-01
 -0.302850480957E-01
 -0.296089189924E-01
 -0.356646524661E-01
 -0.520089694708E-01
 -0.519744181938E-01
 -0.519941923315E-01
 -0.519901991284E-01
 -0.520128428012E-01
 -0.520027258209E-01
 -0.520085961402E-01
  0.851305729597E-04
 -0.530885659435E-04
 -0.171904533877E-03
 -0.320915488535E-03
 -0.591214457914E-03
 -0.779891208447E-03
 -0.840801413767E-03
 -0.376931669079E-01
 -0.351861642773E-01
 -0.206711018885E-01
 -0.571420288549E-01
 -0.571428549540E-01
 -0.571428571429E-01
 -0.571428571429E-01
 -0.571428571429E-01
 -0.571428571429E-01
 -0.542254423528E-01
 -0.521525503501E-01
 -0.381863997419E-01
 -0.399735898772E-01
 -0.257861973973E-01
 -0.174501578504E-01
 -0.174325380536E-01
 -0.174588996398E-01
 -0.174445152967E-01
 -0.174710552081E-01
 -0.174557454357E-01
 -0.174663460651E-01
 -0.156597995180E-02
 -0.164442053377E-02
 -0.176369648680E-02
 -0.185166402577E-02
 -0.203083071848E-02
 -0.220653110526E-02
 -0.242003998504E-02
 -0.355656733276E-01
 -0.462622191381E-01
 -0.359388582572E-01
 -0.571428571429E-01
 -0.571428571429E-01
 -0.571428571429E-01
 -0.571428571429E-01
 -0.571428571429E-01
 -0.571428571429E-01
 -0.558732670831E-01
 -0.546102930763E-01
 -0.417731910470E-01
 -0.466453380702E-01
 -0.239548161603E-01
  0.516709309664E-02
  0.519739296217E-02
  0.523685772260E-02
  0.524180654528E-02
  0.527133063406E-02
  0.528677628641E-02
  0.530204851086E-02
 -0.309967721268E-02
 -0.315076228282E-02
 -0.322556629924E-02
 -0.328892044814E-02
 -0.339422248488E-02
 -0.351483234153E-02
 -0.372556059114E-02
 -0.335667468287E-01
 -0.514230954231E-01
 -0.468737631890E-01
 -0.571428571429E-01
 -0.571428571429E-01
 -0.571428571429E-01
 -0.571428571429E-01
 -0.571428571429E-01
 -0.571428571429E-01
 -0.571423520823E-01
 -0.571270787893E-01
 -0.435245251462E-01
 -0.518509015621E-01
 -0.227414293024E-01
  0.340283054935E-02
  0.344777821469E-02
  0.355357435719E-02
  0.355836282499E-02
  0.361175305429E-02
  0.363588832330E-02
  0.367276830794E-02
 -0.160661645337E-02
 -0.164531095036E-02
 -0.168737503809E-02
 -0.173586399524E-02
 -0.180452725043E-02
 -0.190311828276E-02
 -0.200751633175E-02
 -0.319182024894E-01
 -0.500409388178E-01
 -0.478328778367E-01
 -0.571428571429E-01
 -0.571428571429E-01
 -0.571428571429E-01
 -0.571428571429E-01
SCALARS C_p_2nd float 1
LOOKUP_TABLE default
 -0.656465399513E-02
 -0.656464309070E-02
 -0.656464450433E-02
 -0.656464450433E-02
 -0.656464450385E-02
 -0.656464450385E-02
 -0.656464450300E-02
 -0.656464450300E-02
  0.288561183042E+00
  0.288561183042E+00
  0.288561183062E+00
  0.288561183062E+00
  0.288561183042E+00
  0.288561183042E+00
  0.288561183053E+00
  0.288561183053E+00
  0.779233894387E-02
  0.779233894387E-02
  0.779233894322E-02
  0.779233894322E-02
  0.779233894441E-02
  0.779233894441E-02
  0.779233894321E-02
  0.779233894321E-02
 -0.364093538366E-01
 -0.364093538366E-01
 -0.364093538369E-01
 -0.364093538369E-01
 -0.364093538371E-01
 -0.364093538371E-01
 -0.364093547084E-01
 -0.364093479611E-01
 -0.656464554995E-02
 -0.656465399513E-02
 -0.656464450432E-02
 -0.656464450433E-02
 -0.656464450394E-02
 -0.656464450385E-02
 -0.656464450303E-02
 -0.656464450300E-02
  0.288561183042E+00
  0.288561183042E+00
  0.288561183062E+00
  0.288561183062E+00
  0.288561183042E+00
  0.288561183042E+00
  0.288561183053E+00
  0.288561183053E+00
  0.779233894387E-02
  0.779233894387E-02
  0.779233894322E-02
  0.779233894322E-02
  0.779233894442E-02
  0.779233894441E-02
  0.779233894323E-02
  0.779233894321E-02
 -0.364093538366E-01
 -0.364093538366E-01
 -0.364093538369E-01
 -0.364093538368E-01
 -0.364093538371E-01
 -0.364093538369E-01
 -0.364093479611E-01
 -0.364093531874E-01
 -0.656464443493E-02
 -0.656464554995E-02
 -0.656464450778E-02
 -0.656464450432E-02
 -0.656464451275E-02
 -0.656464450394E-02
 -0.656464450705E-02
 -0.656464450303E-02
  0.288561183042E+00
  0.288561183041E+00
  0.288561183062E+00
  0.288561183061E+00
  0.288561183042E+00
  0.288561183042E+00
  0.288561183053E+00
  0.288561183053E+00
  0.779233894396E-02
  0.779233894387E-02
  0.779233894339E-02
  0.779233894322E-02
  0.779233894486E-02
  0.779233894442E-02
  0.779233894409E-02
  0.779233894323E-02
 -0.364093538366E-01
 -0.364093538381E-01
 -0.364093538368E-01
 -0.364093538310E-01
 -0.364093538369E-01
 -0.364093538234E-01
 -0.364093531874E-01
 -0.364093538972E-01
 -0.656469045544E-02
 -0.656464443493E-02
 -0.656464423697E-02
 -0.656464450778E-02
 -0.656464484624E-02
 -0.656464451275E-02
 -0.656464460224E-02
 -0.656464450705E-02
  0.288561183041E+00
  0.288561182970E+00
  0.288561183061E+00
  0.288561183008E+00
  0.288561183042E+00
  0.288561183024E+00
  0.288561183053E+00
  0.288561183035E+00
  0.779233895066E-02
  0.779233894396E-02
  0.779233895747E-02
  0.779233894339E-02
  0.779233898717E-02
  0.779233894486E-02
  0.779233902916E-02
  0.779233894409E-02
 -0.364093538381E-01
 -0.364093537983E-01
 -0.364093538310E-01
 -0.364093529164E-01
 -0.364093538234E-01
 -0.364093524829E-01
 -0.364093538972E-01
 -0.364093311209E-01
 -0.656729755527E-02
 -0.656469045544E-02
 -0.656467691743E-02
 -0.656464423697E-02
 -0.656470963431E-02
 -0.656464484624E-02
 -0.656467797584E-02
 -0.656464460224E-02
  0.288561182970E+00
  0.288561175361E+00
  0.288561183008E+00
  0.288561177165E+00
  0.288561183024E+00
  0.288561181486E+00
  0.288561183035E+00
  0.288561181497E+00
  0.779233934852E-02
  0.779233895066E-02