# vtk DataFile Version 3.0
MachLine results file. Generated by MachLine, USU AeroLab (c) 2022.
ASCII
DATASET POLYDATA
POINTS                 419 float
  0.100000000000E+01  0.000000000000E+00  0.000000000000E+00
  0.953837434700E+00  0.222222222220E+00 -0.403870114270E-02
  0.100000000000E+01  0.222222222220E+00  0.000000000000E+00
  0.953837434700E+00  0.000000000000E+00 -0.403870114270E-02
  0.863184801440E+00  0.222222222220E+00 -0.119697788720E-01
  0.863184801440E+00  0.000000000000E+00 -0.119697788720E-01
  0.708754398800E+00  0.222222222220E+00 -0.254806884070E-01
  0.708754398800E+00  0.000000000000E+00 -0.254806884070E-01
  0.500000000000E+00  0.222222222220E+00 -0.437443317630E-01
  0.500000000000E+00  0.000000000000E+00 -0.437443317630E-01
  0.291245601200E+00  0.000000000000E+00 -0.254806884070E-01
  0.291245601200E+00  0.222222222220E+00 -0.254806884070E-01
  0.136815198560E+00  0.000000000000E+00 -0.119697788720E-01
  0.136815198560E+00  0.222222222220E+00 -0.119697788720E-01
  0.461625652960E-01  0.000000000000E+00 -0.403870114270E-02
  0.461625652960E-01  0.222222222220E+00 -0.403870114270E-02
  0.000000000000E+00  0.000000000000E+00  0.000000000000E+00
  0.000000000000E+00  0.222222222220E+00  0.000000000000E+00
  0.461625652960E-01  0.222222222220E+00  0.403870114270E-02
  0.461625652960E-01  0.000000000000E+00  0.403870114270E-02
  0.136815198560E+00  0.222222222220E+00  0.119697788720E-01
  0.136815198560E+00  0.000000000000E+00  0.119697788720E-01
  0.291245601200E+00  0.222222222220E+00  0.254806884070E-01
  0.291245601200E+00  0.000000000000E+00  0.254806884070E-01
  0.500000000000E+00  0.222222222220E+00  0.437443317630E-01
  0.500000000000E+00  0.000000000000E+00  0.437443317630E-01
  0.708754398800E+00  0.000000000000E+00  0.254806884070E-01
  0.708754398800E+00  0.222222222220E+00  0.254806884070E-01
  0.863184801440E+00  0.000000000000E+00  0.119697788720E-01
  0.863184801440E+00  0.222222222220E+00  0.119697788720E-01
  0.953837434700E+00  0.000000000000E+00  0.403870114270E-02
  0.953837434700E+00  0.222222222220E+00  0.403870114270E-02
  0.953837434700E+00  0.444444444440E+00 -0.403870114270E-02
  0.100000000000E+01  0.444444444440E+00  0.000000000000E+00
  0.863184801440E+00  0.444444444440E+00 -0.119697788720E-01
  0.708754398800E+00  0.444444444440E+00 -0.254806884070E-01
  0.500000000000E+00  0.444444444440E+00 -0.437443317630E-01
  0.291245601200E+00  0.444444444440E+00 -0.254806884070E-01
  0.136815198560E+00  0.444444444440E+00 -0.119697788720E-01
  0.461625652960E-01  0.444444444440E+00 -0.403870114270E-02
  0.000000000000E+00  0.444444444440E+00  0.000000000000E+00
  0.461625652960E-01  0.444444444440E+00  0.403870114270E-02
  0.136815198560E+00  0.444444444440E+00  0.119697788720E-01
  0.291245601200E+00  0.444444444440E+00  0.254806884070E-01
  0.500000000000E+00  0.444444444440E+00  0.437443317630E-01
  0.708754398800E+00  0.444444444440E+00  0.254806884070E-01
  0.863184801440E+00  0.444444444440E+00  0.119697788720E-01
  0.953837434700E+00  0.444444444440E+00  0.403870114270E-02
  0.953837434700E+00  0.666666666670E+00 -0.403870114270E-02
  0.100000000000E+01  0.666666666670E+00  0.000000000000E+00
  0.863184801440E+00  0.666666666670E+00 -0.119697788720E-01
  0.708754398800E+00  0.666666666670E+00 -0.254806884070E-01
  0.500000000000E+00  0.666666666670E+00 -0.437443317630E-01
  0.291245601200E+00  0.666666666670E+00 -0.254806884070E-01
  0.136815198560E+00  0.666666666670E+00 -0.119697788720E-01
  0.461625652960E-01  0.666666666670E+00 -0.403870114270E-02
  0.000000000000E+00  0.666666666670E+00  0.000000000000E+00
  0.461625652960E-01  0.666666666670E+00  0.403870114270E-02
  0.136815198560E+00  0.666666666670E+00  0.119697788720E-01
  0.291245601200E+00  0.666666666670E+00  0.254806884070E-01
  0.500000000000E+00  0.666666666670E+00  0.437443317630E-01
  0.708754398800E+00  0.666666666670E+00  0.254806884070E-01
  0.863184801440E+00  0.666666666670E+00  0.119697788720E-01
  0.953837434700E+00  0.666666666670E+00  0.403870114270E-02
  0.953837434700E+00  0.888888888890E+00 -0.403870114270E-02
  0.100000000000E+01  0.888888888890E+00  0.000000000000E+00
  0.863184801440E+00  0.888888888890E+00 -0.119697788720E-01
  0.708754398800E+00  0.888888888890E+00 -0.254806884070E-01
  0.500000000000E+00  0.888888888890E+00 -0.437443317630E-01
  0.291245601200E+00  0.888888888890E+00 -0.254806884070E-01
  0.136815198560E+00  0.888888888890E+00 -0.119697788720E-01
  0.461625652960E-01  0.888888888890E+00 -0.403870114270E-02
  0.000000000000E+00  0.888888888890E+00  0.000000000000E+00
  0.461625652960E-01  0.888888888890E+00  0.403870114270E-02
  0.136815198560E+00  0.888888888890E+00  0.119697788720E-01
  0.291245601200E+00  0.888888888890E+00  0.254806884070E-01
  0.500000000000E+00  0.888888888890E+00  0.437443317630E-01
  0.708754398800E+00  0.888888888890E+00  0.254806884070E-01
  0.863184801440E+00  0.888888888890E+00  0.119697788720E-01
  0.953837434700E+00  0.888888888890E+00  0.403870114270E-02
  0.953837434700E+00  0.111111111110E+01 -0.403870114270E-02
  0.100000000000E+01  0.111111111110E+01  0.000000000000E+00
  0.863184801440E+00  0.111111111110E+01 -0.119697788720E-01
  0.708754398800E+00  0.111111111110E+01 -0.254806884070E-01
  0.500000000000E+00  0.111111111110E+01 -0.437443317630E-01
  0.291245601200E+00  0.111111111110E+01 -0.254806884070E-01
  0.136815198560E+00  0.111111111110E+01 -0.119697788720E-01
  0.461625652960E-01  0.111111111110E+01 -0.403870114270E-02
  0.000000000000E+00  0.111111111110E+01  0.000000000000E+00
  0.461625652960E-01  0.111111111110E+01  0.403870114270E-02
  0.136815198560E+00  0.111111111110E+01  0.119697788720E-01
  0.291245601200E+00  0.111111111110E+01  0.254806884070E-01
  0.500000000000E+00  0.111111111110E+01  0.437443317630E-01
  0.708754398800E+00  0.111111111110E+01  0.254806884070E-01
  0.863184801440E+00  0.111111111110E+01  0.119697788720E-01
  0.953837434700E+00  0.111111111110E+01  0.403870114270E-02
  0.953837434700E+00  0.133333333330E+01 -0.403870114270E-02
  0.100000000000E+01  0.133333333330E+01  0.000000000000E+00
  0.863184801440E+00  0.133333333330E+01 -0.119697788720E-01
  0.708754398800E+00  0.133333333330E+01 -0.254806884070E-01
  0.500000000000E+00  0.133333333330E+01 -0.437443317630E-01
  0.291245601200E+00  0.133333333330E+01 -0.254806884070E-01
  0.136815198560E+00  0.133333333330E+01 -0.119697788720E-01
  0.461625652960E-01  0.133333333330E+01 -0.403870114270E-02
  0.000000000000E+00  0.133333333330E+01  0.000000000000E+00
  0.461625652960E-01  0.133333333330E+01  0.403870114270E-02
  0.136815198560E+00  0.133333333330E+01  0.119697788720E-01
  0.291245601200E+00  0.133333333330E+01  0.254806884070E-01
  0.500000000000E+00  0.133333333330E+01  0.437443317630E-01
  0.708754398800E+00  0.133333333330E+01  0.254806884070E-01
  0.863184801440E+00  0.133333333330E+01  0.119697788720E-01
  0.953837434700E+00  0.133333333330E+01  0.403870114270E-02
  0.953837434700E+00  0.155555555560E+01 -0.403870114270E-02
  0.100000000000E+01  0.155555555560E+01  0.000000000000E+00
  0.863184801440E+00  0.155555555560E+01 -0.119697788720E-01
  0.708754398800E+00  0.155555555560E+01 -0.254806884070E-01
  0.500000000000E+00  0.155555555560E+01 -0.437443317630E-01
  0.291245601200E+00  0.155555555560E+01 -0.254806884070E-01
  0.136815198560E+00  0.155555555560E+01 -0.119697788720E-01
  0.461625652960E-01  0.155555555560E+01 -0.403870114270E-02
  0.000000000000E+00  0.155555555560E+01  0.000000000000E+00
  0.461625652960E-01  0.155555555560E+01  0.403870114270E-02
  0.136815198560E+00  0.155555555560E+01  0.119697788720E-01
  0.291245601200E+00  0.155555555560E+01  0.254806884070E-01
  0.500000000000E+00  0.155555555560E+01  0.437443317630E-01
  0.708754398800E+00  0.155555555560E+01  0.254806884070E-01
  0.863184801440E+00  0.155555555560E+01  0.119697788720E-01
  0.953837434700E+00  0.155555555560E+01  0.403870114270E-02
  0.953837434700E+00  0.177777777780E+01 -0.403870114270E-02
  0.100000000000E+01  0.177777777780E+01  0.000000000000E+00
  0.863184801440E+00  0.177777777780E+01 -0.119697788720E-01
  0.708754398800E+00  0.177777777780E+01 -0.254806884070E-01
  0.500000000000E+00  0.177777777780E+01 -0.437443317630E-01
  0.291245601200E+00  0.177777777780E+01 -0.254806884070E-01
  0.136815198560E+00  0.177777777780E+01 -0.119697788720E-01
  0.461625652960E-01  0.177777777780E+01 -0.403870114270E-02
  0.000000000000E+00  0.177777777780E+01  0.000000000000E+00
  0.461625652960E-01  0.177777777780E+01  0.403870114270E-02
  0.136815198560E+00  0.177777777780E+01  0.119697788720E-01
  0.291245601200E+00  0.177777777780E+01  0.254806884070E-01
  0.500000000000E+00  0.177777777780E+01  0.437443317630E-01
  0.708754398800E+00  0.177777777780E+01  0.254806884070E-01
  0.863184801440E+00  0.177777777780E+01  0.119697788720E-01
  0.953837434700E+00  0.177777777780E+01  0.403870114270E-02
  0.953837434700E+00  0.200000000000E+01 -0.403870114270E-02
  0.100000000000E+01  0.200000000000E+01  0.000000000000E+00
  0.863184801440E+00  0.200000000000E+01 -0.119697788720E-01
  0.708754398800E+00  0.200000000000E+01 -0.254806884070E-01
  0.500000000000E+00  0.200000000000E+01 -0.437443317630E-01
  0.291245601200E+00  0.200000000000E+01 -0.254806884070E-01
  0.136815198560E+00  0.200000000000E+01 -0.119697788720E-01
  0.461625652960E-01  0.200000000000E+01 -0.403870114270E-02
  0.000000000000E+00  0.200000000000E+01  0.000000000000E+00
  0.461625652960E-01  0.200000000000E+01  0.403870114270E-02
  0.136815198560E+00  0.200000000000E+01  0.119697788720E-01
  0.291245601200E+00  0.200000000000E+01  0.254806884070E-01
  0.500000000000E+00  0.200000000000E+01  0.437443317630E-01
  0.708754398800E+00  0.200000000000E+01  0.254806884070E-01
  0.863184801440E+00  0.200000000000E+01  0.119697788720E-01
  0.953837434700E+00  0.200000000000E+01  0.403870114270E-02
  0.953837434700E+00  0.200157141480E+01 -0.372111000410E-02
[...]
CELL_DATA                 800
SCALARS C_p_ise float 1
LOOKUP_TABLE default
 -0.240556294317E-01
 -0.240556276697E-01
 -0.240556271471E-01
 -0.240556271471E-01
 -0.240556271468E-01
 -0.240556271468E-01
 -0.240556271464E-01
 -0.240556271464E-01
  0.480380944816E-01
  0.480380944816E-01
  0.480380944826E-01
  0.480380944826E-01
  0.480380944816E-01
  0.480380944816E-01
  0.480380944822E-01
  0.480380944822E-01
  0.480380944822E-01
  0.480380944822E-01
  0.480380944816E-01
  0.480380944816E-01
  0.480380944826E-01
  0.480380944826E-01
  0.480380944816E-01
  0.480380944816E-01
 -0.240556271464E-01
 -0.240556271464E-01
 -0.240556271468E-01
 -0.240556271468E-01
 -0.240556271471E-01
 -0.240556271471E-01
 -0.240556266209E-01
 -0.240556248589E-01
 -0.240556233073E-01
 -0.240556294317E-01
 -0.240556271469E-01
 -0.240556271471E-01
 -0.240556271468E-01
 -0.240556271468E-01
 -0.240556271463E-01
 -0.240556271464E-01
  0.480380944816E-01
  0.480380944816E-01
  0.480380944826E-01
  0.480380944826E-01
  0.480380944816E-01
  0.480380944816E-01
  0.480380944822E-01
  0.480380944822E-01
  0.480380944822E-01
  0.480380944822E-01
  0.480380944816E-01
  0.480380944816E-01
  0.480380944826E-01
  0.480380944826E-01
  0.480380944816E-01
  0.480380944816E-01
 -0.240556271464E-01
 -0.240556271463E-01
 -0.240556271468E-01
 -0.240556271468E-01
 -0.240556271471E-01
 -0.240556271469E-01
 -0.240556248589E-01
 -0.240556309838E-01
 -0.240556259574E-01
 -0.240556233073E-01
 -0.240556271577E-01
 -0.240556271469E-01
 -0.240556271451E-01
 -0.240556271468E-01
 -0.240556271492E-01
 -0.240556271463E-01
  0.480380944816E-01
  0.480380944812E-01
  0.480380944826E-01
  0.480380944825E-01
  0.480380944816E-01
  0.480380944815E-01
  0.480380944822E-01
  0.480380944822E-01
  0.480380944822E-01
  0.480380944822E-01
  0.480380944815E-01
  0.480380944816E-01
  0.480380944825E-01
  0.480380944826E-01
  0.480380944812E-01
  0.480380944816E-01
 -0.240556271463E-01
 -0.240556271492E-01
 -0.240556271468E-01
 -0.240556271451E-01
 -0.240556271469E-01
 -0.240556271577E-01
 -0.240556309838E-01
 -0.240556282838E-01
 -0.240556281362E-01
 -0.240556259574E-01
 -0.240556262779E-01
 -0.240556271577E-01
 -0.240556273015E-01
 -0.240556271451E-01
 -0.240556268993E-01
 -0.240556271492E-01
  0.480380944812E-01
  0.480380945194E-01
  0.480380944825E-01
  0.480380944911E-01
  0.480380944815E-01
  0.480380944863E-01
  0.480380944822E-01
  0.480380944825E-01
  0.480380944825E-01
  0.480380944822E-01
  0.480380944863E-01
  0.480380944815E-01
  0.480380944911E-01
  0.480380944825E-01
  0.480380945194E-01
  0.480380944812E-01
 -0.240556271492E-01
 -0.240556268993E-01
 -0.240556271451E-01
 -0.240556273015E-01
 -0.240556271577E-01
 -0.240556262779E-01
 -0.240556282838E-01
 -0.240556302344E-01
 -0.240554739002E-01
 -0.240556281362E-01
 -0.240556894410E-01
 -0.240556262779E-01
 -0.240556143672E-01
 -0.240556273015E-01
 -0.240556474858E-01
 -0.240556268993E-01
  0.480380945195E-01
  0.480380911816E-01
  0.480380944911E-01
  0.480380937212E-01
  0.480380944863E-01
  0.480380940466E-01
  0.480380944825E-01
  0.480380944389E-01
  0.480380944389E-01
  0.480380944825E-01
  0.480380940466E-01
  0.480380944863E-01
  0.480380937212E-01
  0.480380944911E-01
  0.480380911816E-01
  0.480380945194E-01
 -0.240556268993E-01
 -0.240556474858E-01
 -0.240556273015E-01
 -0.240556143672E-01
 -0.240556262779E-01
 -0.240556894410E-01
 -0.240556302344E-01
 -0.240554808110E-01
 -0.240636040455E-01
 -0.240554739017E-01
 -0.240525802698E-01
 -0.240556894413E-01
 -0.240565609526E-01
 -0.240556143680E-01
 -0.240541537802E-01
 -0.240556474858E-01
  0.480380911816E-01
  0.480383627281E-01
  0.480380937212E-01
  0.480381602495E-01
  0.480380940466E-01
  0.480381329660E-01
  0.480380944389E-01
  0.480381002279E-01
  0.480381002279E-01
  0.480380944389E-01
  0.480381329660E-01
  0.480380940466E-01
  0.480381602495E-01
  0.480380937212E-01
  0.480383627281E-01
  0.480380911816E-01
 -0.240556474858E-01
 -0.240541537802E-01
 -0.240556143680E-01
 -0.240565609526E-01
 -0.240556894413E-01
 -0.240525802698E-01
 -0.240554808125E-01
 -0.240636021669E-01
 -0.238216026051E-01
 -0.240636060364E-01
 -0.241225490195E-01
 -0.240525810861E-01
 -0.240066848947E-01
 -0.240565632605E-01
 -0.241304759450E-01
 -0.240541538400E-01
  0.480383625898E-01
  0.480191979459E-01
  0.480381602426E-01
  0.480328396320E-01
  0.480381329654E-01
  0.480348812975E-01
  0.480381002279E-01
  0.480373321769E-01
  0.480373321769E-01
  0.480381002279E-01
  0.480348812975E-01
  0.480381329654E-01
  0.480328396320E-01
  0.480381602426E-01
  0.480191979460E-01
  0.480383625898E-01
 -0.240541538400E-01
 -0.241304759450E-01
 -0.240565632605E-01
 -0.240066848947E-01
 -0.240525810861E-01
 -0.241225490195E-01
 -0.240636041579E-01
 -0.238216101936E-01
 -0.260462557425E-01
 -0.238223051724E-01
 -0.243793079982E-01
 -0.241233470138E-01
 -0.253692704487E-01
 -0.240087364882E-01
 -0.221520599791E-01
 -0.241306357072E-01
  0.480188271787E-01
  0.489033436240E-01
  0.480328042148E-01
  0.483937953453E-01
  0.480348775707E-01
  0.482781649848E-01
  0.480373320616E-01
  0.481392452171E-01
  0.481392452171E-01
  0.480373320616E-01
  0.482781649848E-01
  0.480348775707E-01
  0.483937953454E-01
  0.480328042148E-01
  0.489033436238E-01
  0.480188271787E-01
 -0.241306357072E-01
 -0.221520599790E-01
 -0.240087364882E-01
 -0.253692704485E-01
 -0.241233470137E-01
 -0.243793079975E-01
 -0.238223127607E-01
 -0.260462613099E-01
  0.234040191229E-02
 -0.261066306434E-01
 -0.768840290389E-02
 -0.245076947093E-01
 -0.237654499441E-01
 -0.255102860279E-01
 -0.249019074982E-01
 -0.222695827283E-01
  0.486391259937E-01
  0.343090679557E-01
  0.483095922148E-01
  0.347370516490E-01
  0.482599307010E-01
  0.347969161712E-01
  0.481372154860E-01
  0.348780820047E-01
  0.348780820048E-01
  0.481372154860E-01
  0.347969161744E-01
  0.482599307011E-01
  0.347370516420E-01
  0.483095922149E-01
  0.343090679647E-01
  0.486391259936E-01
 -0.222695827281E-01
 -0.249019074926E-01
 -0.255102860276E-01
 -0.237654499509E-01
 -0.245076947086E-01
 -0.768840291835E-02
 -0.261066362028E-01
  0.234040193037E-02
 -0.105887928951E-01
 -0.124221251664E-01
 -0.890046361148E-02
 -0.180394064734E-01
 -0.241036702955E-01
 -0.231884980995E-01
 -0.259842739336E-01
  0.265211972037E-01
  0.265075628599E-01
  0.267081554447E-01
  0.267101659599E-01
  0.267585596497E-01
  0.267291996103E-01
  0.267656150632E-01
  0.267656150434E-01
  0.267291995987E-01
  0.267585596419E-01
  0.267101659477E-01
  0.267081554347E-01
  0.265075629164E-01
  0.265211972646E-01
 -0.259842739137E-01
 -0.231884981516E-01
 -0.241036703082E-01
 -0.180394064660E-01
 -0.890046362238E-02
 -0.124221251977E-01
 -0.105887929296E-01
 -0.119724358350E-01
 -0.863602857552E-02
 -0.731407311164E-02
 -0.120082518783E-01
 -0.188261255365E-01
 -0.225561790842E-01
 -0.205371007159E-01
  0.260385356481E-01
  0.260555841012E-01
  0.261891877841E-01
  0.261897143332E-01
  0.262416275848E-01
  0.262399166030E-01
  0.262676521364E-01
  0.262676521514E-01
  0.262399166043E-01
  0.262416275820E-01
  0.261897143577E-01
  0.261891878069E-01
  0.260555841126E-01
  0.260385356789E-01
 -0.205371007611E-01
 -0.225561790628E-01
 -0.188261255192E-01
 -0.120082518937E-01
 -0.731407311450E-02
 -0.863602856499E-02
 -0.119724358133E-01
 -0.125016834220E-01
 -0.609102469329E-02
 -0.628732072459E-02
 -0.653792263911E-02
 -0.125433051880E-01
 -0.225542843785E-01
 -0.192560367732E-01
  0.252752644114E-01
  0.252939251163E-01
  0.253968784099E-01
  0.254034473732E-01
  0.254416365911E-01
  0.254420916141E-01
  0.254679376902E-01
  0.254679376873E-01
  0.254420916064E-01
  0.254416365814E-01
  0.254034473618E-01
  0.253968784127E-01
  0.252939251481E-01
  0.252752644140E-01
 -0.192560367714E-01
 -0.225542843889E-01
 -0.125433052051E-01
 -0.653792265001E-02
 -0.628732073279E-02
 -0.609102469515E-02
 -0.125016833904E-01
 -0.127001620692E-01
 -0.510563548004E-02
 -0.565107383262E-02
 -0.388029432122E-02
 -0.654275800556E-02
 -0.219360357590E-01
 -0.200767435554E-01
  0.247538196054E-01
  0.247570023542E-01
  0.248633705008E-01
  0.248670993464E-01
  0.249000473975E-01
  0.249002377832E-01
  0.249257237674E-01
  0.249257237669E-01
  0.249002377827E-01
  0.249000473944E-01
  0.248670993448E-01
  0.248633704952E-01
  0.247570023516E-01
  0.247538196335E-01
 -0.200767435600E-01
 -0.219360357657E-01
 -0.654275801731E-02
 -0.388029432271E-02
 -0.565107384648E-02
 -0.510563547936E-02
 -0.127001620683E-01
 -0.240556251211E-01
 -0.240556276697E-01
 -0.240556271471E-01
 -0.240556271471E-01
 -0.240556271468E-01
 -0.240556271468E-01
 -0.240556271464E-01
 -0.240556271464E-01
  0.480380944816E-01
  0.480380944816E-01
  0.480380944826E-01
  0.480380944826E-01
  0.480380944816E-01
  0.480380944816E-01
  0.480380944822E-01
  0.480380944822E-01
  0.480380944822E-01
  0.480380944822E-01
  0.480380944816E-01
  0.480380944816E-01
  0.480380944826E-01
  0.480380944826E-01
  0.480380944816E-01
  0.480380944816E-01
 -0.240556271464E-01
 -0.240556271464E-01
 -0.240556271468E-01
 -0.240556271468E-01
 -0.240556271471E-01
 -0.240556271471E-01
 -0.240556266209E-01
 -0.240556291694E-01
 -0.240556307129E-01
 -0.240556251211E-01
 -0.240556271469E-01
 -0.240556271471E-01
 -0.240556271468E-01
 -0.240556271468E-01
 -0.240556271463E-01
 -0.240556271464E-01
  0.480380944816E-01
  0.480380944816E-01
  0.480380944826E-01
  0.480380944826E-01
  0.480380944816E-01
  0.480380944816E-01
  0.480380944822E-01
  0.480380944822E-01
  0.480380944822E-01
  0.480380944822E-01
  0.480380944816E-01
  0.480380944816E-01
  0.480380944826E-01
  0.480380944826E-01
  0.480380944816E-01
  0.480380944816E-01
 -0.240556271464E-01
 -0.240556271463E-01
 -0.240556271468E-01
 -0.240556271468E-01
 -0.240556271471E-01
 -0.240556271469E-01
 -0.240556291694E-01
 -0.240556235782E-01
 -0.240556289043E-01
 -0.240556307129E-01
 -0.240556271577E-01
 -0.240556271469E-01
 -0.240556271451E-01
 -0.240556271468E-01
 -0.240556271492E-01
 -0.240556271463E-01
  0.480380944816E-01
  0.480380944812E-01
  0.480380944826E-01
  0.480380944825E-01
  0.480380944816E-01
  0.480380944815E-01
  0.480380944822E-01
  0.480380944822E-01
  0.480380944822E-01
  0.480380944822E-01
  0.480380944815E-01
  0.480380944816E-01
  0.480380944825E-01
  0.480380944826E-01
  0.480380944812E-01
  0.480380944816E-01
 -0.240556271463E-01
 -0.240556271492E-01
 -0.240556271468E-01
 -0.240556271451E-01
 -0.240556271469E-01
 -0.240556271577E-01
 -0.240556235782E-01
 -0.240556253369E-01
 -0.240556322406E-01
 -0.240556289043E-01
 -0.240556262779E-01
 -0.240556271577E-01
 -0.240556273015E-01
 -0.240556271451E-01
 -0.240556268993E-01
 -0.240556271492E-01
  0.480380944812E-01
  0.480380945194E-01
  0.480380944825E-01
  0.480380944911E-01
  0.480380944815E-01
  0.480380944863E-01
  0.480380944822E-01
  0.480380944825E-01
  0.480380944825E-01
  0.480380944822E-01
  0.480380944863E-01
  0.480380944815E-01
  0.480380944911E-01
  0.480380944825E-01
  0.480380945194E-01
  0.480380944812E-01
 -0.240556271492E-01
 -0.240556268993E-01
 -0.240556271451E-01
 -0.240556273015E-01
 -0.240556271577E-01
 -0.240556262779E-01
 -0.240556253369E-01
 -0.240556261301E-01
 -0.240554787900E-01
 -0.240556322406E-01
 -0.240556894410E-01
 -0.240556262779E-01
 -0.240556143672E-01
 -0.240556273015E-01
 -0.240556474858E-01
 -0.240556268993E-01
  0.480380945195E-01
  0.480380911816E-01
  0.480380944911E-01
  0.480380937212E-01
  0.480380944863E-01
  0.480380940466E-01
  0.480380944825E-01
  0.480380944389E-01
  0.480380944389E-01
  0.480380944825E-01
  0.480380940466E-01
  0.480380944863E-01
  0.480380937212E-01
  0.480380944911E-01
  0.480380911816E-01
  0.480380945194E-01
 -0.240556268993E-01
 -0.240556474858E-01
 -0.240556273015E-01
 -0.240556143672E-01
 -0.240556262779E-01
 -0.240556894410E-01
 -0.240556261301E-01
 -0.240554759212E-01
 -0.240636026126E-01
 -0.240554787915E-01
 -0.240525802698E-01
 -0.240556894413E-01
 -0.240565609526E-01
 -0.240556143680E-01
 -0.240541537802E-01
 -0.240556474858E-01
  0.480380911816E-01
  0.480383627281E-01
  0.480380937212E-01
  0.480381602495E-01
  0.480380940466E-01
  0.480381329660E-01
  0.480380944389E-01
  0.480381002279E-01
  0.480381002279E-01
  0.480380944389E-01
  0.480381329660E-01
  0.480380940466E-01
  0.480381602495E-01
  0.480380937212E-01
  0.480383627281E-01
  0.480380911816E-01
 -0.240556474858E-01
 -0.240541537802E-01
 -0.240556143680E-01
 -0.240565609526E-01
 -0.240556894413E-01
 -0.240525802698E-01
 -0.240554759227E-01
 -0.240636035998E-01
 -0.238216110281E-01
 -0.240636046035E-01
 -0.241225490200E-01
 -0.240525810861E-01
 -0.240066848947E-01
 -0.240565632605E-01
 -0.241304759452E-01
 -0.240541538400E-01
  0.480383625898E-01
  0.480191979460E-01
  0.480381602426E-01
  0.480328396320E-01
  0.480381329654E-01
  0.480348812975E-01
  0.480381002279E-01
  0.480373321769E-01
  0.480373321769E-01
  0.480381002279E-01
  0.480348812975E-01
  0.480381329654E-01
  0.480328396320E-01
  0.480381602426E-01
  0.480191979460E-01
  0.480383625898E-01
 -0.240541538400E-01
 -0.241304759452E-01
 -0.240565632605E-01
 -0.240066848945E-01
 -0.240525810861E-01
 -0.241225490199E-01
 -0.240636055908E-01
 -0.238216017684E-01
 -0.260462602527E-01
 -0.238223135952E-01
 -0.243793080083E-01
 -0.241233470142E-01
 -0.253692704550E-01
 -0.240087364881E-01
 -0.221520599673E-01
 -0.241306357074E-01
  0.480188271787E-01
  0.489033436253E-01
  0.480328042149E-01
  0.483937953454E-01
  0.480348775707E-01
  0.482781649848E-01
  0.480373320616E-01
  0.481392452171E-01
  0.481392452171E-01
  0.480373320616E-01
  0.482781649848E-01
  0.480348775707E-01
  0.483937953454E-01
  0.480328042148E-01
  0.489033436284E-01
  0.480188271787E-01
 -0.241306357073E-01
 -0.221520599681E-01
 -0.240087364880E-01
 -0.253692704565E-01
 -0.241233470142E-01
 -0.243793080100E-01
 -0.238223043357E-01
 -0.260462567851E-01
  0.234040176388E-02
 -0.261066351465E-01
 -0.768840256268E-02
 -0.245076947204E-01
 -0.237654502715E-01
 -0.255102860323E-01
 -0.249019072359E-01
 -0.222695827176E-01
  0.486391259925E-01
  0.343090678775E-01
  0.483095922141E-01
  0.347370515390E-01
  0.482599307010E-01
  0.347969161733E-01
  0.481372154860E-01
  0.348780820065E-01
  0.348780820033E-01
  0.481372154859E-01
  0.347969161745E-01
  0.482599307010E-01
  0.347370516115E-01
  0.483095922146E-01
  0.343090677919E-01
  0.486391259950E-01
 -0.222695827187E-01
 -0.249019072450E-01
 -0.255102860342E-01
 -0.237654502187E-01
 -0.245076947219E-01
 -0.768840255302E-02
 -0.261066316842E-01
  0.234040167870E-02
 -0.105887928635E-01
 -0.124221248737E-01
 -0.890046336049E-02
 -0.180394067516E-01
 -0.241036706238E-01
 -0.231884979407E-01
 -0.259842736459E-01
  0.265211972584E-01
  0.265075629632E-01
  0.267081560129E-01
  0.267101663318E-01
  0.267585596283E-01
  0.267291995952E-01
  0.267656150564E-01
  0.267656150479E-01
  0.267291996063E-01
  0.267585596507E-01
  0.267101659595E-01
  0.267081554591E-01
  0.265075627813E-01
  0.265211971269E-01
 -0.259842736679E-01
 -0.231884979036E-01
 -0.241036705681E-01
 -0.180394067383E-01
 -0.890046330185E-02
 -0.124221248506E-01
 -0.105887930201E-01
 -0.119724358147E-01
 -0.863602836903E-02
 -0.731407293870E-02
 -0.120082522576E-01
 -0.188261257585E-01
 -0.225561787883E-01
 -0.205371005245E-01
  0.260385353748E-01
  0.260555836304E-01
  0.261891888025E-01
  0.261897153848E-01
  0.262416275853E-01
  0.262399166024E-01
  0.262676521385E-01
  0.262676521496E-01
  0.262399166049E-01
  0.262416275824E-01
  0.261897142690E-01
  0.261891877228E-01
  0.260555837276E-01
  0.260385353267E-01
 -0.205371005479E-01
 -0.225561786754E-01
 -0.188261257891E-01
 -0.120082521698E-01
 -0.731407282809E-02
 -0.863602824672E-02
 -0.119724358952E-01
 -0.125016834672E-01
 -0.609102460204E-02
 -0.628732061368E-02
 -0.653792278997E-02
 -0.125433056442E-01
 -0.225542844845E-01
 -0.192560365557E-01
  0.252752636766E-01
  0.252939242294E-01
  0.253968796129E-01
  0.254034486725E-01
  0.254416365932E-01
  0.254420916177E-01
  0.254679376898E-01
  0.254679376883E-01
  0.254420916093E-01
  0.254416365844E-01
  0.254034472404E-01
  0.253968783051E-01
  0.252939250859E-01
  0.252752641930E-01
 -0.192560363491E-01
 -0.225542841782E-01
 -0.125433054825E-01
 -0.653792289640E-02
 -0.628732049725E-02
 -0.609102447461E-02
 -0.125016834996E-01
 -0.127001621190E-01
 -0.510563540302E-02
 -0.565107374831E-02
 -0.388029449425E-02
 -0.654275815767E-02
 -0.219360356201E-01
 -0.200767434910E-01
  0.247538186754E-01
  0.247570017909E-01
  0.248633716274E-01
  0.248671001806E-01
  0.249000473980E-01
  0.249002377788E-01
  0.249257237681E-01
  0.249257237679E-01
  0.249002377786E-01
  0.249000473941E-01
  0.248671001790E-01
  0.248633707210E-01
  0.247570015544E-01
  0.247538196089E-01
 -0.200767433430E-01
 -0.219360356521E-01
 -0.654275826828E-02
 -0.388029447742E-02
 -0.565107367677E-02
 -0.510563540513E-02
 -0.127001621219E-01
SCALARS C_p_2nd float 1
LOOKUP_TABLE default
 -0.250013798362E-01
 -0.250013781534E-01
 -0.250013776546E-01
 -0.250013776546E-01
 -0.250013776543E-01
 -0.250013776543E-01
 -0.250013776538E-01
 -0.250013776538E-01
  0.625086110482E-01
  0.625086110482E-01
  0.625086110512E-01
  0.625086110512E-01
  0.625086110482E-01
  0.625086110482E-01
  0.625086110498E-01
  0.625086110498E-01
  0.625086110498E-01
  0.625086110498E-01
  0.625086110482E-01
  0.625086110482E-01
  0.625086110512E-01
  0.625086110512E-01
  0.625086110482E-01
  0.625086110482E-01
 -0.250013776538E-01
 -0.250013776538E-01
 -0.250013776543E-01
 -0.250013776543E-01
 -0.250013776546E-01
 -0.250013776546E-01
 -0.250013771517E-01
 -0.250013754689E-01
 -0.250013739871E-01
 -0.250013798362E-01
 -0.250013776545E-01
 -0.250013776546E-01
 -0.250013776543E-01
 -0.250013776543E-01
 -0.250013776538E-01
 -0.250013776538E-01
  0.625086110482E-01
  0.625086110482E-01
  0.625086110512E-01
  0.625086110512E-01
  0.625086110482E-01
  0.625086110482E-01
  0.625086110498E-01
  0.625086110498E-01
  0.625086110498E-01
  0.625086110498E-01
  0.625086110482E-01
  0.625086110482E-01
  0.625086110512E-01
  0.625086110512E-01
  0.625086110482E-01
  0.625086110482E-01
 -0.250013776538E-01
 -0.250013776538E-01
 -0.250013776543E-01
 -0.250013776543E-01
 -0.250013776546E-01
 -0.250013776545E-01
 -0.250013754689E-01
 -0.250013813186E-01
 -0.250013765181E-01
 -0.250013739871E-01
 -0.250013776647E-01
 -0.250013776545E-01
 -0.250013776526E-01
 -0.250013776543E-01
 -0.250013776565E-01
 -0.250013776538E-01
  0.625086110482E-01
  0.625086110476E-01
  0.625086110512E-01
  0.625086110511E-01
  0.625086110482E-01
  0.625086110481E-01
  0.625086110498E-01
  0.625086110498E-01
  0.625086110498E-01
  0.625086110498E-01
  0.625086110481E-01
  0.625086110482E-01
  0.625086110511E-01
  0.625086110512E-01
  0.625086110476E-01
  0.625086110482E-01
 -0.250013776538E-01
 -0.250013776565E-01
 -0.250013776543E-01
 -0.250013776526E-01
 -0.250013776545E-01
 -0.250013776647E-01
 -0.250013813186E-01
 -0.250013787400E-01
 -0.250013785990E-01
 -0.250013765181E-01
 -0.250013768245E-01
 -0.250013776647E-01
 -0.250013778020E-01
 -0.250013776526E-01
 -0.250013774178E-01
 -0.250013776565E-01
  0.625086110476E-01
  0.625086111022E-01
  0.625086110511E-01
  0.625086110633E-01
  0.625086110481E-01
  0.625086110549E-01
  0.625086110498E-01
  0.625086110503E-01
  0.625086110503E-01
  0.625086110498E-01
  0.625086110549E-01
  0.625086110481E-01
  0.625086110633E-01
  0.625086110511E-01
  0.625086111022E-01
  0.625086110476E-01
 -0.250013776565E-01
 -0.250013774178E-01
 -0.250013776526E-01
 -0.250013778020E-01
 -0.250013776647E-01
 -0.250013768245E-01
 -0.250013787400E-01
 -0.250013806029E-01
 -0.250012312950E-01
 -0.250013785990E-01
 -0.250014371487E-01
 -0.250013768245E-01
 -0.250013654491E-01
 -0.250013778020E-01
 -0.250013970791E-01
 -0.250013774178E-01
  0.625086111022E-01
  0.625086063375E-01
  0.625086110633E-01
  0.625086099643E-01
  0.625086110549E-01
  0.625086104272E-01
  0.625086110503E-01
  0.625086109880E-01
  0.625086109880E-01
  0.625086110503E-01