# vtk DataFile Version 3.0
TriPan results file. Generated by TriPan, USU AeroLab (c) 2021.
ASCII
DATASET POLYDATA
POINTS                  50 float
     19.580198288000      0.579897820950      0.000000000000
     98.995210171065      0.579897820950     14.575382156356
     19.000301361100      0.000000000000      0.000000000000
     98.976312976079      0.000000000000     14.678344874466
     20.321611404400      1.321311235430      0.000000000000
     99.019370720251      1.321311235430     14.443741676528
     21.262266159100      2.261965751650      0.000000000000
     99.050023988942      2.261965751650     14.276725150220
     22.444129943800      3.443829536440      0.000000000000
     99.088537575322      3.443829536440     14.066881120938
     23.911006927500      4.910706520080      0.000000000000
     99.136338932934      4.910706520080     13.806432005984
     25.704246521000      6.703944683070      0.000000000000
     99.194775521717      6.703944683070     13.488036073525
     27.856279373200      8.855978012080      0.000000000000
     99.264904164475      8.855978012080     13.105935148951
     30.382303237900     11.382001876800      0.000000000000
     99.347220112869     11.382001876800     12.657430818169
     33.271335601800     14.271034240700      0.000000000000
     99.441365477963     14.271034240700     12.144473064648
     36.479064941400     17.478763580300      0.000000000000
     99.545896272969     17.478763580300     11.574929553641
     39.925552368200     20.925249099700      0.000000000000
     99.658207516395     20.925249099700     10.962993713087
     43.500301361100     24.500000000000      0.000000000000
     99.774698440228     24.500000000000     10.328284584967
     47.075050354000     28.074750900300      0.000000000000
     99.891189364061     28.074750900300      9.693575456846
     50.521537780800     31.521236419700      0.000000000000
    100.003500607487     31.521236419700      9.081639616292
     53.729267120400     34.728965759300      0.000000000000
    100.108031402494     34.728965759300      8.512096105286
     56.618297576900     37.617996215800      0.000000000000
    100.202176705430     37.617996215800      7.999138690430
     59.144321441700     40.144020080600      0.000000000000
    100.284492653828     40.144020080600      7.550634359630
     61.296356201200     42.296054840100      0.000000000000
    100.354621358740     42.296054840100      7.168533096408
     63.089595794700     44.089294433600      0.000000000000
    100.413057947523     44.089294433600      6.850137163949
     64.556472778300     45.556171417200      0.000000000000
    100.460859305131     45.556171417200      6.589688049013
     65.738334655800     46.738033294700      0.000000000000
    100.499372829361     46.738033294700      6.379844358361
     66.678993225100     47.678688049300      0.000000000000
    100.530026222359     47.678688049300      6.212827154757
     67.420402526900     48.420101165800      0.000000000000
    100.554186647238     48.420101165800      6.081187352225
     68.000297546400     49.000000000000      0.000000000000
    100.573083780067     49.000000000000      5.978224972780
POLYGONS                  48                 192
3                   0                   1                   3
3                   0                   3                   2
3                   4                   5                   1
3                   4                   1                   0
3                   6                   7                   5
3                   6                   5                   4
3                   8                   9                   7
3                   8                   7                   6
3                  10                  11                   9
3                  10                   9                   8
3                  12                  13                  11
3                  12                  11                  10
3                  14                  15                  13
3                  14                  13                  12
3                  16                  17                  15
3                  16                  15                  14
3                  18                  19                  17
3                  18                  17                  16
3                  20                  21                  19
3                  20                  19                  18
3                  22                  23                  21
3                  22                  21                  20
3                  24                  25                  23
3                  24                  23                  22
3                  26                  27                  25
3                  26                  25                  24
3                  28                  29                  27
3                  28                  27                  26
3                  30                  31                  29
3                  30                  29                  28
3                  32                  33                  31
3                  32                  31                  30
3                  34                  35                  33
3                  34                  33                  32
3                  36                  37                  35
3                  36                  35                  34
3                  38                  39                  37
3                  38                  37                  36
3                  40                  41                  39
3                  40                  39                  38
3                  42                  43                  41
3                  42                  41                  40
3                  44                  45                  43
3                  44                  43                  42
3                  46                  47                  45
3                  46                  45                  44
3                  48                  49                  47
3                  48                  47                  46
POINT_DATA                  50
SCALARS mu float 1
LOOKUP_TABLE default
     -5.669784559882
     -5.669784559882
     -5.642930063084
     -5.642930063084
     -5.711888557103
     -5.711888557103
     -5.771395166870
     -5.771395166870
     -5.845426907352
     -5.845426907352
     -5.934598503670
     -5.934598503670
     -6.035089447631
     -6.035089447631
     -6.140245898663
     -6.140245898663
     -6.243801786212
     -6.243801786212
     -6.338919784580
     -6.338919784580
     -6.415578585446
     -6.415578585446
     -6.466264621203
     -6.466264621203
     -6.477863512998
     -6.477863512998
     -6.439160935369
     -6.439160935369
     -6.335967638538
     -6.335967638538
     -6.160419458640
     -6.160419458640
     -5.895939397082
     -5.895939397082
     -5.538919639228
     -5.538919639228
     -5.090380859432
     -5.090380859432
     -4.557435912523
     -4.557435912523
     -3.948429575617
     -3.948429575617
     -3.251702257383
     -3.251702257383
     -2.444274421118
     -2.444274421118
     -1.434768496210
     -1.434768496210
      0.000000000000
      0.000000000000
