# vtk DataFile Version 3.0
TriPan results file. Generated by TriPan, USU AeroLab (c) 2021.
ASCII
DATASET POLYDATA
POINTS                7064 float
  0.248117048081E-05  0.000000000000E+00 -0.200896182535E-21
  0.390009530229E-01  0.000000000000E+00 -0.109216802644E+00
  0.390009530229E-01  0.000000000000E+00  0.109216802644E+00
  0.147667587429E+00  0.000000000000E+00 -0.234918546461E+00
  0.147667587429E+00  0.000000000000E+00  0.234918546461E+00
  0.161140126811E+00  0.161136763467E+00 -0.907747527188E-22
  0.200138918513E+00  0.161136784202E+00 -0.109217282026E+00
  0.200138918513E+00  0.161136784202E+00  0.109217282026E+00
  0.290267336203E+00  0.000000000000E+00 -0.347330612704E+00
  0.290267336203E+00  0.000000000000E+00  0.347330612704E+00
  0.308805753889E+00  0.161136845646E+00 -0.234918966854E+00
  0.308805753889E+00  0.161136845646E+00  0.234918966854E+00
  0.335007894265E+00  0.335004341377E+00 -0.239726178949E-22
  0.374006676601E+00  0.335004371478E+00 -0.109217238696E+00
  0.374006676601E+00  0.335004371478E+00  0.109217238696E+00
  0.451405695827E+00  0.161137052624E+00 -0.347330980480E+00
  0.451405695827E+00  0.161137052624E+00  0.347330980480E+00
  0.473467227553E+00  0.000000000000E+00 -0.436290954441E+00
  0.473467227553E+00  0.000000000000E+00  0.436290954441E+00
  0.482673530543E+00  0.335004444157E+00 -0.234918888772E+00
  0.482673530543E+00  0.335004444157E+00  0.234918888772E+00
  0.522508472950E+00  0.522504716366E+00  0.126735146352E-22
  0.561507275069E+00  0.522504756486E+00 -0.109217191547E+00
  0.561507275069E+00  0.522504756486E+00  0.109217191547E+00
  0.625273429732E+00  0.335004664083E+00 -0.347330881903E+00
  0.625273429732E+00  0.335004664083E+00  0.347330881903E+00
  0.634605647116E+00  0.161137252065E+00 -0.436291201616E+00
  0.634605647116E+00  0.161137252065E+00  0.436291201616E+00
  0.670174087105E+00  0.522504841270E+00 -0.234918819742E+00
  0.670174087105E+00  0.522504841270E+00  0.234918819742E+00
  0.689336105034E+00  0.000000000000E+00 -0.522846809678E+00
  0.689336105034E+00  0.000000000000E+00  0.522846809678E+00
  0.724592348672E+00  0.724588373564E+00  0.000000000000E+00
  0.763591140102E+00  0.724588424374E+00 -0.109217140388E+00
  0.763591140102E+00  0.724588424374E+00  0.109217140388E+00
  0.808473398767E+00  0.335004875579E+00 -0.436291120216E+00
  0.808473398767E+00  0.335004875579E+00  0.436291120216E+00
  0.812774031945E+00  0.522505075150E+00 -0.347330805804E+00
  0.812774031945E+00  0.522505075150E+00  0.347330805804E+00
  0.850474557516E+00  0.161137351158E+00 -0.522846992743E+00
  0.850474557516E+00  0.161137351158E+00  0.522846992743E+00
  0.872257939128E+00  0.724588522168E+00 -0.234918744568E+00
  0.872257939128E+00  0.724588522168E+00  0.234918744568E+00
  0.942256171024E+00  0.942251961910E+00  0.284004058967E-22
  0.944065572333E+00  0.000000000000E+00 -0.604289928279E+00
  0.944065572333E+00  0.000000000000E+00  0.604289928279E+00
  0.981254891470E+00  0.942252024099E+00 -0.109217085037E+00
  0.981254891470E+00  0.942252024099E+00  0.109217085037E+00
  0.995973988017E+00  0.522505299608E+00 -0.436291030581E+00
  0.995973988017E+00  0.522505299608E+00  0.436291030581E+00
  0.101485792856E+01  0.724588771058E+00 -0.347330722008E+00
  0.101485792856E+01  0.724588771058E+00  0.347330722008E+00
  0.102434236145E+01  0.335004981989E+00 -0.522846935900E+00
  0.102434236145E+01  0.335004981989E+00  0.522846935900E+00
  0.108992173615E+01  0.942252135844E+00 -0.234918677862E+00
  0.108992173615E+01  0.942252135844E+00  0.234918677862E+00
  0.110520403330E+01  0.161137444330E+00 -0.604290132511E+00
  0.110520403330E+01  0.161137444330E+00  0.604290132511E+00
  0.117654153149E+01  0.117653707225E+01 -0.601761213589E-22
  0.119805781112E+01  0.724589009429E+00 -0.436290932283E+00
  0.119805781112E+01  0.724589009429E+00  0.436290932283E+00
  0.121184288325E+01  0.522505413871E+00 -0.522846810817E+00
  0.121184288325E+01  0.522505413871E+00  0.522846810817E+00
  0.121554029945E+01  0.117653714653E+01 -0.109217025314E+00
  0.121554029945E+01  0.117653714653E+01  0.109217025314E+00
  0.123252164987E+01  0.942252400848E+00 -0.347330630148E+00
  0.123252164987E+01  0.942252400848E+00  0.347330630148E+00
  0.123833332178E+01  0.000000000000E+00 -0.683992575719E+00
  0.123833332178E+01  0.000000000000E+00  0.683992575719E+00
  0.127907177119E+01  0.335005081612E+00 -0.604290012508E+00
  0.127907177119E+01  0.335005081612E+00  0.604290012508E+00
  0.132420706960E+01  0.117653727320E+01 -0.234918589542E+00
  0.132420706960E+01  0.117653727320E+01  0.234918589542E+00
  0.139947185373E+01  0.161137516738E+00 -0.683992760737E+00
  0.139947185373E+01  0.161137516738E+00  0.683992760737E+00
  0.141392675754E+01  0.724589132110E+00 -0.522846736253E+00
  0.141392675754E+01  0.724589132110E+00  0.522846736253E+00
  0.141572163672E+01  0.942252654127E+00 -0.436290824909E+00
  0.141572163672E+01  0.942252654127E+00  0.436290824909E+00
  0.142853317529E+01  0.142852844923E+01 -0.143497736444E-21
  0.146657240526E+01  0.522505520421E+00 -0.604289943199E+00
  0.146657240526E+01  0.522505520421E+00  0.604289943199E+00
  0.146680696606E+01  0.117653755546E+01 -0.347330529873E+00
  0.146680696606E+01  0.117653755546E+01  0.347330529873E+00
  0.146753193045E+01  0.142852853631E+01 -0.109216961055E+00
  0.146753193045E+01  0.142852853631E+01  0.109216961055E+00
  0.157333958654E+01  0.335005159101E+00 -0.683992698276E+00
  0.157333958654E+01  0.335005159101E+00  0.683992698276E+00
  0.157619868467E+01  0.142852867891E+01 -0.234918494249E+00
  0.157619868467E+01  0.142852867891E+01  0.234918494249E+00
  0.157642056144E+01  0.000000000000E+00 -0.760516189264E+00
  0.157642056144E+01  0.000000000000E+00  0.760516189264E+00
  0.163159057413E+01  0.942252785815E+00 -0.522846592560E+00
  0.163159057413E+01  0.942252785815E+00  0.522846592560E+00
  0.165000693697E+01  0.117653782469E+01 -0.436290708060E+00
  0.165000693697E+01  0.117653782469E+01  0.436290708060E+00
  0.166865627212E+01  0.724589246086E+00 -0.604289804906E+00
  0.166865627212E+01  0.724589246086E+00  0.604289804906E+00
  0.169935572313E+01  0.169935071303E+01  0.118317441648E-21
  0.171879856266E+01  0.142852897964E+01 -0.347330420851E+00
  0.171879856266E+01  0.142852897964E+01  0.347330420851E+00
  0.173755909906E+01  0.161137591741E+00 -0.760516356356E+00
  0.173755909906E+01  0.161137591741E+00  0.760516356356E+00
  0.173835434555E+01  0.169935081364E+01 -0.109216899558E+00
  0.173835434555E+01  0.169935081364E+01  0.109216899558E+00
  0.176084021515E+01  0.522505603365E+00 -0.683992567137E+00
  0.176084021515E+01  0.522505603365E+00  0.683992567137E+00
  0.184702120201E+01  0.169935097321E+01 -0.234918391742E+00
  0.184702120201E+01  0.169935097321E+01  0.234918391742E+00
  0.186587586475E+01  0.117653796600E+01 -0.522846498523E+00
  0.186587586475E+01  0.117653796600E+01  0.522846498523E+00
  0.188632008077E+01  0.942252907738E+00 -0.604289716380E+00
  0.188632008077E+01  0.942252907738E+00  0.604289716380E+00
  0.190199851656E+01  0.142852926588E+01 -0.436290581359E+00
  0.190199851656E+01  0.142852926588E+01  0.436290581359E+00
  0.191142682723E+01  0.335005238732E+00 -0.760516232872E+00
  0.191142682723E+01  0.335005238732E+00  0.760516232872E+00
  0.196138828406E+01  0.000000000000E+00 -0.833664252954E+00
  0.196138828406E+01  0.000000000000E+00  0.833664252954E+00
  0.196292407617E+01  0.724589334880E+00 -0.683992486046E+00
  0.196292407617E+01  0.724589334880E+00  0.683992486046E+00
  0.198962106032E+01  0.169935129362E+01 -0.347330302783E+00
  0.198962106032E+01  0.169935129362E+01  0.347330302783E+00
  0.199017003531E+01  0.199016472345E+01  0.179204840377E-21
  0.202916876266E+01  0.199016483834E+01 -0.109216825788E+00
  0.202916876266E+01  0.199016483834E+01  0.109216825788E+00
  0.209892745088E+01  0.522505687967E+00 -0.760516159807E+00
  0.209892745088E+01  0.522505687967E+00  0.760516159807E+00
  0.211786743409E+01  0.142852941745E+01 -0.522846394139E+00
  0.211786743409E+01  0.142852941745E+01  0.522846394139E+00
  0.212060548212E+01  0.117653809641E+01 -0.604289617574E+00
  0.212060548212E+01  0.117653809641E+01  0.604289617574E+00
  0.212252694648E+01  0.161137667481E+00 -0.833664346748E+00
  0.212252694648E+01  0.161137667481E+00  0.833664346748E+00
  0.213783548188E+01  0.199016501594E+01 -0.234918296716E+00
  0.213783548188E+01  0.199016501594E+01  0.234918296716E+00
  0.217282099607E+01  0.169935159800E+01 -0.436290474266E+00
  0.217282099607E+01  0.169935159800E+01  0.436290474266E+00
  0.218058787856E+01  0.942253002792E+00 -0.683992394927E+00
  0.218058787856E+01  0.942253002792E+00  0.683992394927E+00
  0.228043543846E+01  0.199016535729E+01 -0.347330175398E+00
  0.228043543846E+01  0.199016535729E+01  0.347330175398E+00
  0.229639467055E+01  0.335005318579E+00 -0.833664281975E+00
  0.229639467055E+01  0.335005318579E+00  0.833664281975E+00
  0.230101130656E+01  0.724589424811E+00 -0.760516077064E+00
  0.230101130656E+01  0.724589424811E+00  0.760516077064E+00
  0.230216808568E+01  0.230216245402E+01  0.132995971380E-21
  0.234116679803E+01  0.230216258391E+01 -0.109216747083E+00
  0.234116679803E+01  0.230216258391E+01  0.109216747083E+00
  0.237259704239E+01  0.142852955692E+01 -0.604289508070E+00
  0.237259704239E+01  0.142852955692E+01  0.604289508070E+00
  0.238869002190E+01  0.169935176048E+01 -0.522846219438E+00
  0.238869002190E+01  0.169935176048E+01  0.522846219438E+00
  0.239635584192E+01  0.000000000000E+00 -0.902056088369E+00
  0.239635584192E+01  0.000000000000E+00  0.902056088369E+00
  0.241487327321E+01  0.117653819815E+01 -0.683992293322E+00
  0.241487327321E+01  0.117653819815E+01  0.683992293322E+00
  0.244983373656E+01  0.230216278062E+01 -0.234918179192E+00
  0.244983373656E+01  0.230216278062E+01  0.234918179192E+00
  0.246363523572E+01  0.199016568095E+01 -0.436290326871E+00
  0.246363523572E+01  0.199016568095E+01  0.436290326871E+00
[...]
POINT_DATA                7064
SCALARS phi float 1
LOOKUP_TABLE default
 -0.245327314696E-05
 -0.222306690751E-01
 -0.548942132615E-01
 -0.110878643818E+00
 -0.181135894870E+00
 -0.159328328627E+00
 -0.181556788998E+00
 -0.214220476553E+00
 -0.235065478421E+00
 -0.338941883340E+00
 -0.270204971272E+00
 -0.340462348052E+00
 -0.331241193156E+00
 -0.353469650745E+00
 -0.386133325342E+00
 -0.394392004735E+00
 -0.498268519645E+00
 -0.402902824746E+00
 -0.533384660173E+00
 -0.442117856573E+00
 -0.512375210001E+00
 -0.516633586781E+00
 -0.538862070981E+00
 -0.571525731477E+00
 -0.566304850832E+00
 -0.670181336260E+00
 -0.562229428359E+00
 -0.692711337709E+00
 -0.627510238646E+00
 -0.697767571429E+00
 -0.603401395285E+00
 -0.759769549792E+00
 -0.716445308407E+00
 -0.738673789689E+00
 -0.771337434885E+00
 -0.734142289434E+00
 -0.864624174440E+00
 -0.751697279100E+00
 -0.855573741769E+00
 -0.762728041034E+00
 -0.919096250290E+00
 -0.827321948081E+00
 -0.897579258382E+00
 -0.931661801681E+00
 -0.843088156806E+00
 -0.102381356074E+01
 -0.953890221054E+00
 -0.986553849696E+00
 -0.919534706909E+00
 -0.105001656511E+01
 -0.951509033916E+00
 -0.105538547152E+01
 -0.934640950134E+00
 -0.109100914239E+01
 -0.104253842629E+01
 -0.111279571664E+01
 -0.100241480778E+01
 -0.118314027279E+01
 -0.116331294683E+01
 -0.111934639121E+01
 -0.124982822001E+01
 -0.112003330621E+01
 -0.127640146106E+01
 -0.118554142211E+01
 -0.121820503289E+01
 -0.116672544102E+01
 -0.127060185116E+01
 -0.112212890905E+01
 -0.132669103850E+01
 -0.117432766102E+01
 -0.135505309014E+01
 -0.127418955793E+01
 -0.134444682187E+01
 -0.128145563308E+01
 -0.148601781786E+01
 -0.131984503757E+01
 -0.147621317012E+01
 -0.133456290375E+01
 -0.146504470044E+01
 -0.141247129260E+01
 -0.135972011977E+01
 -0.154044552816E+01
 -0.139837655738E+01
 -0.150225293753E+01
 -0.143469976484E+01
 -0.146736335640E+01
 -0.145336847270E+01
 -0.165793063880E+01
 -0.152334788954E+01
 -0.159360512498E+01
 -0.144497183978E+01
 -0.167241993890E+01
 -0.153506154664E+01
 -0.169142963622E+01
 -0.156621400683E+01
 -0.169669576857E+01
 -0.155953185332E+01
 -0.174025722035E+01
 -0.168024881492E+01
 -0.164753487280E+01
 -0.175141122034E+01
 -0.160429857210E+01
 -0.183174672118E+01
 -0.170247716510E+01
 -0.173514073827E+01
 -0.163876093530E+01
 -0.184332306218E+01
 -0.179112539703E+01
 -0.186138260181E+01
 -0.176671263679E+01
 -0.192308069824E+01
 -0.177474834628E+01
 -0.195547368684E+01
 -0.181537230806E+01
 -0.194585403191E+01
 -0.177621141625E+01
 -0.200365952840E+01
 -0.181467291119E+01
 -0.206399745196E+01
 -0.183857265451E+01
 -0.204313475714E+01
 -0.191531236314E+01
 -0.201918867537E+01
 -0.196779332178E+01
 -0.199002178675E+01
 -0.202268533786E+01
 -0.196160386526E+01
 -0.218905195557E+01
 -0.201587092455E+01
 -0.217223895478E+01
 -0.200639954662E+01
 -0.218712485763E+01
 -0.197399977787E+01
 -0.222332434668E+01
 -0.207866988616E+01
 -0.214892706252E+01
 -0.208314977883E+01
 -0.221363147065E+01
 -0.205378914167E+01
 -0.225835121704E+01
 -0.220285695427E+01
 -0.230673322840E+01
 -0.214591260919E+01
 -0.239523715863E+01
 -0.216141557944E+01
 -0.238886364500E+01
 -0.227628338496E+01
 -0.229851184686E+01
 -0.233117537443E+01
 -0.225555782619E+01
 -0.243628310445E+01
 -0.228364851250E+01
 -0.244001649049E+01
 -0.223452286297E+01
 -0.250430139693E+01
 -0.228544033581E+01
 -0.249000238080E+01
 -0.238716016892E+01
 -0.245741731014E+01
 -0.237069423602E+01
 -0.250117588376E+01
 -0.233130517184E+01
 -0.258062969915E+01
 -0.237663206123E+01
 -0.260408009901E+01
 -0.239384984222E+01
 -0.266362841852E+01
 -0.251134698220E+01
 -0.261522321539E+01
 -0.260692221080E+01
 -0.252333539652E+01
 -0.270406063872E+01
 -0.253459860878E+01
 -0.273916062012E+01
 -0.262915066854E+01
 -0.266181417330E+01
 -0.257119295505E+01
 -0.272756089531E+01
 -0.253111688151E+01
 -0.278044138375E+01
 -0.256576267002E+01
 -0.283554122680E+01
 -0.260828324963E+01
 -0.283573125644E+01
 -0.267918448265E+01
 -0.280966608309E+01
 -0.271779897572E+01
 -0.278805608393E+01
 -0.270683743732E+01
 -0.299558840671E+01
 -0.274633335845E+01
 -0.299565783257E+01
 -0.275115523779E+01
 -0.302093375445E+01
 -0.284198600687E+01
 -0.294586219621E+01
 -0.281087982983E+01
 -0.299160503255E+01
 -0.280237617209E+01
 -0.300693814640E+01
 -0.287968318644E+01
 -0.303605108560E+01
 -0.296092974294E+01
 -0.285744175222E+01
 -0.308488972475E+01
 -0.298315819658E+01
 -0.301582167701E+01
 -0.286616418367E+01
 -0.315491519247E+01
 -0.300982324910E+01
 -0.314030480789E+01
 -0.295096694340E+01
 -0.322074543481E+01
 -0.297798454168E+01
 -0.322730898448E+01
 -0.307180648819E+01
 -0.314206356107E+01
 -0.303807701733E+01
 -0.332682798873E+01
 -0.308992083369E+01
 -0.329448276747E+01
 -0.311937005143E+01
 -0.330009521117E+01
 -0.312521930902E+01
 -0.335266724385E+01
 -0.319599350046E+01
 -0.329986964302E+01
 -0.321032194149E+01
 -0.336668979610E+01
 -0.316618340707E+01
 -0.343596188800E+01
 -0.333953370433E+01
 -0.322714303874E+01
 -0.347646744687E+01
 -0.322346957295E+01
 -0.351222052198E+01
 -0.336176215391E+01
 -0.339442560852E+01
 -0.323309218313E+01
 -0.353918605820E+01
 -0.336383071920E+01
 -0.349431223302E+01
 -0.345041019355E+01
 -0.352066722876E+01
 -0.339841081166E+01
 -0.360297270135E+01
 -0.341276396371E+01
 -0.364021185728E+01
 -0.339783482139E+01
 -0.366761327078E+01
 -0.345000879616E+01
 -0.363073390935E+01
 -0.339241918024E+01
 -0.369851307398E+01
 -0.342328151078E+01
 -0.371203243451E+01
 -0.349492058966E+01
 -0.374424495965E+01
 -0.357459718146E+01
 -0.367847328322E+01
 -0.356432963533E+01
 -0.372069744192E+01
 -0.356433199322E+01
 -0.387042588519E+01
 -0.374395851745E+01
 -0.364699307775E+01
 -0.391677149224E+01
 -0.376618696420E+01
 -0.379885038923E+01
 -0.363849797071E+01
 -0.392724888387E+01
 -0.374243462038E+01
 -0.387291607702E+01
 -0.372904978378E+01
 -0.393361162573E+01
 -0.372125417009E+01
 -0.394870201879E+01
 -0.385483498581E+01
 -0.392509198102E+01
 -0.380401647909E+01
 -0.398474154215E+01
 -0.374972455466E+01
 -0.405581840641E+01
 -0.378246522919E+01
 -0.403178957529E+01
 -0.381419284894E+01
 -0.413516500744E+01
 -0.387014914528E+01
 -0.415890002683E+01
 -0.394293351943E+01
 -0.409930127452E+01
 -0.397902218857E+01
 -0.408289823769E+01
 -0.391477085912E+01
 -0.418454923523E+01
 -0.394953648028E+01
 -0.425563032454E+01
 -0.397352007049E+01
 -0.429449228002E+01
 -0.405189312556E+01
 -0.427934094349E+01
 -0.417541304603E+01
 -0.408305722220E+01
 -0.428761901273E+01
 -0.414685960201E+01
 -0.427734100709E+01
 -0.419764172356E+01
 -0.423030512200E+01
 -0.409095519322E+01
 -0.434027949394E+01
 -0.411930763310E+01
 -0.440805847966E+01
 -0.418262035174E+01
 -0.436334536105E+01
 -0.414543289830E+01
 -0.446640507040E+01
 -0.416475295449E+01
 -0.447084675252E+01
 -0.428628972871E+01
 -0.435654668167E+01
 -0.420231549303E+01
 -0.447209384499E+01
 -0.434735801636E+01
 -0.450372571648E+01
 -0.441047690514E+01
 -0.451435290770E+01
 -0.433082567445E+01
 -0.465179784198E+01
 -0.440590079155E+01
 -0.463334855716E+01
 -0.438708563674E+01
 -0.467583646265E+01
 -0.442159415060E+01
 -0.467091840219E+01
 -0.439640458783E+01
 -0.470249837204E+01
 -0.446166131245E+01
 -0.466622306568E+01
 -0.445002695353E+01
 -0.478243216934E+01
 -0.463507715789E+01
 -0.457831429660E+01
 -0.470879564690E+01
 -0.451080592259E+01
 -0.478058422886E+01
 -0.465730583172E+01
 -0.468996919992E+01
 -0.458704530814E+01
 -0.476777026011E+01
 -0.453063761445E+01
 -0.485160973884E+01
 -0.460935370991E+01
 -0.494175897270E+01
 -0.474595381644E+01
 -0.481621072939E+01
 -0.464556306269E+01
 -0.495165682971E+01
 -0.467463027472E+01
 -0.496338105853E+01
 -0.477881315968E+01
 -0.493518081927E+01
 -0.478450440174E+01
 -0.501195212910E+01
 -0.477560180032E+01
 -0.502492601682E+01
 -0.474585406715E+01
 -0.506682618096E+01
 -0.487014096783E+01
 -0.497401692105E+01
 -0.478126700609E+01
 -0.511367223147E+01
 -0.486608625917E+01
 -0.507064795363E+01
 -0.484144486476E+01
 -0.511122313941E+01
 -0.491334059054E+01
 -0.521943433687E+01
 -0.503797833191E+01
 -0.516845963322E+01
 -0.501849996746E+01
 -0.519922487640E+01
 -0.512408357316E+01
 -0.498312021875E+01
 -0.527187097458E+01
 -0.496665930742E+01
 -0.529906452826E+01
 -0.497750524289E+01
 -0.529847730724E+01
 -0.514631224347E+01
 -0.517897558007E+01
 -0.523496020939E+01
 -0.530521707578E+01
 -0.515420587423E+01
 -0.540353005184E+01
 -0.518892933057E+01
 -0.541637701594E+01
 -0.513816169324E+01
 -0.547756461798E+01
 -0.523847718505E+01
 -0.539484478299E+01
 -0.519545250784E+01
 -0.546523074704E+01
 -0.516647124383E+01
 -0.549887642155E+01
 -0.520088523285E+01
 -0.550697891922E+01
 -0.522666418500E+01
 -0.554763623216E+01
 -0.529754090839E+01
 -0.550210255828E+01
 -0.535914733260E+01
 -0.546302323384E+01
 -0.531375963588E+01
 -0.560251034211E+01
 -0.529748845566E+01
 -0.563689142293E+01
 -0.538168816415E+01
 -0.571409333133E+01
 -0.547816397976E+01
 -0.565888882443E+01
 -0.552698467285E+01
 -0.565746591328E+01
 -0.546940174861E+01
 -0.580880467852E+01
 -0.564350254128E+01
 -0.549444170836E+01
 -0.581541373484E+01
 -0.550937564349E+01
 -0.581546930184E+01
 -0.566573073571E+01
 -0.569839404167E+01
 -0.555863079493E+01
 -0.580795492987E+01
 -0.557405658367E+01
 -0.584383476578E+01
 -0.562038445078E+01
 -0.584783207267E+01
 -0.561333931794E+01
 -0.594574447134E+01
 -0.575437915262E+01
 -0.582463597494E+01
 -0.572748351106E+01
 -0.588385104421E+01
 -0.566776727321E+01
 -0.595651794384E+01
 -0.565479451793E+01
 -0.599419744336E+01
 -0.575720490126E+01
 -0.596176650309E+01
 -0.587856577755E+01
 -0.598244162435E+01
 -0.578198632806E+01
 -0.610295833023E+01
 -0.584001457508E+01
 -0.614610820160E+01
 -0.585460645060E+01
 -0.619400933297E+01
 -0.586249827349E+01
 -0.619490337409E+01
 -0.587386211552E+01
 -0.621482486870E+01
 -0.596717028330E+01
 -0.614789507827E+01
 -0.604640356463E+01
 -0.617688474139E+01
 -0.597848149704E+01
 -0.624825963607E+01
 -0.599008589773E+01
 -0.623940998629E+01
 -0.604637133412E+01
 -0.633512196529E+01
 -0.608004843386E+01
 -0.630749600653E+01
 -0.619431944593E+01
 -0.603318888519E+01
 -0.637415167745E+01
 -0.621654810876E+01
 -0.624921138069E+01
 -0.606982289545E+01
 -0.640922576734E+01
 -0.609047673363E+01
 -0.641144870777E+01
 -0.613027579215E+01
 -0.646268087210E+01
 -0.624690237848E+01
 -0.640326986174E+01
 -0.630519603210E+01
 -0.637545280857E+01
 -0.619402267847E+01
 -0.650011626932E+01
 -0.624621166536E+01
 -0.645077321581E+01
 -0.620510217464E+01
 -0.654606492961E+01
 -0.630147451644E+01
 -0.664087737462E+01
 -0.642938310095E+01
 -0.653325889107E+01
 -0.640993611179E+01
 -0.667971422180E+01
 -0.639049494020E+01
 -0.673145769078E+01
 -0.644974987197E+01
 -0.669907391054E+01
 -0.648658913670E+01
 -0.666731387893E+01
 -0.642111613131E+01
 -0.674208807362E+01
 -0.641782087833E+01
 -0.675022593402E+01
 -0.645079624116E+01
 -0.673954682904E+01
 -0.659722038669E+01
 -0.672770150616E+01
 -0.656905518780E+01
 -0.679650270787E+01
 -0.655063299593E+01
 -0.689003580139E+01
 -0.657262673364E+01
 -0.687872028496E+01
 -0.659030686884E+01
 -0.693126957646E+01
 -0.677741736033E+01
 -0.679964601927E+01
 -0.683230925839E+01
 -0.665204823661E+01
 -0.698772019662E+01
 -0.676563050747E+01
 -0.697019200342E+01
 -0.679771966055E+01
 -0.695408707343E+01
 -0.672631127859E+01
 -0.705871630629E+01
 -0.688829392118E+01
 -0.695855065024E+01
 -0.677512375754E+01
 -0.709609566416E+01
 -0.680552330937E+01
 -0.714648600662E+01
 -0.681137501301E+01
 -0.714704697283E+01
 -0.681841098120E+01
 -0.715781376609E+01
 -0.686960054952E+01
 -0.713937860905E+01
 -0.688225132076E+01
 -0.717100187940E+01
 -0.693875661672E+01
 -0.718808060185E+01
 -0.701248096179E+01
 -0.711635669326E+01
 -0.703740639542E+01
 -0.721813108215E+01
 -0.697705163467E+01
 -0.728314514261E+01
 -0.698328828165E+01
 -0.731896023995E+01
 -0.708847353902E+01
 -0.731592102113E+01
 -0.703717492574E+01
 -0.737813760939E+01
 -0.705695019919E+01
 -0.738935519510E+01
 -0.718031821701E+01
 -0.731079927698E+01
 -0.710595606219E+01
 -0.744535882290E+01
 -0.715372827821E+01
 -0.747470014527E+01
 -0.716868106185E+01
 -0.750435298022E+01
 -0.739355111616E+01
 -0.731644775456E+01
 -0.752100919317E+01
 -0.741577930004E+01
 -0.744844250551E+01
 -0.728633387177E+01
 -0.762729650283E+01
 -0.738081699862E+01
 -0.753718435659E+01
 -0.734191575160E+01
 -0.763066625951E+01
 -0.735860728598E+01
 -0.762838529156E+01
 -0.736849296922E+01
 -0.770416488043E+01
 -0.750442765163E+01
 -0.757468433198E+01
 -0.740850669909E+01
 -0.771460019551E+01
 -0.741095829095E+01
 -0.774336325121E+01
 -0.745817543883E+01
 -0.770749936731E+01
 -0.741444645694E+01
 -0.775384918976E+01
 -0.746294721523E+01
 -0.778870989972E+01
 -0.762861466344E+01
 -0.773249033462E+01
 -0.762050419016E+01
 -0.780122881895E+01
 -0.755815317296E+01
 -0.787912499662E+01
 -0.755411185176E+01
 -0.789507446240E+01
 -0.758370989537E+01
 -0.791938176069E+01
 -0.763929124679E+01
 -0.786673867023E+01
 -0.762227446313E+01
 -0.794803714376E+01
 -0.779645188760E+01
 -0.792693288621E+01
 -0.774508537169E+01
 -0.808448807282E+01
 -0.778956233390E+01
 -0.812196725464E+01
 -0.779418772959E+01
 -0.811995040881E+01
 -0.783092247199E+01
 -0.811967294350E+01
 -0.781536150779E+01
 -0.815103335968E+01
 -0.789954506591E+01
 -0.810410644468E+01
 -0.784165645567E+01
 -0.818261904227E+01
 -0.787802609061E+01
 -0.814780405680E+01
 -0.786817159484E+01
 -0.817426504040E+01
 -0.804332561561E+01
 -0.799695064808E+01
 -0.815331794920E+01
 -0.806555473922E+01
 -0.809821791038E+01
 -0.800899265642E+01
 -0.825831654314E+01
 -0.797958050743E+01
 -0.830534314686E+01
 -0.798960824863E+01
 -0.831058002506E+01
 -0.815420306873E+01
 -0.822445969937E+01
 -0.806452043178E+01
 -0.840019226691E+01
 -0.809909392876E+01
 -0.843849659434E+01
 -0.815014684447E+01
 -0.849110940333E+01
 -0.823663782452E+01
 -0.841736239334E+01
 -0.827838957539E+01
 -0.838226519395E+01
 -0.822238949000E+01
 -0.844983685221E+01
 -0.817939288378E+01
 -0.850515551617E+01
 -0.819398767573E+01
 -0.852639258873E+01
 -0.829674516114E+01
 -0.860816512329E+01
 -0.835034174068E+01
 -0.863909217251E+01
 -0.833229793581E+01
 -0.866796975069E+01
 -0.835717784586E+01
 -0.866327123705E+01
 -0.844622724397E+01
 -0.857670817981E+01
 -0.839460931794E+01
 -0.872037194024E+01
 -0.842884377084E+01
 -0.869862169468E+01
 -0.844927264821E+01
 -0.877024440939E+01
 -0.845607287837E+01
 -0.876749283310E+01
 -0.851567915960E+01
 -0.872024047645E+01
 -0.847769843667E+01
 -0.881710106282E+01
 -0.848078622439E+01
 -0.882174875170E+01
 -0.859209040922E+01
 -0.884141425159E+01
 -0.864672551163E+01
 -0.880309275440E+01
 -0.872717320055E+01
 -0.874940232134E+01
 -0.878206545778E+01
 -0.862798614291E+01
 -0.893940609634E+01
 -0.861984347790E+01
 -0.895551526893E+01
 -0.862626141679E+01
 -0.895202399016E+01
 -0.862544274451E+01
 -0.895784761033E+01
 -0.883804968342E+01
 -0.890830626815E+01
 -0.883852262051E+01
 -0.906596993720E+01
 -0.881337891871E+01
 -0.912479883244E+01
 -0.888641267273E+01
 -0.906713718002E+01
 -0.883479477480E+01
 -0.917575726673E+01
 -0.896223710575E+01
 -0.906611266194E+01
 -0.887659709860E+01
 -0.918269046777E+01
 -0.887541939476E+01
 -0.920118195152E+01
 -0.890115847924E+01
 -0.918990885057E+01
 -0.888212377167E+01
 -0.922152639018E+01
 -0.892833386162E+01
 -0.926400562512E+01
 -0.893827983506E+01
 -0.925925154180E+01
 -0.901194152350E+01
 -0.928171938454E+01
 -0.901319034989E+01
 -0.932461025671E+01
 -0.913007474256E+01
 -0.926055561469E+01
 -0.908510715474E+01
 -0.941751196966E+01
 -0.916545398655E+01
 -0.937001525770E+01
 -0.914279767363E+01
 -0.943610824365E+01
 -0.914319783847E+01
 -0.946896037516E+01
 -0.920822448136E+01
 -0.945754825939E+01
 -0.921339927568E+01
 -0.955436172836E+01
 -0.922840772462E+01
 -0.953982762148E+01
 -0.933057298870E+01
 -0.948694017213E+01
 -0.925897323616E+01
 -0.959464496833E+01
 -0.944532630696E+01
 -0.930212450825E+01
 -0.959543473571E+01
 -0.931357883329E+01
 -0.965298140471E+01
 -0.946755448128E+01
 -0.950021758508E+01
 -0.942741477285E+01
 -0.973350808134E+01
 -0.955620276513E+01
 -0.962645929924E+01
 -0.943074337706E+01
 -0.975650589009E+01
 -0.948829837894E+01
 -0.971574564846E+01
 -0.946005982093E+01
 -0.977147966900E+01
 -0.945769908041E+01
 -0.977867076504E+01
 -0.947403777686E+01
 -0.976734799891E+01
 -0.948425714919E+01
 -0.977300749302E+01
 -0.957026013432E+01
 -0.975098457906E+01
 -0.968039015339E+01
 -0.978426565581E+01
 -0.957411431630E+01
 -0.990651911244E+01
 -0.962807556857E+01
 -0.989785340027E+01
 -0.961298178089E+01
 -0.994865347790E+01
 -0.961782460328E+01
 -0.995878704851E+01
 -0.965943053857E+01
 -0.995274075329E+01
 -0.970921779619E+01
 -0.100206376278E+02
 -0.973923375713E+01
 -0.100649962428E+02
 -0.984822775831E+01
 -0.997870857529E+01
 -0.977324321825E+01
 -0.101126457745E+02
 -0.984930143572E+01
 -0.100538626423E+02
 -0.985800022939E+01
 -0.101073239592E+02
 -0.985924291617E+01
 -0.101525531215E+02
 -0.998932651975E+01
 -0.102621225716E+02
 -0.100487269303E+02
 -0.102050940540E+02
 -0.997699623698E+01
 -0.102884160487E+02
 -0.999158627581E+01
 -0.103272579338E+02
 -0.100105134354E+02
 -0.103166067162E+02
 -0.100085167470E+02
 -0.103294883709E+02
 -0.101977971915E+02
 -0.100492796572E+02
 -0.103902420555E+02
 -0.100744602940E+02
 -0.103677704877E+02
 -0.100698731277E+02
 -0.103956355823E+02
 -0.102200253638E+02
 -0.102526884329E+02
 -0.101003911951E+02
 -0.103891414914E+02
 -0.100935335717E+02
 -0.104259383101E+02
 -0.101486541957E+02
 -0.104214502738E+02
 -0.101721458165E+02
 -0.103995930199E+02
 -0.103086736232E+02
 -0.103789301114E+02
 -0.102884140604E+02
 -0.104691384422E+02
 -0.102778513073E+02
 -0.105476290901E+02
 -0.102645417725E+02
 -0.105759615607E+02
 -0.102622503898E+02
 -0.106016528918E+02
 -0.103061114323E+02
 -0.105994216121E+02
 -0.103205674696E+02
 -0.105933635376E+02
 -0.104328600368E+02
 -0.105367354857E+02
 -0.103960116150E+02
 -0.107316832301E+02
 -0.104238816683E+02
 -0.107496440879E+02
 -0.105059602276E+02
 -0.107787563021E+02
 -0.106006976144E+02
 -0.107311783676E+02
 -0.105418476476E+02
 -0.107911713281E+02
 -0.105674553404E+02
 -0.107720164997E+02
 -0.105089449770E+02
 -0.108499073603E+02
 -0.105552703530E+02
 -0.108485805163E+02
 -0.105730321671E+02
 -0.108844518925E+02
 -0.105916154017E+02
 -0.109125869978E+02
 -0.106266474649E+02
 -0.109327407157E+02
 -0.106443512125E+02
 -0.109767559258E+02
 -0.107057726011E+02
 -0.109785686808E+02
 -0.108011967648E+02
 -0.109575638290E+02
 -0.107501659827E+02
 -0.110389162298E+02
 -0.108252930466E+02
 -0.110754121910E+02
 -0.107816696194E+02
 -0.111210720993E+02
 -0.108024861588E+02
 -0.111282485397E+02
 -0.108230487871E+02
 -0.111163589489E+02
 -0.109843520002E+02
 -0.108274666622E+02
 -0.111631382306E+02
 -0.108902987666E+02
 -0.111177459213E+02
 -0.110065801700E+02
 -0.110392432069E+02
 -0.109209899748E+02
 -0.111937860582E+02
 -0.109036715343E+02
 -0.112150912288E+02
 -0.109616987159E+02
 -0.112314764487E+02
 -0.109846207352E+02
 -0.112347398946E+02
 -0.110952284062E+02
 -0.111654848490E+02
 -0.110408838705E+02
 -0.112216082074E+02
 -0.109979521401E+02
 -0.113389144693E+02
 -0.111105943244E+02
 -0.114039044639E+02
 -0.112194157312E+02
 -0.113232911274E+02
 -0.111565340001E+02
 -0.114066531671E+02
 -0.111526410997E+02
 -0.114254372030E+02
 -0.112077494232E+02
 -0.115287209892E+02
 -0.112069114934E+02
 -0.115326738316E+02
 -0.112600005782E+02
 -0.115093242268E+02
 -0.112274498591E+02
 -0.115598545445E+02
 -0.112576800712E+02
 -0.115690997309E+02
 -0.113199251380E+02
 -0.115244862505E+02
 -0.112764222536E+02
 -0.115825154372E+02
 -0.113872532773E+02
 -0.115177339766E+02
 -0.112871319751E+02
 -0.116228035288E+02
 -0.113419267576E+02
 -0.115920459311E+02
 -0.113324882126E+02
 -0.116718906318E+02
 -0.114018000157E+02
 -0.116745961190E+02
 -0.114190846939E+02
 -0.117123948259E+02
 -0.114340143174E+02
 -0.117227645318E+02
 -0.115877524109E+02
 -0.117441194167E+02
 -0.115417391310E+02
 -0.117918583095E+02
 -0.115173713609E+02
 -0.118583336683E+02
 -0.116397352506E+02
 -0.118664506007E+02
 -0.116427694867E+02