# vtk DataFile Version 3.0
TriPan results file. Generated by TriPan, USU AeroLab (c) 2021.
ASCII
DATASET POLYDATA
POINTS                 144 float
  0.000000000000E+00  0.000000000000E+00  0.000000000000E+00
  0.113538098335E+01  0.000000000000E+00 -0.658124566078E+00
  0.113538098335E+01  0.000000000000E+00  0.658124566078E+00
  0.192375373840E+01  0.192375373840E+01  0.000000000000E+00
  0.305913543701E+01  0.192375373840E+01 -0.658124983311E+00
  0.305913543701E+01  0.192375373840E+01  0.658124983311E+00
  0.423028087616E+01  0.000000000000E+00 -0.108747220039E+01
  0.423028087616E+01  0.000000000000E+00  0.108747220039E+01
  0.547033166885E+01  0.547033166885E+01  0.000000000000E+00
  0.615403699875E+01  0.192375373840E+01 -0.108747279644E+01
  0.615403699875E+01  0.192375373840E+01  0.108747279644E+01
  0.660571479797E+01  0.547033166885E+01 -0.658125698566E+00
  0.660571479797E+01  0.547033166885E+01  0.658125698566E+00
  0.939508819580E+01  0.000000000000E+00 -0.980745851994E+00
  0.939508819580E+01  0.000000000000E+00  0.980745851994E+00
  0.970061969757E+01  0.547033166885E+01 -0.108747410774E+01
  0.970061969757E+01  0.547033166885E+01  0.108747410774E+01
  0.113188476562E+02  0.192375373840E+01 -0.980746448040E+00
  0.113188476562E+02  0.192375373840E+01  0.980746448040E+00
  0.113820018768E+02  0.113820018768E+02  0.000000000000E+00
  0.125173873901E+02  0.113820018768E+02 -0.658127009869E+00
  0.125173873901E+02  0.113820018768E+02  0.658127009869E+00
  0.145402030945E+02  0.000000000000E+00 -0.479613035917E+00
  0.145402030945E+02  0.000000000000E+00  0.479613035917E+00
  0.148654365540E+02  0.547033166885E+01 -0.980747580528E+00
  0.148654365540E+02  0.547033166885E+01  0.980747580528E+00
  0.156122989655E+02  0.113820018768E+02 -0.108747613430E+01
  0.156122989655E+02  0.113820018768E+02  0.108747613430E+01
  0.164639663696E+02  0.192375373840E+01 -0.479613333941E+00
  0.164639663696E+02  0.192375373840E+01  0.479613333941E+00
  0.176505107880E+02  0.000000000000E+00 -0.144198849797E+00
  0.176505107880E+02  0.000000000000E+00  0.144198849797E+00
  0.190000000000E+02  0.000000000000E+00  0.000000000000E+00
  0.195742740631E+02  0.192375373840E+01 -0.144198939204E+00
  0.195742740631E+02  0.192375373840E+01  0.144198939204E+00
  0.197561950684E+02  0.197561950684E+02  0.000000000000E+00
  0.200105609894E+02  0.547033166885E+01 -0.479613870382E+00
  0.200105609894E+02  0.547033166885E+01  0.479613870382E+00
  0.207771244049E+02  0.113820018768E+02 -0.980749428272E+00
  0.207771244049E+02  0.113820018768E+02  0.980749428272E+00
  0.208915824890E+02  0.197561950684E+02 -0.658128738403E+00
  0.208915824890E+02  0.197561950684E+02  0.658128738403E+00
  0.209237651825E+02  0.192375373840E+01  0.000000000000E+00
  0.231208724976E+02  0.547033166885E+01 -0.144199103117E+00
  0.231208724976E+02  0.547033166885E+01  0.144199103117E+00
  0.239865016937E+02  0.197561950684E+02 -0.108747911453E+01
  0.239865016937E+02  0.197561950684E+02  0.108747911453E+01
  0.244703655243E+02  0.547033166885E+01  0.000000000000E+00
  0.259222583771E+02  0.113820018768E+02 -0.479614794254E+00
  0.259222583771E+02  0.113820018768E+02  0.479614794254E+00
  0.290325775146E+02  0.113820018768E+02 -0.144199386239E+00
  0.290325775146E+02  0.113820018768E+02  0.144199386239E+00
  0.291513423920E+02  0.197561950684E+02 -0.980752110481E+00
  0.291513423920E+02  0.197561950684E+02  0.980752110481E+00
  0.292438049316E+02  0.292438049316E+02  0.000000000000E+00
  0.303791980743E+02  0.292438049316E+02 -0.658130764961E+00
  0.303791980743E+02  0.292438049316E+02  0.658130764961E+00
  0.303820724487E+02  0.113820018768E+02  0.000000000000E+00
  0.334741249084E+02  0.292438049316E+02 -0.108748245239E+01
  0.334741249084E+02  0.292438049316E+02  0.108748245239E+01
  0.342964897156E+02  0.197561950684E+02 -0.479616105556E+00
  0.342964897156E+02  0.197561950684E+02  0.479616105556E+00
  0.374068183899E+02  0.197561950684E+02 -0.144199773669E+00
  0.374068183899E+02  0.197561950684E+02  0.144199773669E+00
  0.376179962158E+02  0.376179962158E+02  0.000000000000E+00
  0.386389808655E+02  0.292438049316E+02 -0.980755090714E+00
  0.386389808655E+02  0.292438049316E+02  0.980755090714E+00
  0.387533912659E+02  0.376179962158E+02 -0.658132553101E+00
  0.387533912659E+02  0.376179962158E+02  0.658132553101E+00
  0.387563171387E+02  0.197561950684E+02  0.000000000000E+00
  0.418483314514E+02  0.376179962158E+02 -0.108748543262E+01
  0.418483314514E+02  0.376179962158E+02  0.108748543262E+01
  0.435296669006E+02  0.435296669006E+02  0.000000000000E+00
  0.437841453552E+02  0.292438049316E+02 -0.479617565870E+00
  0.437841453552E+02  0.292438049316E+02  0.479617565870E+00
  0.446650657654E+02  0.435296669006E+02 -0.658133804798E+00
  0.446650657654E+02  0.435296669006E+02  0.658133804798E+00
  0.468944816589E+02  0.292438049316E+02 -0.144200220704E+00
  0.468944816589E+02  0.292438049316E+02  0.144200220704E+00
  0.470131988525E+02  0.376179962158E+02 -0.980757772923E+00
  0.470131988525E+02  0.376179962158E+02  0.980757772923E+00
  0.470762481689E+02  0.470762481689E+02  0.000000000000E+00
  0.477600097656E+02  0.435296669006E+02 -0.108748745918E+01
  0.477600097656E+02  0.435296669006E+02  0.108748745918E+01
  0.482116432190E+02  0.470762481689E+02 -0.658134579659E+00
  0.482116432190E+02  0.470762481689E+02  0.658134579659E+00
  0.482439842224E+02  0.292438049316E+02  0.000000000000E+00
  0.490000000000E+02  0.490000000000E+02  0.000000000000E+00
  0.501353988647E+02  0.490000000000E+02 -0.658134996891E+00
  0.501353988647E+02  0.490000000000E+02  0.658134996891E+00
  0.506007728577E+02  0.494653701782E+02 -0.465371757746E+00
  0.506007728577E+02  0.494653701782E+02  0.465371757746E+00
  0.507935333252E+02  0.496581344604E+02 -0.771266485397E-15
  0.513065910339E+02  0.470762481689E+02 -0.108748877048E+01
  0.513065910339E+02  0.470762481689E+02  0.108748877048E+01
  0.521583786011E+02  0.376179962158E+02 -0.479618877172E+00
  0.521583786011E+02  0.376179962158E+02  0.479618877172E+00
  0.529248886108E+02  0.435296669006E+02 -0.980759620667E+00
  0.529248886108E+02  0.435296669006E+02  0.980759620667E+00
  0.532303466797E+02  0.490000000000E+02 -0.108748936653E+01
  0.532303466797E+02  0.490000000000E+02  0.108748936653E+01
  0.539993209839E+02  0.497689704895E+02 -0.768971264362E+00
  0.539993209839E+02  0.497689704895E+02  0.768971264362E+00
  0.543178405762E+02  0.500874900818E+02 -0.157378642191E-15
  0.552687225342E+02  0.376179962158E+02 -0.144200608134E+00
  0.552687225342E+02  0.376179962158E+02  0.144200608134E+00
  0.564714775085E+02  0.470762481689E+02 -0.980760753155E+00
  0.564714775085E+02  0.470762481689E+02  0.980760753155E+00
  0.566182289124E+02  0.376179962158E+02  0.000000000000E+00
  0.580700759888E+02  0.435296669006E+02 -0.479619771242E+00
  0.580700759888E+02  0.435296669006E+02  0.479619771242E+00
  0.583952369690E+02  0.490000000000E+02 -0.980761349201E+00
  0.583952369690E+02  0.490000000000E+02  0.980761349201E+00
  0.590887413025E+02  0.496935043335E+02 -0.693503141403E+00
  0.590887413025E+02  0.496935043335E+02  0.693503141403E+00
  0.593759994507E+02  0.499807624817E+02  0.000000000000E+00
  0.611804275513E+02  0.435296669006E+02 -0.144200876355E+00
  0.611804275513E+02  0.435296669006E+02  0.144200876355E+00
  0.616166725159E+02  0.470762481689E+02 -0.479620337486E+00
  0.616166725159E+02  0.470762481689E+02  0.479620337486E+00
  0.625299339294E+02  0.435296669006E+02  0.000000000000E+00
  0.635404319763E+02  0.490000000000E+02 -0.479620635509E+00
  0.635404319763E+02  0.490000000000E+02  0.479620635509E+00
  0.638795776367E+02  0.493391418457E+02 -0.339143037796E+00
  0.638795776367E+02  0.493391418457E+02  0.339143037796E+00
  0.640200576782E+02  0.494796218872E+02  0.296956834055E-15
  0.647270278931E+02  0.470762481689E+02 -0.144201040268E+00
  0.647270278931E+02  0.470762481689E+02  0.144201040268E+00
  0.660765380859E+02  0.470762481689E+02  0.000000000000E+00
  0.666507873535E+02  0.490000000000E+02 -0.144201144576E+00
  0.666507873535E+02  0.490000000000E+02  0.144201144576E+00
  0.667527542114E+02  0.491019668579E+02 -0.101965606213E+00
  0.667527542114E+02  0.491019668579E+02  0.101965606213E+00
  0.667949905396E+02  0.491441993713E+02 -0.260488604752E-16
  0.680002975464E+02  0.490000000000E+02  0.000000000000E+00
  0.209237651825E+02  0.192375373840E+01  0.000000000000E+00
  0.190000000000E+02  0.000000000000E+00  0.000000000000E+00
  0.244703655243E+02  0.547033166885E+01  0.000000000000E+00
  0.303820724487E+02  0.113820018768E+02  0.000000000000E+00
  0.387563171387E+02  0.197561950684E+02  0.000000000000E+00
  0.482439842224E+02  0.292438049316E+02  0.000000000000E+00
  0.566182289124E+02  0.376179962158E+02  0.000000000000E+00
  0.625299339294E+02  0.435296669006E+02  0.000000000000E+00
  0.660765380859E+02  0.470762481689E+02  0.000000000000E+00
POLYGONS                 256                1024
3                  32                  33                  42
3                  32                  30                  33
3                  30                  28                  33
3                  30                  22                  28
3                  22                  17                  28
3                  22                  13                  17
3                  13                   6                  17
3                  17                   6                   9
3                   6                   1                   9
3                   9                   1                   4
3                   1                   0                   4
3                   4                   0                   3
3                   0                   5                   3
3                   0                   2                   5
3                   2                  10                   5
3                   2                   7                  10
[...]
CELL_DATA                 256
SCALARS sigma float 1
LOOKUP_TABLE default
  0.433898401077E-01
  0.433897567250E-01
  0.424177729292E-01
  0.424178386047E-01
  0.527328368556E-01
  0.527328229061E-01
  0.129048440363E+00
  0.129048453727E+00
  0.281339673447E+00
  0.281339659232E+00
  0.558885002068E+00
  0.558885002677E+00
  0.327594937813E+00
  0.327594936722E+00
 -0.121363266110E-01
 -0.121363099868E-01
 -0.169894607699E+00
 -0.169894620678E+00
 -0.243540396289E+00
 -0.243540382066E+00
 -0.253234341459E+00
 -0.253234406334E+00
 -0.252323557308E+00
 -0.252323477326E+00
  0.433898690953E-01
  0.433898399793E-01
  0.424177848532E-01
  0.424177725821E-01
  0.527328295493E-01
  0.527328369426E-01
  0.129048453600E+00
  0.129048443805E+00
  0.281339659905E+00
  0.281339696959E+00
  0.558884996453E+00
  0.558884964828E+00
  0.327594883869E+00
  0.327594934164E+00
 -0.121362847466E-01
 -0.121363266400E-01
 -0.169894617118E+00
 -0.169894607532E+00
 -0.243540382468E+00
 -0.243540389744E+00
 -0.253234404262E+00
 -0.253234392428E+00
 -0.252323476580E+00
 -0.252323448943E+00
  0.433898111593E-01
  0.433898690869E-01
  0.424178425101E-01
  0.424177849319E-01
  0.527328305406E-01
  0.527328295813E-01
  0.129048443867E+00
  0.129048443586E+00
  0.281339696376E+00
  0.281339636733E+00
  0.558884962511E+00
  0.558884941347E+00
  0.327594850403E+00
  0.327594882511E+00
 -0.121363511051E-01
 -0.121362847214E-01
 -0.169894617475E+00
 -0.169894617199E+00
 -0.243540389892E+00
 -0.243540388964E+00
 -0.253234392897E+00
 -0.253234338006E+00
 -0.252323448894E+00
 -0.252323503605E+00
  0.433898259494E-01
  0.433898111998E-01
  0.424178757745E-01
  0.424178426668E-01
  0.527328170032E-01
  0.527328305174E-01
  0.129048443567E+00
  0.129048446899E+00
  0.281339637936E+00
  0.281339692975E+00
  0.558884955760E+00
  0.558885148285E+00
  0.327595145333E+00
  0.327594858852E+00
 -0.121362903165E-01
 -0.121363511570E-01
 -0.169894614172E+00
 -0.169894617450E+00
 -0.243540388857E+00
 -0.243540401833E+00
 -0.253234338941E+00
 -0.253234307539E+00
 -0.252323503841E+00
 -0.252323489941E+00
  0.433897971855E-01
  0.433898259880E-01
  0.424178153790E-01
  0.424178757123E-01
  0.527328461296E-01
  0.527328169651E-01
  0.129048446907E+00
  0.129048438754E+00
  0.281339692290E+00
  0.281339764428E+00
  0.558885121935E+00
  0.558884719684E+00
  0.327594534489E+00
  0.327595129888E+00
 -0.121362106963E-01
 -0.121362902869E-01
 -0.169894622207E+00
 -0.169894614183E+00
 -0.243540401657E+00
 -0.243540373713E+00
 -0.253234307168E+00
 -0.253234364310E+00
 -0.252323490166E+00
 -0.252323517292E+00
  0.433898117781E-01
  0.433897970286E-01
  0.424177831728E-01
  0.424178151876E-01
  0.527328682019E-01
  0.527328460942E-01
  0.129048438740E+00
  0.129048426881E+00
  0.281339763420E+00
  0.281339575469E+00
  0.558884735476E+00
  0.558884946402E+00
  0.327594857608E+00
  0.327594543745E+00
 -0.121364184182E-01
 -0.121362106528E-01
 -0.169894633856E+00
 -0.169894622189E+00
 -0.243540373550E+00
 -0.243540352321E+00
 -0.253234363167E+00
 -0.253234393532E+00
 -0.252323516380E+00
 -0.252323502480E+00
  0.433896159304E-01
  0.433898118485E-01
  0.424178456762E-01
  0.424177833808E-01
  0.527328279712E-01
  0.527328682918E-01
  0.129048426919E+00
  0.129048438039E+00
  0.281339574786E+00
  0.281339644272E+00
  0.558884914954E+00
  0.558884627677E+00
  0.327594403360E+00
  0.327594839175E+00
 -0.121363410500E-01
 -0.121364183887E-01
 -0.169894622983E+00
 -0.169894633906E+00
 -0.243540352736E+00
 -0.243540391748E+00
 -0.253234394774E+00
 -0.253234335386E+00
 -0.252323502889E+00
 -0.252323687928E+00
  0.433897938075E-01
  0.433896159290E-01
  0.424178487478E-01
  0.424178458909E-01
  0.527328620496E-01
  0.527328282855E-01
  0.129048438054E+00
  0.129048433968E+00
  0.281339653575E+00
  0.281339655591E+00
  0.558884790810E+00
  0.558885619582E+00
  0.327595817029E+00
  0.327594498982E+00
 -0.121363391722E-01
 -0.121363414513E-01
 -0.169894627002E+00
 -0.169894623003E+00
 -0.243540393199E+00
 -0.243540359970E+00
 -0.253234336668E+00
 -0.253234333913E+00
 -0.252323687920E+00
 -0.252323519076E+00
  0.433897187533E-01
  0.433897947667E-01
  0.424177879594E-01
  0.424178489426E-01
  0.527328049173E-01
  0.527328614578E-01
  0.129048433909E+00
  0.129048449183E+00
  0.281339643078E+00
  0.281339691297E+00
  0.558885438903E+00
  0.558885023685E+00
  0.327594967752E+00
  0.327595711123E+00
 -0.121362822396E-01
 -0.121363386324E-01
 -0.169894612092E+00
 -0.169894626925E+00
 -0.243540357237E+00
 -0.243540414884E+00
 -0.253234335076E+00
 -0.253234395316E+00
 -0.252323524654E+00
 -0.252323597567E+00
  0.417287079744E-01
  0.408101992122E-01
  0.408096144973E-01
  0.505274448354E-01
  0.505276147536E-01
  0.120112827058E+00
  0.120112906128E+00
  0.249072624310E+00
  0.249072748761E+00
  0.474069956171E+00
  0.277879931333E+00
 -0.107440089950E-01
 -0.107443626346E-01
 -0.158130516094E+00
 -0.158130704316E+00
 -0.233355996888E+00
 -0.233356077366E+00
 -0.243633592119E+00
 -0.243633386321E+00
 -0.242664345851E+00
 -0.441447860356E-01
 -0.451661221824E-01
 -0.451594495031E-01
 -0.344371160698E-01
 -0.344388363698E-01
  0.390285361122E-01
  0.390285216163E-01
  0.163251473339E+00
  0.163251435091E+00
  0.366484773257E+00
  0.294996106664E+00
  0.616803922356E-01
  0.616808021768E-01
 -0.774509437323E-01
 -0.774504180523E-01
 -0.158582203113E+00
 -0.158582278382E+00
 -0.170352172109E+00
 -0.170350805159E+00
 -0.169230463156E+00
SCALARS inclination float 1
LOOKUP_TABLE default
  0.100000000000E+01
  0.100000000000E+01
  0.100000000000E+01
  0.100000000000E+01
  0.100000000000E+01
  0.100000000000E+01
  0.100000000000E+01
  0.100000000000E+01
  0.100000000000E+01
  0.100000000000E+01
  0.100000000000E+01
  0.100000000000E+01
  0.100000000000E+01
  0.100000000000E+01
  0.100000000000E+01
  0.100000000000E+01
  0.100000000000E+01
  0.100000000000E+01
  0.100000000000E+01
  0.100000000000E+01
  0.100000000000E+01
  0.100000000000E+01
  0.100000000000E+01
  0.100000000000E+01
  0.100000000000E+01
  0.100000000000E+01
  0.100000000000E+01
  0.100000000000E+01
  0.100000000000E+01
  0.100000000000E+01
  0.100000000000E+01
  0.100000000000E+01
  0.100000000000E+01
  0.100000000000E+01
  0.100000000000E+01
  0.100000000000E+01
  0.100000000000E+01
  0.100000000000E+01
  0.100000000000E+01
  0.100000000000E+01
  0.100000000000E+01
  0.100000000000E+01
  0.100000000000E+01
  0.100000000000E+01
  0.100000000000E+01
  0.100000000000E+01
  0.100000000000E+01
  0.100000000000E+01
  0.100000000000E+01
  0.100000000000E+01
  0.100000000000E+01
  0.100000000000E+01
  0.100000000000E+01
  0.100000000000E+01
  0.100000000000E+01
  0.100000000000E+01
  0.100000000000E+01
  0.100000000000E+01
  0.100000000000E+01
  0.100000000000E+01
  0.100000000000E+01
  0.100000000000E+01
  0.100000000000E+01
  0.100000000000E+01
  0.100000000000E+01
  0.100000000000E+01
  0.100000000000E+01
  0.100000000000E+01
  0.100000000000E+01
  0.100000000000E+01
  0.100000000000E+01
  0.100000000000E+01
  0.100000000000E+01
  0.100000000000E+01
  0.100000000000E+01
  0.100000000000E+01
  0.100000000000E+01
  0.100000000000E+01
  0.100000000000E+01
  0.100000000000E+01
  0.100000000000E+01
  0.100000000000E+01
  0.100000000000E+01
  0.100000000000E+01
  0.100000000000E+01
  0.100000000000E+01
  0.100000000000E+01
  0.100000000000E+01
  0.100000000000E+01
  0.100000000000E+01
  0.100000000000E+01
  0.100000000000E+01
  0.100000000000E+01
  0.100000000000E+01
  0.100000000000E+01
  0.100000000000E+01
  0.100000000000E+01
  0.100000000000E+01
  0.100000000000E+01
  0.100000000000E+01
  0.100000000000E+01
  0.100000000000E+01
  0.100000000000E+01
  0.100000000000E+01
  0.100000000000E+01
  0.100000000000E+01
  0.100000000000E+01
  0.100000000000E+01
  0.100000000000E+01
  0.100000000000E+01
  0.100000000000E+01
  0.100000000000E+01
  0.100000000000E+01
  0.100000000000E+01
  0.100000000000E+01
  0.100000000000E+01
  0.100000000000E+01
  0.100000000000E+01
  0.100000000000E+01
  0.100000000000E+01
  0.100000000000E+01
  0.100000000000E+01
  0.100000000000E+01
  0.100000000000E+01
  0.100000000000E+01
  0.100000000000E+01
  0.100000000000E+01
  0.100000000000E+01
  0.100000000000E+01
  0.100000000000E+01
  0.100000000000E+01
  0.100000000000E+01
  0.100000000000E+01
  0.100000000000E+01
  0.100000000000E+01
  0.100000000000E+01
  0.100000000000E+01
  0.100000000000E+01
  0.100000000000E+01
  0.100000000000E+01
  0.100000000000E+01
  0.100000000000E+01
  0.100000000000E+01
  0.100000000000E+01
  0.100000000000E+01
  0.100000000000E+01
  0.100000000000E+01
  0.100000000000E+01
  0.100000000000E+01
  0.100000000000E+01
  0.100000000000E+01
  0.100000000000E+01
  0.100000000000E+01
  0.100000000000E+01
  0.100000000000E+01
  0.100000000000E+01
  0.100000000000E+01
  0.100000000000E+01
  0.100000000000E+01
  0.100000000000E+01
  0.100000000000E+01
  0.100000000000E+01
  0.100000000000E+01
  0.100000000000E+01
  0.100000000000E+01
  0.100000000000E+01
  0.100000000000E+01
  0.100000000000E+01
  0.100000000000E+01
  0.100000000000E+01
  0.100000000000E+01
  0.100000000000E+01
  0.100000000000E+01
  0.100000000000E+01
  0.100000000000E+01
  0.100000000000E+01
  0.100000000000E+01
  0.100000000000E+01
  0.100000000000E+01
  0.100000000000E+01
  0.100000000000E+01
  0.100000000000E+01
  0.100000000000E+01
  0.100000000000E+01
  0.100000000000E+01
  0.100000000000E+01
  0.100000000000E+01
  0.100000000000E+01
  0.100000000000E+01
  0.100000000000E+01
  0.100000000000E+01
  0.100000000000E+01
  0.100000000000E+01
  0.100000000000E+01
  0.100000000000E+01
  0.100000000000E+01
  0.100000000000E+01
  0.100000000000E+01
  0.100000000000E+01
  0.100000000000E+01
  0.100000000000E+01
  0.100000000000E+01
  0.100000000000E+01
  0.100000000000E+01
  0.100000000000E+01
  0.100000000000E+01
  0.100000000000E+01
  0.100000000000E+01
  0.100000000000E+01
  0.100000000000E+01
  0.100000000000E+01
  0.100000000000E+01
  0.100000000000E+01
  0.100000000000E+01
  0.100000000000E+01
  0.100000000000E+01
  0.100000000000E+01
  0.100000000000E+01
  0.100000000000E+01
  0.100000000000E+01
  0.100000000000E+01
  0.100000000000E+01
  0.100000000000E+01
  0.100000000000E+01
  0.100000000000E+01
  0.100000000000E+01
  0.100000000000E+01
  0.100000000000E+01
  0.100000000000E+01
  0.100000000000E+01
  0.100000000000E+01
  0.100000000000E+01
  0.100000000000E+01
  0.100000000000E+01
  0.100000000000E+01
  0.100000000000E+01
  0.100000000000E+01
  0.100000000000E+01
  0.100000000000E+01
  0.100000000000E+01
  0.100000000000E+01
  0.100000000000E+01
  0.100000000000E+01
  0.100000000000E+01
  0.100000000000E+01
  0.100000000000E+01
  0.100000000000E+01
  0.100000000000E+01
  0.100000000000E+01
  0.100000000000E+01
  0.100000000000E+01
  0.100000000000E+01
  0.100000000000E+01
  0.100000000000E+01
  0.100000000000E+01
  0.100000000000E+01
VECTORS v float
  0.150685794962E+03  0.327922328919E+01  0.157510250704E+02
  0.152422644264E+03  0.277866493370E+01  0.159901148864E+02
  0.155665496275E+03 -0.464203114053E+00  0.168369674709E+02
  0.157203805675E+03  0.495482141471E+00  0.168993549556E+02
  0.160084796769E+03 -0.238552340118E+01  0.158245649631E+02
  0.161166232409E+03 -0.592692183059E+00  0.157552763798E+02
  0.158388488776E+03  0.218505583064E+01  0.322781021309E+01
  0.160229419432E+03 -0.460822623669E+01  0.340622902789E+01
  0.138900410795E+03  0.167208025278E+02 -0.169496703363E+02
  0.145510023072E+03 -0.128435166024E+01 -0.203644096125E+02
  0.817937070047E+02  0.624319900796E+02 -0.112230359973E+02
  0.820857387185E+02  0.617805030359E+02 -0.117699474204E+02
  0.167955386309E+03 -0.240891445550E+02  0.111318778368E+03
  0.144819336011E+03  0.275245560310E+02  0.679900204004E+02
  0.205059095410E+03 -0.327152181735E+02  0.329858196720E+02
  0.195321195585E+03 -0.618833904356E+01  0.279549072149E+02
  0.197397080236E+03 -0.826421628933E+01 -0.424981571621E+01
  0.198041549742E+03 -0.106423957819E+02 -0.431228011134E+01
  0.187675338845E+03 -0.276149715575E+00 -0.183064249204E+02
  0.183067282093E+03 -0.791550035533E+01 -0.186016742883E+02
  0.173908002675E+03  0.124382447206E+01 -0.186200266480E+02
  0.167771889441E+03 -0.258423859994E+01 -0.183711413396E+02
  0.161072598629E+03  0.411508534781E+01 -0.167715973431E+02
  0.153779930882E+03  0.621682842380E+01 -0.157677491918E+02
  0.151049480737E+03  0.654361581035E+01  0.154410654539E+02
  0.150724891123E+03  0.674242552056E+01  0.153851421947E+02
  0.155526085360E+03  0.194120358123E+01  0.165625318229E+02
  0.155692934060E+03  0.192257035703E+01  0.165825360747E+02
  0.159468405375E+03 -0.185291885621E+01  0.157126539045E+02
  0.160092489170E+03 -0.156697543937E+01  0.157455873107E+02
  0.160230658554E+03 -0.170514921039E+01  0.334626416322E+01
  0.160610702163E+03 -0.263946128825E+01  0.337342618632E+01
  0.145764755836E+03  0.122064969008E+02 -0.185281994199E+02
  0.145483158278E+03  0.127476462494E+02 -0.184140671614E+02
  0.849723784080E+02  0.732584528706E+02 -0.678998471265E+01
  0.794922628698E+02  0.820254122247E+02  0.146834195966E+01
  0.184309941695E+03 -0.227922666009E+02  0.120046953327E+03
  0.172880145342E+03 -0.450715167807E+01  0.102822700241E+03
  0.211664936318E+03 -0.432919446943E+02  0.353695235548E+02
  0.205097683603E+03 -0.306715611538E+02  0.327076613676E+02
  0.197136713214E+03 -0.227105662887E+02 -0.454296520826E+01
  0.197390647598E+03 -0.233348470691E+02 -0.456111052131E+01
  0.183057078844E+03 -0.900122947380E+01 -0.187064307424E+02
  0.178964034290E+03 -0.108765861514E+02 -0.184904310414E+02
  0.167804846545E+03  0.282654041207E+00 -0.180655291250E+02
  0.164155561813E+03  0.690200346593E+00 -0.176280396964E+02
  0.153834060977E+03  0.110117607461E+02 -0.152611706924E+02
  0.152369934075E+03  0.119085310644E+02 -0.150088937733E+02
  0.151147052461E+03  0.786421114082E+01  0.153103877693E+02
  0.151065098679E+03  0.792707963823E+01  0.152949043206E+02
  0.155731315991E+03  0.326083490597E+01  0.164423454433E+02
  0.155542265909E+03  0.334872680875E+01  0.164124890931E+02
  0.159341046484E+03 -0.450071364832E+00  0.155636112090E+02
  0.159481429929E+03 -0.466976133845E+00  0.155789312033E+02
  0.160611147248E+03 -0.159670064595E+01  0.335188717425E+01
  0.159799157587E+03 -0.744311411366E-01  0.330365117852E+01
  0.145510843923E+03  0.142138970433E+02 -0.182144986126E+02
  0.143230453601E+03  0.177467024162E+02 -0.174080410696E+02
  0.793836491220E+02  0.815935367898E+02  0.128096405130E+01
  0.739589234323E+02  0.888804138062E+02  0.864925237070E+01
  0.191928084780E+03 -0.290887475413E+02  0.128112562017E+03
  0.185050000750E+03 -0.198496177075E+02  0.118770220680E+03
  0.215021659916E+03 -0.498212707659E+02  0.367409704782E+02
  0.211640554334E+03 -0.445832277139E+02  0.355452780679E+02
  0.196443046121E+03 -0.293856824245E+02 -0.466656878181E+01
  0.197133311719E+03 -0.306797509581E+02 -0.470757376449E+01
  0.178948823155E+03 -0.124952037663E+02 -0.186466033004E+02
  0.177054544935E+03 -0.122670973941E+02 -0.184398833112E+02
  0.164154899733E+03  0.632606990457E+00 -0.176341791924E+02
  0.162969261292E+03  0.118382237591E+01 -0.174468676980E+02
  0.152368535141E+03  0.117846108298E+02 -0.150219857603E+02
  0.151721001372E+03  0.122813496630E+02 -0.148997233606E+02
  0.151352944548E+03  0.908052395418E+01  0.152024170565E+02
  0.151162578917E+03  0.923957051299E+01  0.151650828948E+02
  0.156023375811E+03  0.437874599613E+01  0.163532802530E+02
  0.155746148155E+03  0.455106624455E+01  0.163048062520E+02
  0.159460808034E+03  0.836389310251E+00  0.154499764341E+02
  0.159353516839E+03  0.876899113293E+00  0.154355784528E+02
  0.159799373337E+03  0.431037406280E+00  0.329321036874E+01
  0.159337124861E+03  0.117869994884E+01  0.326820777874E+01
  0.143221904354E+03  0.172939314276E+02 -0.174696672884E+02
  0.141404015751E+03  0.198145302922E+02 -0.168678077140E+02
  0.736332190107E+02  0.875853476189E+02  0.808735462709E+01
  0.701470085800E+02  0.918995732543E+02  0.126089013198E+02
  0.195266640829E+03 -0.332200589944E+02  0.132442601325E+03
  0.191928123708E+03 -0.290885964880E+02  0.128112494860E+03
  0.216374007134E+03 -0.535344667674E+02  0.374437160264E+02
  0.214987838918E+03 -0.516124698772E+02  0.369847650746E+02
  0.196291435728E+03 -0.329160305472E+02 -0.473638822822E+01
  0.196441435692E+03 -0.331586475905E+02 -0.474450225119E+01
  0.177040536945E+03 -0.137576869660E+02 -0.185837029150E+02
  0.176449642272E+03 -0.135345827366E+02 -0.185044219986E+02
  0.162955191717E+03 -0.400708560452E-01 -0.175773353680E+02
  0.162324538861E+03  0.351932122782E+00 -0.174670469215E+02
  0.151706201230E+03  0.109703301028E+02 -0.150382309952E+02
  0.151114361450E+03  0.114647998849E+02 -0.149221516669E+02
  0.152193949347E+03  0.102832299062E+02  0.151637712102E+02
  0.151374429741E+03  0.109837186376E+02  0.150013471079E+02
  0.157023964147E+03  0.533415249363E+01  0.163581613345E+02
  0.156041875959E+03  0.598804937365E+01  0.161817276603E+02
  0.160251156554E+03  0.177874835491E+01  0.154351653578E+02
  0.159472956673E+03  0.212912549364E+01  0.153252467498E+02
  0.159337588311E+03  0.226449046941E+01  0.324578002032E+01
  0.159764902293E+03  0.160430230749E+01  0.326825385677E+01
  0.141406808149E+03  0.199624152084E+02 -0.168476790550E+02
  0.141185371336E+03  0.202593402902E+02 -0.167757773976E+02
  0.700260737263E+02  0.914186870495E+02  0.124002675015E+02
  0.690784803097E+02  0.925638237087E+02  0.136132819860E+02
  0.196054903365E+03 -0.344125993467E+02  0.133590514293E+03
  0.195220355660E+03 -0.334040916195E+02  0.132522451354E+03
  0.216416611784E+03 -0.546003402508E+02  0.375975168263E+02
  0.216355430340E+03 -0.545183007343E+02  0.375776245539E+02
  0.195696652894E+03 -0.338594793266E+02 -0.474359539978E+01
  0.196290641333E+03 -0.347771748250E+02 -0.477483136566E+01
  0.176436593857E+03 -0.149230631227E+02 -0.186383896594E+02
  0.175431750466E+03 -0.144706424891E+02 -0.184964468690E+02
  0.162305044316E+03 -0.134387313559E+01 -0.176478205923E+02
  0.160980953101E+03 -0.462261987562E+00 -0.174099680077E+02
  0.151091361031E+03  0.942738564315E+01 -0.151374019091E+02
  0.149713922213E+03  0.106047589495E+02 -0.148644125356E+02
  0.153931059967E+03  0.123703223702E+02  0.151263702069E+02
  0.152233521374E+03  0.137885793144E+02  0.147934350811E+02
  0.159274728591E+03  0.674733047690E+01  0.164484901295E+02
  0.157056063312E+03  0.812641144542E+01  0.160605047017E+02
  0.162406848590E+03  0.277559927494E+01  0.155480318885E+02
  0.160268113285E+03  0.358311404228E+01  0.152610710944E+02
  0.159765961249E+03  0.408526382176E+01  0.321700781006E+01
  0.161706463362E+03  0.946596155763E+00  0.332196766029E+01
  0.141207765092E+03  0.214453246827E+02 -0.166143548716E+02
  0.142894999971E+03  0.191058804504E+02 -0.171729411529E+02
  0.691505400671E+02  0.928503637518E+02  0.137375979407E+02
  0.706701216974E+02  0.909698639273E+02  0.117667601069E+02
  0.194466654696E+03 -0.328266690710E+02  0.131750737737E+03
  0.195982109148E+03 -0.347020516049E+02  0.133716097323E+03
  0.214713648761E+03 -0.534335748757E+02  0.371993465516E+02
  0.216394632708E+03 -0.557643562964E+02  0.377559501879E+02
  0.193639815175E+03 -0.330094821981E+02 -0.468353092069E+01
  0.195695596424E+03 -0.363346081878E+02 -0.479472113956E+01
  0.175416853793E+03 -0.160557964564E+02 -0.186493905743E+02
  0.172691341803E+03 -0.150267349923E+02 -0.182836915628E+02
  0.160948516784E+03 -0.328385122135E+01 -0.177107510592E+02
  0.157586722318E+03 -0.119422195466E+01 -0.171228755319E+02
  0.149670094782E+03  0.672245237676E+01 -0.152745730029E+02
  0.146228105182E+03  0.959816046727E+01 -0.145994954960E+02
  0.156491948441E+03  0.169888990648E+02  0.149065229133E+02
  0.154004738532E+03  0.188968906553E+02  0.144368468056E+02
  0.162169768490E+03  0.107318133650E+02  0.163309928513E+02
  0.159335679837E+03  0.120493960664E+02  0.158832873451E+02
  0.165381766883E+03  0.600328165661E+01  0.155234175083E+02