# vtk DataFile Version 3.0
TriPan results file. Generated by TriPan, USU AeroLab (c) 2021.
ASCII
DATASET POLYDATA
POINTS                1848 float
  0.000000000000E+00  0.000000000000E+00  0.000000000000E+00
  0.147665724158E+00  0.000000000000E+00 -0.234920635819E+00
  0.147665724158E+00  0.000000000000E+00  0.234920635819E+00
  0.339639574289E+00  0.339639574289E+00  0.000000000000E+00
  0.473465979099E+00  0.000000000000E+00 -0.436293870211E+00
  0.473465979099E+00  0.000000000000E+00  0.436293870211E+00
  0.487305283546E+00  0.339639574289E+00 -0.234920650721E+00
  0.487305283546E+00  0.339639574289E+00  0.234920650721E+00
  0.735364913940E+00  0.735364913940E+00  0.000000000000E+00
  0.813105583191E+00  0.339639574289E+00 -0.436293929815E+00
  0.813105583191E+00  0.339639574289E+00  0.436293929815E+00
  0.883030653000E+00  0.735364913940E+00 -0.234920680523E+00
  0.883030653000E+00  0.735364913940E+00  0.234920680523E+00
  0.944064557552E+00  0.000000000000E+00 -0.604293465614E+00
  0.944064557552E+00  0.000000000000E+00  0.604293465614E+00
  0.119528055191E+01  0.119528055191E+01  0.000000000000E+00
  0.120883107185E+01  0.735364913940E+00 -0.436293989420E+00
  0.120883107185E+01  0.735364913940E+00  0.436293989420E+00
  0.128370416164E+01  0.339639574289E+00 -0.604293525219E+00
  0.128370416164E+01  0.339639574289E+00  0.604293525219E+00
  0.134294629097E+01  0.119528055191E+01 -0.234920725226E+00
  0.134294629097E+01  0.119528055191E+01  0.234920725226E+00
  0.157641971111E+01  0.000000000000E+00 -0.760520398617E+00
  0.157641971111E+01  0.000000000000E+00  0.760520398617E+00
  0.166874670982E+01  0.119528055191E+01 -0.436294049025E+00
  0.166874670982E+01  0.119528055191E+01  0.436294049025E+00
  0.167942965031E+01  0.735364913940E+00 -0.604293584824E+00
  0.167942965031E+01  0.735364913940E+00  0.604293584824E+00
  0.172824025154E+01  0.172824025154E+01  0.000000000000E+00
  0.187590610981E+01  0.172824025154E+01 -0.234920769930E+00
  0.187590610981E+01  0.172824025154E+01  0.234920769930E+00
  0.191605937481E+01  0.339639574289E+00 -0.760520458221E+00
  0.191605937481E+01  0.339639574289E+00  0.760520458221E+00
  0.213934540749E+01  0.119528055191E+01 -0.604293704033E+00
  0.213934540749E+01  0.119528055191E+01  0.604293704033E+00
  0.220170640945E+01  0.172824025154E+01 -0.436294138432E+00
  0.220170640945E+01  0.172824025154E+01  0.436294138432E+00
  0.231178498268E+01  0.735364913940E+00 -0.760520577431E+00
  0.231178498268E+01  0.735364913940E+00  0.760520577431E+00
  0.234375929832E+01  0.234375929832E+01  0.000000000000E+00
  0.239635515213E+01  0.000000000000E+00 -0.902061045170E+00
  0.239635515213E+01  0.000000000000E+00  0.902061045170E+00
  0.249142503738E+01  0.234375929832E+01 -0.234920814633E+00
  0.249142503738E+01  0.234375929832E+01  0.234920814633E+00
  0.267230534554E+01  0.172824025154E+01 -0.604293823242E+00
  0.267230534554E+01  0.172824025154E+01  0.604293823242E+00
  0.273599505424E+01  0.339639574289E+00 -0.902061164379E+00
  0.273599505424E+01  0.339639574289E+00  0.902061164379E+00
  0.277170085907E+01  0.119528055191E+01 -0.760520696640E+00
  0.277170085907E+01  0.119528055191E+01  0.760520696640E+00
  0.281722569466E+01  0.234375929832E+01 -0.436294227839E+00
  0.281722569466E+01  0.234375929832E+01  0.436294227839E+00
  0.305185556412E+01  0.305185556412E+01  0.000000000000E+00
  0.313172078133E+01  0.735364913940E+00 -0.902061283588E+00
  0.313172078133E+01  0.735364913940E+00  0.902061283588E+00
  0.319952154160E+01  0.305185556412E+01 -0.234920859337E+00
  0.319952154160E+01  0.305185556412E+01  0.234920859337E+00
  0.328782463074E+01  0.234375929832E+01 -0.604293942451E+00
  0.328782463074E+01  0.234375929832E+01  0.604293942451E+00
  0.330466079712E+01  0.172824025154E+01 -0.760520815849E+00
  0.330466079712E+01  0.172824025154E+01  0.760520815849E+00
  0.342464399338E+01  0.000000000000E+00 -0.102348911762E+01
  0.342464399338E+01  0.000000000000E+00  0.102348911762E+01
  0.352532196045E+01  0.305185556412E+01 -0.436294317245E+00
  0.352532196045E+01  0.305185556412E+01  0.436294317245E+00
  0.359163665771E+01  0.119528055191E+01 -0.902061402798E+00
  0.359163665771E+01  0.119528055191E+01  0.902061402798E+00
  0.376428389549E+01  0.339639574289E+00 -0.102348923683E+01
  0.376428389549E+01  0.339639574289E+00  0.102348923683E+01
  0.386280250549E+01  0.386280250549E+01  0.000000000000E+00
  0.392018008232E+01  0.234375929832E+01 -0.760520994663E+00
  0.392018008232E+01  0.234375929832E+01  0.760520994663E+00
  0.399592113495E+01  0.305185556412E+01 -0.604294061661E+00
  0.399592113495E+01  0.305185556412E+01  0.604294061661E+00
  0.401046848297E+01  0.386280250549E+01 -0.234920918941E+00
  0.401046848297E+01  0.386280250549E+01  0.234920918941E+00
  0.412459707260E+01  0.172824025154E+01 -0.902061522007E+00
  0.412459707260E+01  0.172824025154E+01  0.902061522007E+00
  0.416000986099E+01  0.735364913940E+00 -0.102348935604E+01
  0.416000986099E+01  0.735364913940E+00  0.102348935604E+01
  0.433626890182E+01  0.386280250549E+01 -0.436294436455E+00
  0.433626890182E+01  0.386280250549E+01  0.436294436455E+00
  0.461992597580E+01  0.119528055191E+01 -0.102348947525E+01
  0.461992597580E+01  0.119528055191E+01  0.102348947525E+01
  0.462827682495E+01  0.305185556412E+01 -0.760521173477E+00
  0.462827682495E+01  0.305185556412E+01  0.760521173477E+00
  0.466872262955E+01  0.000000000000E+00 -0.111146688461E+01
  0.466872262955E+01  0.000000000000E+00  0.111146688461E+01
  0.474011659622E+01  0.234375929832E+01 -0.902061700821E+00
  0.474011659622E+01  0.234375929832E+01  0.902061700821E+00
  0.478677463531E+01  0.478677463531E+01  0.000000000000E+00
  0.480686807632E+01  0.386280250549E+01 -0.604294240475E+00
  0.480686807632E+01  0.386280250549E+01  0.604294240475E+00
  0.493444061279E+01  0.478677463531E+01 -0.234920993447E+00
  0.493444061279E+01  0.478677463531E+01  0.234920993447E+00
  0.500836277008E+01  0.339639574289E+00 -0.111146700382E+01
  0.500836277008E+01  0.339639574289E+00  0.111146700382E+01
  0.515288639069E+01  0.172824025154E+01 -0.102348971367E+01
  0.515288639069E+01  0.172824025154E+01  0.102348971367E+01
  0.526024150848E+01  0.478677463531E+01 -0.436294555664E+00
  0.526024150848E+01  0.478677463531E+01  0.436294555664E+00
  0.540408849716E+01  0.735364913940E+00 -0.111146712303E+01
  0.540408849716E+01  0.735364913940E+00  0.111146712303E+01
  0.543922424316E+01  0.386280250549E+01 -0.760521352291E+00
  0.543922424316E+01  0.386280250549E+01  0.760521352291E+00
  0.544821310043E+01  0.305185556412E+01 -0.902061939240E+00
  0.544821310043E+01  0.305185556412E+01  0.902061939240E+00
  0.573084068298E+01  0.478677463531E+01 -0.604294419289E+00
  0.573084068298E+01  0.478677463531E+01  0.604294419289E+00
  0.576840591431E+01  0.234375929832E+01 -0.102348983288E+01
  0.576840591431E+01  0.234375929832E+01  0.102348983288E+01
  0.583337688446E+01  0.583337688446E+01  0.000000000000E+00
  0.586400508881E+01  0.119528055191E+01 -0.111146736145E+01
  0.586400508881E+01  0.119528055191E+01  0.111146736145E+01
  0.598104286194E+01  0.583337688446E+01 -0.234921067953E+00
  0.598104286194E+01  0.583337688446E+01  0.234921067953E+00
  0.611307668686E+01  0.000000000000E+00 -0.114008128643E+01
  0.611307668686E+01  0.000000000000E+00  0.114008128643E+01
  0.625916051865E+01  0.386280250549E+01 -0.902062177658E+00
  0.625916051865E+01  0.386280250549E+01  0.902062177658E+00
  0.630684375763E+01  0.583337688446E+01 -0.436294704676E+00
  0.630684375763E+01  0.583337688446E+01  0.436294704676E+00
  0.636319684982E+01  0.478677463531E+01 -0.760521590710E+00
  0.636319684982E+01  0.478677463531E+01  0.760521590710E+00
  0.639696550369E+01  0.172824025154E+01 -0.111146748066E+01
  0.639696550369E+01  0.172824025154E+01  0.111146748066E+01
  0.645271682739E+01  0.339639574289E+00 -0.114008140564E+01
  0.645271682739E+01  0.339639574289E+00  0.114008140564E+01
  0.647650289536E+01  0.305185556412E+01 -0.102349007130E+01
  0.647650289536E+01  0.305185556412E+01  0.102349007130E+01
  0.677744340897E+01  0.583337688446E+01 -0.604294598103E+00
  0.677744340897E+01  0.583337688446E+01  0.604294598103E+00
  0.684844303131E+01  0.735364913940E+00 -0.114008152485E+01
  0.684844303131E+01  0.735364913940E+00  0.114008152485E+01
  0.701104879379E+01  0.701104879379E+01  0.000000000000E+00
  0.701248550415E+01  0.234375929832E+01 -0.111146771908E+01
  0.701248550415E+01  0.234375929832E+01  0.111146771908E+01
  0.715871477127E+01  0.701104879379E+01 -0.234921157360E+00
  0.715871477127E+01  0.701104879379E+01  0.234921157360E+00
  0.718313360214E+01  0.478677463531E+01 -0.902062416077E+00
  0.718313360214E+01  0.478677463531E+01  0.902062416077E+00
  0.728745079041E+01  0.386280250549E+01 -0.102349042892E+01
  0.728745079041E+01  0.386280250549E+01  0.102349042892E+01
  0.730835962296E+01  0.119528055191E+01 -0.114008176327E+01
  0.730835962296E+01  0.119528055191E+01  0.114008176327E+01
  0.740979957581E+01  0.583337688446E+01 -0.760521829128E+00
  0.740979957581E+01  0.583337688446E+01  0.760521829128E+00
  0.748451566696E+01  0.701104879379E+01 -0.436294883490E+00
  0.748451566696E+01  0.701104879379E+01  0.436294883490E+00
  0.771254587173E+01  0.000000000000E+00 -0.108925735950E+01
  0.771254587173E+01  0.000000000000E+00  0.108925735950E+01
  0.772058296204E+01  0.305185556412E+01 -0.111146795750E+01
  0.772058296204E+01  0.305185556412E+01  0.111146795750E+01
  0.784132003784E+01  0.172824025154E+01 -0.114008188248E+01
  0.784132003784E+01  0.172824025154E+01  0.114008188248E+01
  0.795511531830E+01  0.701104879379E+01 -0.604294836521E+00
  0.795511531830E+01  0.701104879379E+01  0.604294836521E+00
  0.805218601227E+01  0.339639574289E+00 -0.108925747871E+01
  0.805218601227E+01  0.339639574289E+00  0.108925747871E+01
  0.821142387390E+01  0.478677463531E+01 -0.102349066734E+01
  0.821142387390E+01  0.478677463531E+01  0.102349066734E+01
[...]
CELL_DATA                3576
SCALARS sigma float 1
LOOKUP_TABLE default
  0.436663857390E-01
  0.436671129259E-01
  0.434967684776E-01
  0.434962453774E-01
  0.432706595861E-01
  0.432706742633E-01
  0.429719602469E-01
  0.429719827591E-01
  0.423863401104E-01
  0.423861326421E-01
  0.421545727651E-01
  0.421546420360E-01
  0.425662258898E-01
  0.425662492066E-01
  0.447864992700E-01
  0.447864992700E-01
  0.507449095506E-01
  0.507449095506E-01
  0.640560395964E-01
  0.640560738553E-01
  0.854133598337E-01
  0.854133785244E-01
  0.117998036923E+00
  0.117998036923E+00
  0.169057465658E+00
  0.169057465658E+00
  0.218368111967E+00
  0.218368099806E+00
  0.262657648721E+00
  0.262657648722E+00
  0.311082735255E+00
  0.311082751835E+00
  0.371774626998E+00
  0.371774612620E+00
  0.448585314997E+00
  0.448585315000E+00
  0.572718379518E+00
  0.572718387410E+00
  0.699625935677E+00
  0.699625923791E+00
  0.578155745902E+00
  0.578155737494E+00
  0.347545302665E+00
  0.347545282540E+00
  0.181609572083E+00
  0.181609572079E+00
  0.894405304010E-01
  0.894405503705E-01
  0.205445451953E-01
  0.205445239141E-01
 -0.323278608124E-01
 -0.323278608134E-01
 -0.792180905254E-01
 -0.792180767660E-01
 -0.129895911696E+00
 -0.129895911696E+00
 -0.180771136368E+00
 -0.180771136368E+00
 -0.212421084822E+00
 -0.212421101091E+00
 -0.232828209823E+00
 -0.232828246711E+00
 -0.245413394750E+00
 -0.245413394750E+00
 -0.251013715932E+00
 -0.251013715932E+00
 -0.253095306205E+00
 -0.253095330757E+00
 -0.253480898675E+00
 -0.253480970238E+00
 -0.253264059066E+00
 -0.253263848709E+00
 -0.252715116872E+00
 -0.252715139318E+00
 -0.252435176123E+00
 -0.252435190552E+00
 -0.252223731171E+00
 -0.252223222798E+00
 -0.252063526096E+00
 -0.252064226474E+00
  0.436663732256E-01
  0.436663863193E-01
  0.434967620292E-01
  0.434967717860E-01
  0.432702402177E-01
  0.432706578038E-01
  0.429722702177E-01
  0.429719608961E-01
  0.423860778708E-01
  0.423863384622E-01
  0.421547378259E-01
  0.421545707910E-01
  0.425662248742E-01
  0.425662248735E-01
  0.447864576899E-01
  0.447864979474E-01
  0.507449081798E-01
  0.507449081798E-01
  0.640560866420E-01
  0.640560393279E-01
  0.854133786141E-01
  0.854133413712E-01
  0.117998036761E+00
  0.117998055903E+00
  0.169057465458E+00
  0.169057459117E+00
  0.218368099031E+00
  0.218368111299E+00
  0.262657645025E+00
  0.262657622124E+00
  0.311082751946E+00
  0.311082733015E+00
  0.371774610981E+00
  0.371774641449E+00
  0.448585298668E+00
  0.448585298664E+00
  0.572718356686E+00
  0.572718332728E+00
  0.699625915620E+00
  0.699625919692E+00
  0.578155734199E+00
  0.578155739149E+00
  0.347545230065E+00
  0.347545284021E+00
  0.181609565465E+00
  0.181609565471E+00
  0.894405711411E-01
  0.894405300066E-01
  0.205445214340E-01
  0.205445452026E-01
 -0.323278875251E-01
 -0.323278603574E-01
 -0.792180765237E-01
 -0.792180902440E-01
 -0.129895918101E+00
 -0.129895911542E+00
 -0.180771118062E+00
 -0.180771136120E+00
 -0.212421117934E+00
 -0.212421085045E+00
 -0.232828245735E+00
 -0.232828195665E+00
 -0.245413388120E+00
 -0.245413388120E+00
 -0.251013708520E+00
 -0.251013750841E+00
 -0.253095324714E+00
 -0.253095324713E+00
 -0.253480958367E+00
 -0.253480788115E+00
 -0.253263838861E+00
 -0.253264100205E+00
 -0.252715143136E+00
 -0.252714837371E+00
 -0.252435180154E+00
 -0.252435587940E+00
 -0.252223241982E+00
 -0.252223251417E+00
 -0.252064229823E+00
 -0.252064242387E+00
  0.436663522290E-01
  0.436663718785E-01
  0.434967558544E-01
  0.434967607077E-01
  0.432706293534E-01
  0.432702408745E-01
  0.429719389403E-01
  0.429722711379E-01
  0.423863217696E-01
  0.423860784646E-01
  0.421545147871E-01
  0.421547386223E-01
  0.425662579696E-01
  0.425662241032E-01
  0.447865669380E-01
  0.447864585096E-01
  0.507448727327E-01
  0.507449091173E-01
  0.640560875630E-01
  0.640560875624E-01
  0.854133421236E-01
  0.854133792479E-01
  0.117998056197E+00
  0.117997971500E+00
  0.169057459771E+00
  0.169057459771E+00
  0.218368114087E+00
  0.218368176750E+00
  0.262657620649E+00
  0.262657597446E+00
  0.311082732279E+00
  0.311082732282E+00
  0.371774647468E+00
  0.371774616862E+00
  0.448585317866E+00
  0.448585335863E+00
  0.572718352963E+00
  0.572718362155E+00
  0.699625937539E+00
  0.699625930097E+00
  0.578155763905E+00
  0.578155748947E+00
  0.347545261310E+00
  0.347545242345E+00
  0.181609599554E+00
  0.181609573239E+00
  0.894405322111E-01
  0.894405725892E-01
  0.205445213885E-01
  0.205445213854E-01
 -0.323279144777E-01
 -0.323278873436E-01
 -0.792180081349E-01
 -0.792180775352E-01
 -0.129895918604E+00
 -0.129895918604E+00
 -0.180771198850E+00
 -0.180771118512E+00
 -0.212421086621E+00
 -0.212421119805E+00
 -0.232828199010E+00
 -0.232828199009E+00
 -0.245413392654E+00
 -0.245413430618E+00
 -0.251013755435E+00
 -0.251013643184E+00
 -0.253095320128E+00
 -0.253095285509E+00
 -0.253480792904E+00
 -0.253481018444E+00
 -0.253264103753E+00
 -0.253263862008E+00
 -0.252714842782E+00
 -0.252715168763E+00
 -0.252435591772E+00
 -0.252435214547E+00
 -0.252223243754E+00
 -0.252223248426E+00
 -0.252064234611E+00
 -0.252064253404E+00
  0.436663397919E-01
  0.436663528967E-01
  0.434967271500E-01
  0.434967564815E-01
  0.432706152018E-01
  0.432706299350E-01
  0.429719035474E-01
  0.429719374005E-01
  0.423863046261E-01
  0.423863222545E-01
  0.421547108404E-01
  0.421545149983E-01
  0.425661787661E-01
  0.425662596081E-01
  0.447865272292E-01
  0.447865676660E-01
  0.507448347914E-01
  0.507448712638E-01
  0.640561351615E-01
  0.640560875565E-01
  0.854133784082E-01
  0.854133425264E-01
  0.117997971746E+00
  0.117998056294E+00
  0.169057458833E+00
  0.169057458833E+00
  0.218368175877E+00
  0.218368087954E+00
  0.262657600188E+00
  0.262657699505E+00
  0.311082723275E+00
  0.311082644848E+00
  0.371774610149E+00
  0.371774610149E+00
  0.448585327489E+00
  0.448585266989E+00
  0.572718376313E+00
  0.572718456414E+00
  0.699625880161E+00
  0.699625896360E+00
  0.578155667585E+00
  0.578155722639E+00
  0.347545424864E+00
  0.347545269902E+00
  0.181609509928E+00
  0.181609596163E+00
  0.894405305961E-01
  0.894405305961E-01
  0.205444255525E-01
  0.205445207937E-01
 -0.323278000613E-01
 -0.323279148153E-01
 -0.792181043954E-01
 -0.792180078182E-01
 -0.129895917883E+00
 -0.129895917883E+00
 -0.180771118660E+00
 -0.180771199228E+00
 -0.212421116935E+00
 -0.212421084533E+00
 -0.232828198986E+00
 -0.232828149967E+00
 -0.245413423514E+00
 -0.245413461054E+00
 -0.251013647265E+00
 -0.251013688582E+00
 -0.253095295252E+00
 -0.253095376935E+00
 -0.253481019714E+00
 -0.253480824301E+00
 -0.253263864905E+00
 -0.253263882282E+00
 -0.252715159708E+00
 -0.252715192722E+00
 -0.252435217940E+00
 -0.252435232178E+00
 -0.252223252063E+00
 -0.252223280201E+00
 -0.252064257258E+00
 -0.252064269758E+00
  0.436663137090E-01
  0.436663399271E-01
  0.434967077460E-01
  0.434967272621E-01
  0.432705858178E-01
  0.432706152994E-01
  0.429719037066E-01
  0.429719037081E-01
  0.423862694287E-01
  0.423863047574E-01
  0.421546825408E-01
  0.421547108805E-01
  0.425661533701E-01
  0.425661768623E-01
  0.447864852247E-01
  0.447865257236E-01
  0.507449296919E-01
  0.507448350150E-01
  0.640561007842E-01
  0.640561354770E-01
  0.854133428065E-01
  0.854133439476E-01
  0.117998055565E+00
  0.117998055565E+00
  0.169057459316E+00
  0.169057452947E+00
  0.218368086812E+00
  0.218368150194E+00
  0.262657700621E+00
  0.262657650511E+00
  0.311082645372E+00
  0.311082605633E+00
  0.371774616833E+00
  0.371774681458E+00
  0.448585252650E+00
  0.448585286208E+00
  0.572718448428E+00
  0.572718320202E+00
  0.699625966268E+00
  0.699625950907E+00
  0.578155823318E+00
  0.578155725355E+00
  0.347545183779E+00
  0.347545420018E+00
  0.181609550980E+00
  0.181609504123E+00
  0.894406145681E-01
  0.894405322042E-01
  0.205443779319E-01
  0.205444255871E-01
 -0.323278575185E-01
 -0.323278001987E-01
 -0.792180348417E-01
 -0.792181039813E-01
 -0.129895924792E+00
 -0.129895918254E+00
 -0.180771117543E+00
 -0.180771117543E+00
 -0.212421116592E+00
 -0.212421117631E+00
 -0.232828151113E+00
 -0.232828186457E+00
 -0.245413462135E+00
 -0.245413365816E+00
 -0.251013680143E+00
 -0.251013721065E+00
 -0.253095365615E+00
 -0.253095389119E+00
 -0.253480824542E+00
 -0.253480852585E+00
 -0.253263883067E+00
 -0.253263917659E+00
 -0.252715193667E+00
 -0.252715193668E+00
 -0.252435232747E+00
 -0.252435261122E+00
 -0.252223280851E+00
 -0.252223299516E+00
 -0.252064270538E+00
 -0.252064295488E+00
  0.436670100295E-01
  0.436663141803E-01
  0.434966837732E-01
  0.434967082122E-01
  0.432701663324E-01
  0.432705849867E-01
  0.429721805957E-01
  0.429719041458E-01
  0.423862520996E-01
  0.423862697729E-01
  0.421544569690E-01
  0.421546816165E-01
  0.425662923623E-01
  0.425661537711E-01
  0.447865549354E-01
  0.447864865071E-01
  0.507448574220E-01
  0.507449306398E-01
  0.640561004058E-01
  0.640561004013E-01
  0.854133439755E-01
  0.854133439749E-01
  0.117998055670E+00
  0.117998074692E+00
  0.169057452768E+00
  0.169057452762E+00
  0.218368151398E+00
  0.218368126288E+00
  0.262657651067E+00
  0.262657603367E+00
  0.311082608417E+00
  0.311082706791E+00
  0.371774680491E+00
  0.371774681263E+00
  0.448585291464E+00
  0.448585227691E+00
  0.572718306945E+00
  0.572718454791E+00
  0.699625864145E+00
  0.699625873028E+00
  0.578155600970E+00
  0.578155751620E+00
  0.347545438005E+00
  0.347545175735E+00
  0.181609465549E+00
  0.181609553107E+00
  0.894406153070E-01
  0.894406143354E-01
  0.205444948586E-01
  0.205443781158E-01
 -0.323279116924E-01
 -0.323278575869E-01
 -0.792180625106E-01
 -0.792180352785E-01
 -0.129895924661E+00
 -0.129895924655E+00
 -0.180771099448E+00
 -0.180771117705E+00
 -0.212421116662E+00
 -0.212421116662E+00
 -0.232828185065E+00
 -0.232828185061E+00
 -0.245413370400E+00
 -0.245413444155E+00
 -0.251013728252E+00
 -0.251013659762E+00
 -0.253095391503E+00
 -0.253095254009E+00
 -0.253480847027E+00
 -0.253481067763E+00
 -0.253263919716E+00
 -0.253263936923E+00
 -0.252715196251E+00
 -0.252714929269E+00
 -0.252435256274E+00
 -0.252435657836E+00
 -0.252223302219E+00
 -0.252223325532E+00
 -0.252064298209E+00
 -0.252063637297E+00
  0.436662677945E-01
  0.436670097097E-01
  0.434966429860E-01
  0.434966821007E-01
  0.432705403387E-01
  0.432701657768E-01
  0.429721473311E-01
  0.429721812666E-01
  0.423862516263E-01
  0.423862516123E-01
  0.421545970410E-01
  0.421544573811E-01
  0.425661308502E-01
  0.425662931275E-01
  0.447865136351E-01
  0.447865542488E-01
  0.507449149441E-01
  0.507448566302E-01
  0.640561137521E-01
  0.640561006797E-01
  0.854133442400E-01
  0.854133442388E-01
  0.117998074702E+00
  0.117998018972E+00
  0.169057453105E+00
  0.169057440349E+00
  0.218368128339E+00
  0.218368153542E+00
  0.262657603523E+00
  0.262657657142E+00
  0.311082709640E+00
  0.311082768371E+00
  0.371774680450E+00
  0.371774548946E+00
  0.448585239717E+00
  0.448585309803E+00
  0.572718513382E+00
  0.572718561405E+00
  0.699625886523E+00
  0.699625886901E+00
  0.578155640579E+00
  0.578155612123E+00
  0.347545556250E+00
  0.347545473560E+00
  0.181609565325E+00
  0.181609470418E+00
  0.894404514154E-01
  0.894406151112E-01
  0.205445641376E-01
  0.205444950467E-01
 -0.323278513191E-01
 -0.323279117116E-01
 -0.792180360560E-01
 -0.792180632546E-01
 -0.129895937975E+00
 -0.129895924926E+00
 -0.180771153102E+00
 -0.180771099464E+00
 -0.212421117322E+00
 -0.212421117321E+00
 -0.232828186056E+00
 -0.232828172960E+00
 -0.245413440326E+00
 -0.245413382075E+00
 -0.251013655914E+00
 -0.251013696239E+00
 -0.253095258559E+00
 -0.253095418409E+00
 -0.253481070241E+00
 -0.253480933831E+00
 -0.253263934011E+00
 -0.253263933997E+00
 -0.252714933215E+00
 -0.252714965865E+00
 -0.252435654595E+00
 -0.252435296366E+00
 -0.252223315834E+00
 -0.252223353064E+00
 -0.252063635451E+00
 -0.252064338961E+00
  0.436669508030E-01
  0.436662678123E-01
  0.434966294861E-01
  0.434966441579E-01
  0.432700919968E-01
  0.432705404838E-01
  0.429721350899E-01
  0.429721463856E-01
  0.423864428103E-01
  0.423862515857E-01
  0.421545970006E-01
  0.421545970006E-01
  0.425662222792E-01
  0.425661305662E-01
  0.447864735434E-01
  0.447865141916E-01
  0.507449158319E-01
  0.507449158380E-01
  0.640560788158E-01
  0.640561136740E-01
  0.854133440278E-01
  0.854133451657E-01
  0.117998019138E+00
  0.117998019132E+00
  0.169057440070E+00
  0.169057440070E+00
  0.218368151756E+00
  0.218368190567E+00
  0.262657654474E+00
  0.262657654475E+00
  0.311082766388E+00
  0.311082684650E+00
  0.371774541582E+00
  0.371774608853E+00
  0.448585292230E+00
  0.448585363465E+00
  0.572718508537E+00
  0.572718299529E+00
  0.699625901707E+00
  0.699625904243E+00
  0.578155690090E+00
  0.578155652814E+00
  0.347545172718E+00
  0.347545524168E+00
  0.181609653585E+00
  0.181609558211E+00
  0.894405326442E-01
  0.894404496438E-01
  0.205444685487E-01
  0.205445640066E-01
 -0.323278509898E-01
 -0.323278509907E-01
 -0.792179936964E-01
 -0.792180354084E-01
 -0.129895937761E+00
 -0.129895937761E+00
 -0.180771153363E+00
 -0.180771153357E+00
 -0.212421115742E+00
 -0.212421116798E+00
 -0.232828172676E+00
 -0.232828207372E+00
 -0.245413386398E+00
 -0.245413386404E+00
 -0.251013699358E+00
 -0.251013739443E+00
 -0.253095416720E+00
 -0.253095326923E+00
 -0.253480933588E+00
 -0.253480933588E+00
 -0.253263933755E+00
 -0.253263749231E+00
 -0.252714960304E+00
 -0.252714971138E+00
 -0.252435297213E+00
 -0.252435725094E+00
 -0.252223359859E+00
 -0.252223373798E+00
 -0.252064339064E+00
 -0.252063692322E+00
  0.436661954584E-01
  0.436669507230E-01
  0.434971150211E-01
  0.434966292541E-01
  0.432700769963E-01
  0.432700917603E-01
  0.429720792223E-01
  0.429721358005E-01
  0.423864257895E-01
  0.423864434920E-01
  0.421545397920E-01
  0.421545966499E-01
  0.425661982178E-01
  0.425662217994E-01
  0.447865697151E-01
  0.447864731180E-01
  0.507448198001E-01
  0.507449149820E-01
  0.640561396513E-01
  0.640560785310E-01
  0.854133451776E-01
  0.854133451803E-01
  0.117998019222E+00
  0.117998019222E+00
  0.169057439874E+00
  0.169057427094E+00
  0.218368190992E+00
  0.218368190993E+00
  0.262657654184E+00
  0.262657657023E+00
  0.311082678561E+00
  0.311082573598E+00
  0.371774612882E+00
  0.371774680771E+00
  0.448585371558E+00
  0.448585201460E+00
  0.572718311918E+00
  0.572718376097E+00
  0.699625917314E+00
  0.699625921584E+00
  0.578155739601E+00
  0.578155700891E+00
  0.347545286117E+00
  0.347545180237E+00
  0.181609431246E+00
  0.181609656861E+00
  0.894406167611E-01
  0.894405336133E-01
  0.205443463085E-01
  0.205444681466E-01
 -0.323278477903E-01
 -0.323278509539E-01
 -0.792179938494E-01
 -0.792179938505E-01
 -0.129895950652E+00
 -0.129895937610E+00
 -0.180771153501E+00
 -0.180771153501E+00
 -0.212421115769E+00
 -0.212421115772E+00
 -0.232828206337E+00
 -0.232828145834E+00
 -0.245413382294E+00
 -0.245413476135E+00
 -0.251013737059E+00
 -0.251013642346E+00
 -0.253095324070E+00
 -0.253095347042E+00
 -0.253480931479E+00
 -0.253480986499E+00
 -0.253263753305E+00
 -0.253263770328E+00
 -0.252714975317E+00
 -0.252715029432E+00
 -0.252435723714E+00
 -0.252435737771E+00
 -0.252223372452E+00
 -0.252222911668E+00
 -0.252063691861E+00
 -0.252064406209E+00
  0.436668725798E-01
  0.436661959066E-01
  0.434965514072E-01
  0.434971155728E-01
  0.432704227718E-01
  0.432700774153E-01
  0.429720456295E-01
  0.429720795875E-01
  0.423861276991E-01
  0.423864253631E-01
  0.421547084400E-01
  0.421545400967E-01
  0.425661750763E-01
  0.425661986644E-01
  0.447865293433E-01
  0.447865700627E-01
  0.507449002809E-01
  0.507448200738E-01
  0.640560569740E-01
  0.640561399741E-01
  0.854133450673E-01
  0.854134184216E-01
  0.117998019449E+00
  0.117997963852E+00
  0.169057427346E+00
  0.169057508023E+00
  0.218368191068E+00
  0.218368140266E+00
  0.262657661022E+00
  0.262657661021E+00
  0.311082577886E+00
  0.311082637780E+00
  0.371774688526E+00
  0.371774621728E+00
  0.448585209126E+00
  0.448585282134E+00
  0.572718392280E+00
  0.572718471203E+00
  0.699625935524E+00
  0.699625942394E+00
  0.578155799014E+00
  0.578155751120E+00
  0.347545424151E+00
  0.347545295937E+00
  0.181609530440E+00
  0.181609434350E+00
  0.894405373142E-01
  0.894406186268E-01
  0.205444157623E-01
  0.205443465917E-01
 -0.323278482840E-01
 -0.323278482825E-01
 -0.792180481314E-01
 -0.792179938768E-01
 -0.129895868593E+00
 -0.129895950845E+00
 -0.180771207676E+00
 -0.180771153848E+00
 -0.212421046909E+00
 -0.212421115488E+00
 -0.232828147007E+00
 -0.232828228791E+00
 -0.245413477459E+00
 -0.245413398779E+00
 -0.251013644295E+00
 -0.251013684027E+00
 -0.253095349697E+00
 -0.253095372577E+00
 -0.253480988332E+00
 -0.253480826014E+00
 -0.253263767780E+00
 -0.253264053202E+00
 -0.252715031580E+00
 -0.252715063987E+00
 -0.252435740216E+00
 -0.252435411975E+00
 -0.252222914867E+00
 -0.252223449318E+00
 -0.252064408797E+00
 -0.252063769407E+00
  0.436668262071E-01
  0.436668721397E-01
  0.434965061278E-01
  0.434965501678E-01
  0.432703779711E-01
  0.432704222840E-01
  0.429723220660E-01
  0.429720450981E-01
  0.423860739675E-01
  0.423861271025E-01
  0.421546516827E-01
  0.421547085914E-01
  0.425662905444E-01
  0.425661750560E-01
  0.447864884810E-01
  0.447865292250E-01
  0.507448633652E-01
  0.507449001666E-01
  0.640561180002E-01
  0.640560567643E-01
  0.854134181668E-01
  0.854133826486E-01
  0.117997963854E+00
  0.117997963854E+00
  0.169057508132E+00
  0.169057495339E+00
  0.218368139644E+00
  0.218368088756E+00
  0.262657660364E+00
  0.262657712034E+00
  0.311082635058E+00
  0.311082755371E+00
  0.371774601709E+00
  0.371774398428E+00
  0.448585269373E+00
  0.448585553495E+00
  0.572718393320E+00
  0.572717929580E+00
  0.699625956955E+00
  0.699625966672E+00
  0.578155868329E+00
  0.578155811047E+00
  0.347544632864E+00
  0.347545376889E+00
  0.181609896852E+00
  0.181609525274E+00
  0.894402862950E-01
  0.894405324981E-01
  0.205445539467E-01
  0.205444155825E-01
 -0.323277910675E-01
 -0.323278482031E-01
 -0.792181021212E-01
 -0.792180479057E-01
 -0.129895881710E+00
 -0.129895868677E+00
 -0.180771207678E+00
 -0.180771207678E+00
 -0.212421079580E+00
 -0.212421046275E+00
 -0.232828228028E+00
 -0.232828167922E+00
 -0.245413398226E+00
 -0.245413434174E+00
 -0.251013683364E+00
 -0.251013722959E+00
 -0.253095372456E+00
 -0.253095260836E+00
 -0.253480826924E+00
 -0.253480881631E+00
 -0.253264049637E+00
 -0.253264100464E+00
 -0.252715060861E+00
 -0.252714797046E+00
 -0.252435409128E+00
 -0.252435451184E+00
 -0.252223442131E+00
 -0.252223483806E+00
 -0.252063766866E+00
 -0.252063810232E+00
  0.436667809926E-01
  0.436668269671E-01
  0.434964628626E-01
  0.434965068801E-01
  0.432703343926E-01
  0.432703787109E-01
  0.429722661431E-01
  0.429723227663E-01
  0.423860384982E-01
  0.423860739519E-01
  0.421545947176E-01
  0.421546516365E-01
  0.425662432816E-01
  0.425662905173E-01
  0.447865851755E-01
  0.447864884027E-01
  0.507449072367E-01
  0.507448637427E-01
  0.640560833478E-01
  0.640561183384E-01
  0.854133828126E-01
  0.854133118308E-01
  0.117997963670E+00
  0.117998076012E+00
  0.169057495254E+00
  0.169057414512E+00
  0.218368089229E+00
  0.218368179316E+00
  0.262657711549E+00
  0.262657567613E+00
  0.311082767917E+00
  0.311082828309E+00
  0.371774411016E+00
  0.371774480205E+00
  0.448585595285E+00
  0.448585282605E+00
  0.572718023590E+00
  0.572718644989E+00
  0.699625981696E+00
  0.699625994418E+00
  0.578155947546E+00
  0.578155880745E+00
  0.347545676848E+00
  0.347544689913E+00
  0.181609506981E+00
  0.181609913771E+00
  0.894403727709E-01
  0.894402893233E-01
  0.205446239863E-01
  0.205445547753E-01
 -0.323279497142E-01
 -0.323277910078E-01
 -0.792180065076E-01
 -0.792181022927E-01
 -0.129895963848E+00
 -0.129895881645E+00
 -0.180771098353E+00
 -0.180771207396E+00
 -0.212421146712E+00
 -0.212421079988E+00
 -0.232828169152E+00
 -0.232828203387E+00
 -0.245413436000E+00
 -0.245413393664E+00
 -0.251013722520E+00
 -0.251013628793E+00
 -0.253095260674E+00
 -0.253095306192E+00