# vtk DataFile Version 3.0
MachLine results file. Generated by MachLine, USU AeroLab (c) 2022.
ASCII
DATASET POLYDATA
POINTS                 108 float
  0.000000000000E+00  0.000000000000E+00  0.000000000000E+00
  0.988756381047E+04  0.000000000000E+00  0.149535343444E+04
  0.113538098335E+01  0.000000000000E+00 -0.658124566078E+00
  0.988768650488E+04  0.000000000000E+00  0.149454215543E+04
  0.113538098335E+01  0.000000000000E+00  0.658124566078E+00
  0.988749189215E+04  0.000000000000E+00  0.149582897215E+04
  0.192375373840E+01  0.192375373840E+01  0.000000000000E+00
  0.988760682718E+04  0.192375373840E+01  0.149506899970E+04
  0.305913543701E+01  0.192375373840E+01 -0.658124983311E+00
  0.988772952167E+04  0.192375373840E+01  0.149425772018E+04
  0.305913543701E+01  0.192375373840E+01  0.658124983311E+00
  0.988753490882E+04  0.192375373840E+01  0.149554453772E+04
  0.423028087616E+01  0.000000000000E+00 -0.108747220039E+01
  0.988781919016E+04  0.000000000000E+00  0.149366481495E+04
  0.423028087616E+01  0.000000000000E+00  0.108747220039E+01
  0.988749761587E+04  0.000000000000E+00  0.149579112581E+04
  0.939508819580E+01  0.000000000000E+00  0.980745851994E+00
  0.988762888511E+04  0.000000000000E+00  0.149492314840E+04
  0.970061969757E+01  0.547033166885E+01 -0.108747410774E+01
  0.988794151169E+04  0.547033166885E+01  0.149285600147E+04
  0.125173873901E+02  0.113820018768E+02 -0.658127009869E+00
  0.988794101623E+04  0.113820018768E+02  0.149285927758E+04
  0.125173873901E+02  0.113820018768E+02  0.658127009869E+00
  0.988774640278E+04  0.113820018768E+02  0.149414609908E+04
  0.156122989655E+02  0.113820018768E+02 -0.108747613430E+01
  0.988807370198E+04  0.113820018768E+02  0.149198193392E+04
  0.156122989655E+02  0.113820018768E+02  0.108747613430E+01
  0.988775212654E+04  0.113820018768E+02  0.149410825247E+04
  0.190000000000E+02  0.000000000000E+00  0.000000000000E+00
  0.988798866603E+04  0.000000000000E+00  0.149254420796E+04
  0.200105609894E+02  0.547033166885E+01 -0.479613870382E+00
  0.988808217584E+04  0.547033166885E+01  0.149192590314E+04
  0.209237651825E+02  0.192375373840E+01  0.000000000000E+00
  0.988803168299E+04  0.192375373840E+01  0.149225977154E+04
  0.231208724976E+02  0.547033166885E+01 -0.144199103117E+00
  0.988810213253E+04  0.547033166885E+01  0.149179394568E+04
  0.231208724976E+02  0.547033166885E+01  0.144199103117E+00
  0.988805949170E+04  0.547033166885E+01  0.149207589507E+04
  0.239865016937E+02  0.197561950684E+02  0.108747911453E+01
  0.988793938013E+04  0.197561950684E+02  0.149287009581E+04
  0.244703655243E+02  0.547033166885E+01  0.000000000000E+00
  0.988811098788E+04  0.547033166885E+01  0.149173539240E+04
  0.259222583771E+02  0.113820018768E+02 -0.479614794254E+00
  0.988821436637E+04  0.113820018768E+02  0.149105183398E+04
  0.259222583771E+02  0.113820018768E+02  0.479614794254E+00
  0.988807254042E+04  0.113820018768E+02  0.149198961441E+04
  0.290325775146E+02  0.113820018768E+02 -0.144199386239E+00
  0.988823432314E+04  0.113820018768E+02  0.149091987602E+04
  0.290325775146E+02  0.113820018768E+02  0.144199386239E+00
  0.988819168222E+04  0.113820018768E+02  0.149120182596E+04
  0.303820724487E+02  0.113820018768E+02  0.000000000000E+00
  0.988824317849E+04  0.113820018768E+02  0.149086132274E+04
  0.387563171387E+02  0.197561950684E+02  0.000000000000E+00
  0.988843043346E+04  0.197561950684E+02  0.148962315695E+04
  0.418483314514E+02  0.376179962158E+02 -0.108748543262E+01
  0.988866036253E+04  0.376179962158E+02  0.148810282182E+04
  0.418483314514E+02  0.376179962158E+02  0.108748543262E+01
  0.988833878433E+04  0.376179962158E+02  0.149022915856E+04
  0.446650657654E+02  0.435296669006E+02  0.658133804798E+00
  0.988846525019E+04  0.435296669006E+02  0.148939294208E+04
  0.468944816589E+02  0.292438049316E+02 -0.144200220704E+00
  0.988863373007E+04  0.292438049316E+02  0.148827892079E+04
  0.477600097656E+02  0.435296669006E+02 -0.108748745918E+01
  0.988879255280E+04  0.435296669006E+02  0.148722875441E+04
  0.477600097656E+02  0.435296669006E+02  0.108748745918E+01
  0.988847097400E+04  0.435296669006E+02  0.148935509511E+04
  0.482439842224E+02  0.292438049316E+02  0.000000000000E+00
  0.988864258547E+04  0.292438049316E+02  0.148822036719E+04
  0.507935333252E+02  0.496581344604E+02 -0.771266485397E-15
  0.988869959547E+04  0.496581344604E+02  0.148784340609E+04
  0.529248886108E+02  0.435296669006E+02  0.980759620667E+00
  0.988860224506E+04  0.435296669006E+02  0.148848710566E+04
  0.532303466797E+02  0.490000000000E+02 -0.108748936653E+01
  0.988891487429E+04  0.490000000000E+02  0.148641994121E+04
  0.532303466797E+02  0.490000000000E+02  0.108748936653E+01
  0.988859329493E+04  0.490000000000E+02  0.148854628564E+04
  0.539993209839E+02  0.497689704895E+02  0.768971264362E+00
  0.988865758401E+04  0.497689704895E+02  0.148812119392E+04
  0.543178405762E+02  0.500874900818E+02 -0.157378642191E-15
  0.988877840187E+04  0.500874900818E+02  0.148732232308E+04
  0.552687225342E+02  0.376179962158E+02 -0.144200608134E+00
  0.988882098501E+04  0.376179962158E+02  0.148704075519E+04
  0.552687225342E+02  0.376179962158E+02  0.144200608134E+00
  0.988877834373E+04  0.376179962158E+02  0.148732270752E+04
  0.564714775085E+02  0.470762481689E+02 -0.980760753155E+00
  0.988897156838E+04  0.470762481689E+02  0.148604506905E+04
  0.564714775085E+02  0.470762481689E+02  0.980760753155E+00
  0.988868154953E+04  0.470762481689E+02  0.148796272933E+04
  0.566182289124E+02  0.376179962158E+02  0.000000000000E+00
  0.988882984044E+04  0.376179962158E+02  0.148698220140E+04
  0.625299339294E+02  0.435296669006E+02  0.000000000000E+00
  0.988896203100E+04  0.435296669006E+02  0.148610813202E+04
  0.647270278931E+02  0.470762481689E+02 -0.144201040268E+00
  0.988903248053E+04  0.470762481689E+02  0.148564230625E+04
  0.647270278931E+02  0.470762481689E+02  0.144201040268E+00
  0.988898983912E+04  0.470762481689E+02  0.148592425942E+04
  0.660765380859E+02  0.470762481689E+02  0.000000000000E+00
  0.988904133597E+04  0.470762481689E+02  0.148558375232E+04
  0.667527542114E+02  0.491019668579E+02  0.101965606213E+00
  0.988904138070E+04  0.491019668579E+02  0.148558345662E+04
  0.667949905396E+02  0.491441993713E+02 -0.260488604752E-16
  0.988905740116E+04  0.491441993713E+02  0.148547752623E+04
  0.680002975464E+02  0.490000000000E+02  0.000000000000E+00
  0.988908435281E+04  0.490000000000E+02  0.148529931674E+04
  0.303820724487E+02  0.113820018768E+02  0.000000000000E+00
  0.988824317849E+04  0.113820018768E+02  0.149086132274E+04
  0.387563171387E+02  0.197561950684E+02  0.000000000000E+00
  0.988843043346E+04  0.197561950684E+02  0.148962315695E+04
POLYGONS                  18                  72
3                  32                  33                  29
3                  32                  29                  28
3                  40                  41                  33
3                  40                  33                  32
3                  50                  51                  41
3                  50                  41                  40
3                  52                  53                  51
3                  52                  51                  50
3                  66                  67                  53
3                  66                  53                  52
3                  88                  89                  67
3                  88                  67                  66
3                  90                  91                  89
3                  90                  89                  88
3                  96                  97                  91
3                  96                  91                  90
3                 102                 103                  97
3                 102                  97                  96
CELL_DATA                  18
NORMALS normals float
  0.147890983613E+00 -0.147891863393E+00 -0.977883558359E+00
  0.147890983613E+00 -0.147891863393E+00 -0.977883558359E+00
  0.147890982416E+00 -0.147891916961E+00 -0.977883550438E+00
  0.147890982416E+00 -0.147891916961E+00 -0.977883550438E+00
  0.147890982766E+00 -0.147891901293E+00 -0.977883552755E+00
  0.147890982766E+00 -0.147891901293E+00 -0.977883552755E+00
  0.147890982964E+00 -0.147891892442E+00 -0.977883554063E+00
  0.147890982964E+00 -0.147891892442E+00 -0.977883554063E+00
  0.147890983347E+00 -0.147891875289E+00 -0.977883556600E+00
  0.147890983347E+00 -0.147891875289E+00 -0.977883556600E+00
  0.147890982227E+00 -0.147891925391E+00 -0.977883549192E+00
  0.147890982227E+00 -0.147891925391E+00 -0.977883549192E+00
  0.147890984071E+00 -0.147891842952E+00 -0.977883561381E+00
  0.147890984071E+00 -0.147891842952E+00 -0.977883561381E+00
  0.147890981981E+00 -0.147891936409E+00 -0.977883547563E+00
  0.147890981981E+00 -0.147891936409E+00 -0.977883547563E+00
  0.147890990028E+00 -0.147891576548E+00 -0.977883600770E+00
  0.147890990028E+00 -0.147891576548E+00 -0.977883600770E+00
POINT_DATA                 108
SCALARS mu float 1
LOOKUP_TABLE default
  0.000000000000E+00
  0.000000000000E+00
  0.000000000000E+00
  0.000000000000E+00
  0.000000000000E+00
  0.000000000000E+00
  0.000000000000E+00
  0.000000000000E+00
  0.000000000000E+00
  0.000000000000E+00
  0.000000000000E+00
  0.000000000000E+00
  0.000000000000E+00
  0.000000000000E+00
  0.000000000000E+00
  0.000000000000E+00
  0.000000000000E+00
  0.000000000000E+00
  0.000000000000E+00
  0.000000000000E+00
  0.000000000000E+00
  0.000000000000E+00
  0.000000000000E+00
  0.000000000000E+00
  0.000000000000E+00
  0.000000000000E+00
  0.000000000000E+00
  0.000000000000E+00
 -0.426395923688E+01
 -0.426395923688E+01
  0.000000000000E+00
  0.000000000000E+00
 -0.433546145277E+01
 -0.433546145277E+01
  0.000000000000E+00
  0.000000000000E+00
  0.000000000000E+00
  0.000000000000E+00
  0.000000000000E+00
  0.000000000000E+00
 -0.448114192687E+01
 -0.448114192687E+01
  0.000000000000E+00
  0.000000000000E+00
  0.000000000000E+00
  0.000000000000E+00
  0.000000000000E+00
  0.000000000000E+00
  0.000000000000E+00
  0.000000000000E+00
 -0.466233563191E+01
 -0.466233563191E+01
 -0.477262323194E+01
 -0.477262323194E+01
  0.000000000000E+00
  0.000000000000E+00
  0.000000000000E+00
  0.000000000000E+00
  0.000000000000E+00
  0.000000000000E+00
  0.000000000000E+00
  0.000000000000E+00
  0.000000000000E+00
  0.000000000000E+00
  0.000000000000E+00
  0.000000000000E+00
 -0.464703687524E+01
 -0.464703687524E+01
  0.000000000000E+00
  0.000000000000E+00
  0.000000000000E+00
  0.000000000000E+00
  0.000000000000E+00
  0.000000000000E+00
  0.000000000000E+00
  0.000000000000E+00
  0.000000000000E+00
  0.000000000000E+00
  0.000000000000E+00
  0.000000000000E+00
  0.000000000000E+00
  0.000000000000E+00
  0.000000000000E+00
  0.000000000000E+00
  0.000000000000E+00
  0.000000000000E+00
  0.000000000000E+00
  0.000000000000E+00
 -0.410889905864E+01
 -0.410889905864E+01
 -0.308806316359E+01
 -0.308806316359E+01
  0.000000000000E+00
  0.000000000000E+00
  0.000000000000E+00
  0.000000000000E+00
 -0.168585237331E+01
 -0.168585237331E+01
  0.000000000000E+00
  0.000000000000E+00
  0.000000000000E+00
  0.000000000000E+00
  0.000000000000E+00
  0.000000000000E+00
  0.466233563191E+01
  0.466233563191E+01
  0.477262323194E+01
  0.477262323194E+01
