# vtk DataFile Version 3.0
TriPan results file. Generated by TriPan, USU AeroLab (c) 2021.
ASCII
DATASET POLYDATA
POINTS                7064 float
  0.000000000000E+00  0.000000000000E+00  0.000000000000E+00
  0.389988087118E-01  0.000000000000E+00 -0.109218262136E+00
  0.389988087118E-01  0.000000000000E+00  0.109218262136E+00
  0.147665724158E+00  0.000000000000E+00 -0.234920635819E+00
  0.147665724158E+00  0.000000000000E+00  0.234920635819E+00
  0.161138445139E+00  0.161138445139E+00  0.000000000000E+00
  0.200137257576E+00  0.161138445139E+00 -0.109218269587E+00
  0.200137257576E+00  0.161138445139E+00  0.109218269587E+00
  0.290265858173E+00  0.000000000000E+00 -0.347333192825E+00
  0.290265858173E+00  0.000000000000E+00  0.347333192825E+00
  0.308804154396E+00  0.161138445139E+00 -0.234920650721E+00
  0.308804154396E+00  0.161138445139E+00  0.234920650721E+00
  0.335006117821E+00  0.335006117821E+00  0.000000000000E+00
  0.374004930258E+00  0.335006117821E+00 -0.109218277037E+00
  0.374004930258E+00  0.335006117821E+00  0.109218277037E+00
  0.451404303312E+00  0.161138445139E+00 -0.347333222628E+00
  0.451404303312E+00  0.161138445139E+00  0.347333222628E+00
  0.473465979099E+00  0.000000000000E+00 -0.436293870211E+00
  0.473465979099E+00  0.000000000000E+00  0.436293870211E+00
  0.482671856880E+00  0.335006117821E+00 -0.234920650721E+00
  0.482671856880E+00  0.335006117821E+00  0.234920650721E+00
  0.522506594658E+00  0.522506594658E+00  0.000000000000E+00
  0.561505436897E+00  0.522506594658E+00 -0.109218284488E+00
  0.561505436897E+00  0.522506594658E+00  0.109218284488E+00
  0.625271975994E+00  0.335006117821E+00 -0.347333222628E+00
  0.625271975994E+00  0.335006117821E+00  0.347333222628E+00
  0.634604454041E+00  0.161138445139E+00 -0.436293900013E+00
  0.634604454041E+00  0.161138445139E+00  0.436293900013E+00
  0.670172333717E+00  0.522506594658E+00 -0.234920665622E+00
  0.670172333717E+00  0.522506594658E+00  0.234920665622E+00
  0.689334988594E+00  0.000000000000E+00 -0.522850036621E+00
  0.689334988594E+00  0.000000000000E+00  0.522850036621E+00
  0.724590361118E+00  0.724590361118E+00  0.000000000000E+00
  0.763589203358E+00  0.724590361118E+00 -0.109218291938E+00
  0.763589203358E+00  0.724590361118E+00  0.109218291938E+00
  0.808472156525E+00  0.335006117821E+00 -0.436293929815E+00
  0.808472156525E+00  0.335006117821E+00  0.436293929815E+00
  0.812772512436E+00  0.522506594658E+00 -0.347333252430E+00
  0.812772512436E+00  0.522506594658E+00  0.347333252430E+00
  0.850473463535E+00  0.161138445139E+00 -0.522850036621E+00
  0.850473463535E+00  0.161138445139E+00  0.522850036621E+00
  0.872256100178E+00  0.724590361118E+00 -0.234920680523E+00
  0.872256100178E+00  0.724590361118E+00  0.234920680523E+00
  0.942254066467E+00  0.942254066467E+00  0.000000000000E+00
  0.944064557552E+00  0.000000000000E+00 -0.604293465614E+00
  0.944064557552E+00  0.000000000000E+00  0.604293465614E+00
  0.981252849102E+00  0.942254066467E+00 -0.109218299389E+00
  0.981252849102E+00  0.942254066467E+00  0.109218299389E+00
  0.995972692966E+00  0.522506594658E+00 -0.436293959618E+00
  0.995972692966E+00  0.522506594658E+00  0.436293959618E+00
  0.101485633850E+01  0.724590361118E+00 -0.347333282232E+00
  0.101485633850E+01  0.724590361118E+00  0.347333282232E+00
  0.102434122562E+01  0.335006117821E+00 -0.522850096226E+00
  0.102434122562E+01  0.335006117821E+00  0.522850096226E+00
  0.108991980553E+01  0.942254066467E+00 -0.234920710325E+00
  0.108991980553E+01  0.942254066467E+00  0.234920710325E+00
  0.110520303249E+01  0.161138445139E+00 -0.604293525219E+00
  0.110520303249E+01  0.161138445139E+00  0.604293525219E+00
  0.117653930187E+01  0.117653930187E+01  0.000000000000E+00
  0.119805645943E+01  0.724590361118E+00 -0.436293989420E+00
  0.119805645943E+01  0.724590361118E+00  0.436293989420E+00
  0.121184170246E+01  0.522506594658E+00 -0.522850096226E+00
  0.121184170246E+01  0.522506594658E+00  0.522850096226E+00
  0.121553814411E+01  0.117653930187E+01 -0.109218306839E+00
  0.121553814411E+01  0.117653930187E+01  0.109218306839E+00
  0.123251998425E+01  0.942254066467E+00 -0.347333312035E+00
  0.123251998425E+01  0.942254066467E+00  0.347333312035E+00
  0.123833239079E+01  0.000000000000E+00 -0.683996438980E+00
  0.123833239079E+01  0.000000000000E+00  0.683996438980E+00
  0.127907073498E+01  0.335006117821E+00 -0.604293525219E+00
  0.127907073498E+01  0.335006117821E+00  0.604293525219E+00
  0.132420504093E+01  0.117653930187E+01 -0.234920725226E+00
  0.132420504093E+01  0.117653930187E+01  0.234920725226E+00
  0.139947092533E+01  0.161138445139E+00 -0.683996498585E+00
  0.139947092533E+01  0.161138445139E+00  0.683996498585E+00
  0.141392552853E+01  0.724590361118E+00 -0.522850155830E+00
  0.141392552853E+01  0.724590361118E+00  0.522850155830E+00
  0.141572022438E+01  0.942254066467E+00 -0.436294019222E+00
  0.141572022438E+01  0.942254066467E+00  0.436294019222E+00
  0.142853081226E+01  0.142853081226E+01  0.000000000000E+00
  0.146657133102E+01  0.522506594658E+00 -0.604293584824E+00
  0.146657133102E+01  0.522506594658E+00  0.604293584824E+00
  0.146680521965E+01  0.117653930187E+01 -0.347333341837E+00
  0.146680521965E+01  0.117653930187E+01  0.347333341837E+00
  0.146752965450E+01  0.142853081226E+01 -0.109218314290E+00
  0.146752965450E+01  0.142853081226E+01  0.109218314290E+00
  0.157333862782E+01  0.335006117821E+00 -0.683996558189E+00
  0.157333862782E+01  0.335006117821E+00  0.683996558189E+00
  0.157619655132E+01  0.142853081226E+01 -0.234920740128E+00
  0.157619655132E+01  0.142853081226E+01  0.234920740128E+00
  0.157641971111E+01  0.000000000000E+00 -0.760520398617E+00
  0.157641971111E+01  0.000000000000E+00  0.760520398617E+00
  0.163158929348E+01  0.942254066467E+00 -0.522850155830E+00
  0.163158929348E+01  0.942254066467E+00  0.522850155830E+00
  0.165000545979E+01  0.117653930187E+01 -0.436294049025E+00
  0.165000545979E+01  0.117653930187E+01  0.436294049025E+00
  0.166865515709E+01  0.724590361118E+00 -0.604293584824E+00
  0.166865515709E+01  0.724590361118E+00  0.604293584824E+00
  0.169935321808E+01  0.169935321808E+01  0.000000000000E+00
  0.171879673004E+01  0.142853081226E+01 -0.347333371639E+00
  0.171879673004E+01  0.142853081226E+01  0.347333371639E+00
  0.173755824566E+01  0.161138445139E+00 -0.760520458221E+00
  0.173755824566E+01  0.161138445139E+00  0.760520458221E+00
  0.173835194111E+01  0.169935321808E+01 -0.109218329191E+00
  0.173835194111E+01  0.169935321808E+01  0.109218329191E+00
  0.176083922386E+01  0.522506594658E+00 -0.683996558189E+00
  0.176083922386E+01  0.522506594658E+00  0.683996558189E+00
  0.184701895714E+01  0.169935321808E+01 -0.234920755029E+00
  0.184701895714E+01  0.169935321808E+01  0.234920755029E+00
  0.186587452888E+01  0.117653930187E+01 -0.522850215435E+00
  0.186587452888E+01  0.117653930187E+01  0.522850215435E+00
  0.188631892204E+01  0.942254066467E+00 -0.604293644428E+00
  0.188631892204E+01  0.942254066467E+00  0.604293644428E+00
  0.190199697018E+01  0.142853081226E+01 -0.436294078827E+00
  0.190199697018E+01  0.142853081226E+01  0.436294078827E+00
  0.191142594814E+01  0.335006117821E+00 -0.760520458221E+00
  0.191142594814E+01  0.335006117821E+00  0.760520458221E+00
  0.196138751507E+01  0.000000000000E+00 -0.833668828011E+00
  0.196138751507E+01  0.000000000000E+00  0.833668828011E+00
  0.196292304993E+01  0.724590361118E+00 -0.683996617794E+00
  0.196292304993E+01  0.724590361118E+00  0.683996617794E+00
  0.198961913586E+01  0.169935321808E+01 -0.347333401442E+00
  0.198961913586E+01  0.169935321808E+01  0.347333401442E+00
  0.199016737938E+01  0.199016737938E+01  0.000000000000E+00
  0.202916622162E+01  0.199016737938E+01 -0.109218336642E+00
  0.202916622162E+01  0.199016737938E+01  0.109218336642E+00
  0.209892654419E+01  0.522506594658E+00 -0.760520517826E+00
  0.209892654419E+01  0.522506594658E+00  0.760520517826E+00
  0.211786603928E+01  0.142853081226E+01 -0.522850275040E+00
  0.211786603928E+01  0.142853081226E+01  0.522850275040E+00
  0.212060427666E+01  0.117653930187E+01 -0.604293704033E+00
  0.212060427666E+01  0.117653930187E+01  0.604293704033E+00
  0.212252616882E+01  0.161138445139E+00 -0.833668828011E+00
  0.212252616882E+01  0.161138445139E+00  0.833668828011E+00
  0.213783311844E+01  0.199016737938E+01 -0.234920784831E+00
  0.213783311844E+01  0.199016737938E+01  0.234920784831E+00
  0.217281937599E+01  0.169935321808E+01 -0.436294138432E+00
  0.217281937599E+01  0.169935321808E+01  0.436294138432E+00
  0.218058681488E+01  0.942254066467E+00 -0.683996677399E+00
  0.218058681488E+01  0.942254066467E+00  0.683996677399E+00
  0.228043341637E+01  0.199016737938E+01 -0.347333431244E+00
  0.228043341637E+01  0.199016737938E+01  0.347333431244E+00
  0.229639387131E+01  0.335006117821E+00 -0.833668887615E+00
  0.229639387131E+01  0.335006117821E+00  0.833668887615E+00
  0.230101037025E+01  0.724590361118E+00 -0.760520577431E+00
  0.230101037025E+01  0.724590361118E+00  0.760520577431E+00
  0.230216526985E+01  0.230216526985E+01  0.000000000000E+00
  0.234116411209E+01  0.230216526985E+01 -0.109218344092E+00
  0.234116411209E+01  0.230216526985E+01  0.109218344092E+00
  0.237259578705E+01  0.142853081226E+01 -0.604293763638E+00
  0.237259578705E+01  0.142853081226E+01  0.604293763638E+00
  0.238868856430E+01  0.169935321808E+01 -0.522850275040E+00
  0.238868856430E+01  0.169935321808E+01  0.522850275040E+00
  0.239635515213E+01  0.000000000000E+00 -0.902061045170E+00
  0.239635515213E+01  0.000000000000E+00  0.902061045170E+00
  0.241487216949E+01  0.117653930187E+01 -0.683996737003E+00
  0.241487216949E+01  0.117653930187E+01  0.683996737003E+00
  0.244983124733E+01  0.230216526985E+01 -0.234920799732E+00
  0.244983124733E+01  0.230216526985E+01  0.234920799732E+00
  0.246363353729E+01  0.199016737938E+01 -0.436294168234E+00
  0.246363353729E+01  0.199016737938E+01  0.436294168234E+00
[...]
CELL_DATA               13888
SCALARS sigma float 1
LOOKUP_TABLE default
  0.437047575393E-01
  0.437063071972E-01
  0.436333400224E-01
  0.436333461099E-01
  0.435494504150E-01
  0.435482920847E-01
  0.434511818424E-01
  0.434511818945E-01
  0.433395056120E-01
  0.433395371243E-01
  0.432098816507E-01
  0.432106348425E-01
  0.430702018289E-01
  0.430695181981E-01
  0.428861433162E-01
  0.428861855901E-01
  0.425953549594E-01
  0.425958691850E-01
  0.421998980991E-01
  0.421994725556E-01
  0.420295147966E-01
  0.420296609929E-01
  0.422676395591E-01
  0.422675081433E-01
  0.425457104535E-01
  0.425457104375E-01
  0.425850879901E-01
  0.425851326835E-01
  0.440009057755E-01
  0.440009637487E-01
  0.455241879674E-01
  0.455241355293E-01
  0.476385259244E-01
  0.476385259231E-01
  0.537331014931E-01
  0.537331398704E-01
  0.591542495592E-01
  0.591543184451E-01
  0.688947393410E-01
  0.688946511522E-01
  0.784062565238E-01
  0.784062461024E-01
  0.925127463374E-01
  0.925127798211E-01
  0.109163144558E+00
  0.109163168774E+00
  0.127170150803E+00
  0.127169997614E+00
  0.156451483482E+00
  0.156451483495E+00
  0.182405671608E+00
  0.182405671595E+00
  0.207073725554E+00
  0.207073765072E+00
  0.230569326008E+00
  0.230569471724E+00
  0.252632124818E+00
  0.252631993262E+00
  0.273660711408E+00
  0.273660762320E+00
  0.297730679398E+00
  0.297730750374E+00
  0.325851073201E+00
  0.325850923331E+00
  0.355562357549E+00
  0.355562357543E+00
  0.389729195610E+00
  0.389729164278E+00
  0.424306877339E+00
  0.424306993780E+00
  0.474947700768E+00
  0.474947648467E+00
  0.519059207673E+00
  0.519059185727E+00
  0.620304692578E+00
  0.620304693269E+00
  0.674523832214E+00
  0.674523818354E+00
  0.714489629777E+00
  0.714489631827E+00
  0.641275469986E+00
  0.641275470043E+00
  0.518542400731E+00
  0.518542379564E+00
  0.420606812102E+00
  0.420606806932E+00
  0.272524022322E+00
  0.272524064429E+00
  0.214792469753E+00
  0.214792558446E+00
  0.151798704836E+00
  0.151798527782E+00
  0.110445885939E+00
  0.110445931117E+00
  0.707283389872E-01
  0.707283389957E-01
  0.370263223149E-01
  0.370265201844E-01
  0.579060877983E-02
  0.579051849555E-02
 -0.204662739354E-01
 -0.204663367000E-01
 -0.430607130602E-01
 -0.430605553760E-01
 -0.664337113251E-01
 -0.664338802890E-01
 -0.909641164291E-01
 -0.909641604994E-01
 -0.116330943901E+00
 -0.116330943887E+00
 -0.142604540892E+00
 -0.142604540905E+00
 -0.171748664525E+00
 -0.171748518366E+00
 -0.189414572691E+00
 -0.189414594876E+00
 -0.205578617311E+00
 -0.205578646800E+00
 -0.219145733437E+00
 -0.219145724571E+00
 -0.228228128897E+00
 -0.228228033642E+00
 -0.237474526518E+00
 -0.237474601425E+00
 -0.242597043449E+00
 -0.242597085217E+00
 -0.248335643911E+00
 -0.248335643910E+00
 -0.250321521097E+00
 -0.250321464383E+00
 -0.251750511489E+00
 -0.251750573730E+00
 -0.253077616361E+00
 -0.253077663939E+00
 -0.253114557110E+00
 -0.253114557094E+00
 -0.253375181848E+00
 -0.253375044706E+00
 -0.253597951778E+00
 -0.253598102820E+00
 -0.253438911994E+00
 -0.253438476680E+00
 -0.253067526354E+00
 -0.253068047429E+00
 -0.252795536338E+00
 -0.252795578798E+00
 -0.252623729765E+00
 -0.252623048704E+00
 -0.252491429438E+00
 -0.252492174233E+00
 -0.252370645987E+00
 -0.252370676939E+00
 -0.252265993137E+00
 -0.252265993188E+00
 -0.252174957559E+00
 -0.252173832699E+00
 -0.252095180633E+00
 -0.252095186517E+00
 -0.252026776627E+00
 -0.252028268198E+00
  0.437062993223E-01
  0.437047563947E-01
  0.436333324175E-01
  0.436333445952E-01
  0.435482909527E-01
  0.435494496467E-01
  0.434521568051E-01
  0.434511805050E-01
  0.433386348547E-01
  0.433394989633E-01
  0.432106341321E-01
  0.432098805242E-01
  0.430701821825E-01
  0.430702062348E-01
  0.428855555368E-01
  0.428861364896E-01
  0.425958684954E-01
  0.425953538516E-01
  0.421998691172E-01
  0.421999023112E-01
  0.420295137201E-01
  0.420295137220E-01
  0.422675070497E-01
  0.422676386314E-01
  0.425456579996E-01
  0.425457067303E-01
  0.425851297719E-01
  0.425850850340E-01
  0.440009628285E-01
  0.440009047539E-01
  0.455241344900E-01
  0.455241870270E-01
  0.476386476949E-01
  0.476385265369E-01
  0.537330295331E-01
  0.537331004744E-01
  0.591543203121E-01
  0.591542512712E-01
  0.688946729666E-01
  0.688947410822E-01
  0.784062456127E-01
  0.784061736606E-01
  0.925127763877E-01
  0.925127763877E-01
  0.109163165317E+00
  0.109163165317E+00
  0.127169997616E+00
  0.127170150650E+00
  0.156451482667E+00
  0.156451482667E+00
  0.182405666610E+00
  0.182405666610E+00
  0.207073756538E+00
  0.207073716880E+00
  0.230569474683E+00
  0.230569298674E+00
  0.252632002708E+00
  0.252632188300E+00
  0.273660757932E+00
  0.273660659230E+00
  0.297730773544E+00
  0.297730773546E+00
  0.325850925974E+00
  0.325851036136E+00
  0.355562336876E+00
  0.355562221627E+00
  0.389729162121E+00
  0.389729280296E+00
  0.424306994266E+00
  0.424306912974E+00
  0.474947652192E+00
  0.474947662942E+00
  0.519059169151E+00
  0.519059193590E+00
  0.620304657213E+00
  0.620304664687E+00
  0.674523772132E+00
  0.674523788127E+00
  0.714489636965E+00
  0.714489632250E+00
  0.641275475105E+00
  0.641275474598E+00
  0.518542331486E+00
  0.518542365198E+00
  0.420606827739E+00
  0.420606787654E+00
  0.272524058846E+00
  0.272524013619E+00
  0.214792489187E+00
  0.214792471438E+00
  0.151798583815E+00
  0.151798705010E+00
  0.110446052839E+00
  0.110445885328E+00
  0.707281789626E-01
  0.707283348761E-01
  0.370264661723E-01
  0.370263226152E-01
  0.579060923268E-02
  0.579060923047E-02
 -0.204663940660E-01
 -0.204662736072E-01
 -0.430604941813E-01
 -0.430607146702E-01
 -0.664339147781E-01
 -0.664337121777E-01
 -0.909641566658E-01
 -0.909641126801E-01
 -0.116330940723E+00
 -0.116330940722E+00
 -0.142604540136E+00
 -0.142604540137E+00
 -0.171748518160E+00
 -0.171748664529E+00
 -0.189414566693E+00
 -0.189414566693E+00
 -0.205578609682E+00
 -0.205578609682E+00
 -0.219145793831E+00
 -0.219145732068E+00
 -0.228228039411E+00
 -0.228228112328E+00
 -0.237474608298E+00
 -0.237474533953E+00
 -0.242597080618E+00
 -0.242597157057E+00
 -0.248335647103E+00
 -0.248335516675E+00
 -0.250321459212E+00
 -0.250321515473E+00
 -0.251750567885E+00
 -0.251750506123E+00
 -0.253077646371E+00
 -0.253077599171E+00
 -0.253114534943E+00
 -0.253114585885E+00
 -0.253375039144E+00
 -0.253375175416E+00
 -0.253598096336E+00
 -0.253598096338E+00
 -0.253438501977E+00
 -0.253438535721E+00
 -0.253068040847E+00
 -0.253067522257E+00
 -0.252795538558E+00
 -0.252796119179E+00
 -0.252623074545E+00
 -0.252623098403E+00
 -0.252492167651E+00
 -0.252491425309E+00
 -0.252370638223E+00
 -0.252371484112E+00
 -0.252265985423E+00
 -0.252265035037E+00
 -0.252173828250E+00
 -0.252174950597E+00
 -0.252095212937E+00
 -0.252095224681E+00
 -0.252028261597E+00
 -0.252026779333E+00
  0.437062953411E-01
  0.437063023336E-01
  0.436333239950E-01
  0.436333300863E-01
  0.435482781129E-01
  0.435482886259E-01
  0.434521781277E-01
  0.434521599329E-01
  0.433386327654E-01
  0.433386327654E-01
  0.432106096596E-01
  0.432106371734E-01
  0.430701556324E-01
  0.430701797365E-01
  0.428855532861E-01
  0.428855532861E-01
  0.425958715385E-01
  0.425958715410E-01
  0.421999004523E-01
  0.421998672283E-01
  0.420294520388E-01
  0.420295115067E-01
  0.422676926582E-01
  0.422675072840E-01
  0.425456600949E-01
  0.425456601125E-01
  0.425850871636E-01
  0.425851319412E-01
  0.440010487579E-01
  0.440009656723E-01
  0.455240568519E-01
  0.455241347872E-01
  0.476385252094E-01
  0.476386465516E-01
  0.537331376861E-01
  0.537330280985E-01
  0.591543206119E-01
  0.591543206225E-01
  0.688946713832E-01
  0.688946713793E-01
  0.784061758495E-01
  0.784062476612E-01
  0.925127801147E-01
  0.925127801154E-01
  0.109163168416E+00
  0.109163168416E+00
  0.127170150674E+00
  0.127169997783E+00
  0.156451483366E+00
  0.156451483366E+00
  0.182405670556E+00
  0.182405648831E+00
  0.207073724706E+00
  0.207073764505E+00
  0.230569293959E+00
  0.230569441337E+00
  0.252632185178E+00
  0.252632091723E+00
  0.273660653436E+00
  0.273660752997E+00
  0.297730750538E+00
  0.297730644682E+00
  0.325851042422E+00
  0.325851000012E+00
  0.355562212136E+00
  0.355562329206E+00
  0.389729268720E+00
  0.389729148248E+00
  0.424306905790E+00
  0.424306949890E+00
  0.474947648145E+00
  0.474947637040E+00
  0.519059194375E+00
  0.519059194378E+00
  0.620304674164E+00
  0.620304661031E+00
  0.674523795900E+00
  0.674523783626E+00
  0.714489583637E+00
  0.714489627927E+00
  0.641275422881E+00
  0.641275431473E+00
  0.518542374034E+00
  0.518542337462E+00
  0.420606777435E+00
  0.420606834165E+00
  0.272524059263E+00
  0.272524059258E+00
  0.214792464585E+00
  0.214792482495E+00
  0.151798645845E+00
  0.151798581244E+00
  0.110445881394E+00
  0.110446049559E+00
  0.707283333526E-01
  0.707281770745E-01
  0.370264122713E-01
  0.370264668865E-01
  0.579047703681E-02
  0.579060878519E-02
 -0.204662732381E-01
 -0.204663936326E-01
 -0.430606037802E-01
 -0.430604936492E-01
 -0.664337449117E-01
 -0.664339134196E-01
 -0.909641161813E-01
 -0.909641601035E-01
 -0.116330966268E+00
 -0.116330943239E+00
 -0.142604540774E+00
 -0.142604540774E+00
 -0.171748664754E+00
 -0.171748518192E+00
 -0.189414572071E+00
 -0.189414572070E+00
 -0.205578617963E+00
 -0.205578617964E+00
 -0.219145737802E+00
 -0.219145799949E+00
 -0.228228107069E+00
 -0.228228107065E+00
 -0.237474535200E+00
 -0.237474535211E+00
 -0.242597150580E+00
 -0.242597033594E+00
 -0.248335510715E+00
 -0.248335640111E+00
 -0.250321517107E+00
 -0.250321599801E+00
 -0.251750522394E+00
 -0.251750434806E+00
 -0.253077612062E+00
 -0.253077658914E+00
 -0.253114598456E+00
 -0.253114598474E+00
 -0.253375176821E+00
 -0.253374986190E+00
 -0.253598082984E+00
 -0.253598143606E+00
 -0.253438524377E+00
 -0.253438490797E+00
 -0.253067540351E+00
 -0.253067540354E+00
 -0.252796105911E+00
 -0.252796105911E+00
 -0.252623084056E+00
 -0.252623107868E+00
 -0.252491443081E+00
 -0.252491470087E+00
 -0.252371471946E+00
 -0.252371471946E+00
 -0.252265053196E+00
 -0.252265035532E+00
 -0.252174937123E+00
 -0.252174947282E+00
 -0.252095211212E+00
 -0.252095217075E+00
 -0.252026796698E+00
 -0.252026803404E+00
  0.437047440452E-01
  0.437062948720E-01
  0.436333174351E-01
  0.436333235274E-01
  0.435494206110E-01
  0.435482822009E-01
  0.434511642233E-01
  0.434521776027E-01
  0.433395015266E-01
  0.433386367211E-01
  0.432098547324E-01
  0.432106090455E-01
  0.430701794470E-01
  0.430701553645E-01
  0.428861394817E-01
  0.428855577582E-01
  0.425953183081E-01
  0.425958711184E-01
  0.421998664570E-01
  0.421998997044E-01
  0.420299279514E-01
  0.420294561351E-01
  0.422674552986E-01
  0.422676945374E-01
  0.425456595425E-01
  0.425456595232E-01
  0.425851320981E-01
  0.425850872529E-01
  0.440009650302E-01
  0.440010482355E-01
  0.455240548447E-01
  0.455240548460E-01
  0.476385246727E-01
  0.476385246855E-01
  0.537331396637E-01
  0.537331396625E-01
  0.591543201214E-01
  0.591543201120E-01
  0.688946709266E-01
  0.688946709322E-01
  0.784062455108E-01
  0.784062558863E-01
  0.925127780423E-01
  0.925127114248E-01
  0.109163165575E+00
  0.109163189683E+00
  0.127169997984E+00
  0.127170150744E+00
  0.156451482678E+00
  0.156451482678E+00
  0.182405644660E+00
  0.182405644660E+00
  0.207073757564E+00
  0.207073757564E+00
  0.230569441014E+00
  0.230569263184E+00
  0.252632098347E+00
  0.252632192411E+00
  0.273660762249E+00
  0.273660709990E+00
  0.297730650508E+00
  0.297730650510E+00
  0.325851002427E+00
  0.325851002421E+00
  0.355562356368E+00
  0.355562356373E+00
  0.389729154633E+00
  0.389729277216E+00
  0.424306939268E+00
  0.424306814389E+00
  0.474947657961E+00
  0.474947669388E+00
  0.519059218851E+00
  0.519059268968E+00
  0.620304625165E+00
  0.620304609341E+00
  0.674523829865E+00
  0.674523828292E+00
  0.714489632346E+00
  0.714489628351E+00
  0.641275427998E+00
  0.641275426847E+00
  0.518542416548E+00
  0.518542409580E+00
  0.420606694563E+00
  0.420606753116E+00
  0.272524159582E+00
  0.272524072112E+00
  0.214792492095E+00
  0.214792474046E+00
  0.151798461977E+00
  0.151798642045E+00
  0.110446051966E+00
  0.110445883204E+00
  0.707283387617E-01
  0.707283387558E-01
  0.370264125386E-01
  0.370264125456E-01
  0.579047715233E-02
  0.579047715012E-02
 -0.204663365961E-01
 -0.204662739300E-01
 -0.430604948799E-01
 -0.430606049092E-01
 -0.664339468961E-01
 -0.664337448187E-01
 -0.909641131323E-01
 -0.909641131323E-01
 -0.116330963607E+00
 -0.116330963607E+00
 -0.142604540146E+00
 -0.142604540146E+00
 -0.171748518285E+00
 -0.171748665025E+00
 -0.189414544768E+00
 -0.189414567141E+00
 -0.205578673150E+00
 -0.205578613356E+00
 -0.219145722745E+00
 -0.219145731791E+00
 -0.228228105571E+00
 -0.228228105577E+00
 -0.237474533204E+00
 -0.237474533194E+00
 -0.242597042517E+00
 -0.242597042516E+00
 -0.248335637379E+00
 -0.248335637393E+00
 -0.250321588771E+00
 -0.250321588773E+00
 -0.251750431818E+00
 -0.251750518821E+00
 -0.253077659445E+00
 -0.253077612882E+00
 -0.253114595073E+00
 -0.253114595053E+00
 -0.253374997455E+00
 -0.253375241877E+00
 -0.253598168322E+00
 -0.253597690199E+00
 -0.253438486305E+00
 -0.253438519729E+00
 -0.253067537858E+00
 -0.253068089399E+00
 -0.252796132273E+00
 -0.252795555985E+00
 -0.252623106297E+00
 -0.252623082595E+00
 -0.252491466499E+00
 -0.252492204473E+00
 -0.252371494981E+00
 -0.252370653454E+00
 -0.252265032484E+00
 -0.252266013842E+00
 -0.252174970955E+00
 -0.252173873227E+00
 -0.252095214373E+00
 -0.252095220226E+00
 -0.252026800698E+00
 -0.252028285531E+00
  0.437062783405E-01
  0.437047413386E-01
  0.436333132143E-01
  0.436333193074E-01
  0.435494119451E-01
  0.435494224647E-01
  0.434511432083E-01
  0.434511614675E-01
  0.433395034713E-01
  0.433395034264E-01
  0.432098520257E-01
  0.432098520631E-01
  0.430701571302E-01
  0.430701811899E-01
  0.428861410238E-01
  0.428861410571E-01
  0.425953153576E-01
  0.425953153281E-01
  0.421999019337E-01
  0.421998686628E-01
  0.420298702863E-01
  0.420299298736E-01
  0.422674520386E-01
  0.422674520191E-01
  0.425456591924E-01
  0.425456591940E-01
  0.425850862269E-01
  0.425851311355E-01
  0.440009633796E-01
  0.440009633796E-01
  0.455240545560E-01
  0.455240545423E-01
  0.476385243722E-01
  0.476385243710E-01
  0.537331393678E-01
  0.537331393690E-01
  0.591543198289E-01
  0.591543198383E-01
  0.688946706841E-01
  0.688946706759E-01
  0.784062554406E-01
  0.784061838698E-01
  0.925127113991E-01
  0.925127779016E-01
  0.109163190085E+00
  0.109163314092E+00
  0.127170150680E+00
  0.127170011811E+00
  0.156451483287E+00
  0.156451483287E+00
  0.182405648239E+00
  0.182405670036E+00
  0.207073763494E+00
  0.207073723442E+00
  0.230569264290E+00
  0.230569442922E+00
  0.252632188011E+00
  0.252631998765E+00
  0.273660718793E+00
  0.273660718795E+00
  0.297730661932E+00
  0.297730769751E+00
  0.325851001434E+00
  0.325851001439E+00
  0.355562355180E+00
  0.355562355174E+00
  0.389729302951E+00
  0.389729302953E+00
  0.424306812773E+00
  0.424306940030E+00
  0.474947632317E+00
  0.474947573094E+00
  0.519059268917E+00
  0.519059165170E+00
  0.620304670177E+00
  0.620304696979E+00
  0.674523849526E+00
  0.674523855859E+00
  0.714489724421E+00
  0.714489638269E+00
  0.641275547804E+00
  0.641275514223E+00
  0.518542386599E+00
  0.518542432871E+00
  0.420606824021E+00
  0.420606735814E+00
  0.272523982768E+00
  0.272524159556E+00
  0.214792383505E+00
  0.214792475330E+00
  0.151798642318E+00
  0.151798461399E+00
  0.110446059262E+00
  0.110446059259E+00
  0.707283385159E-01
  0.707283385244E-01
  0.370264124334E-01
  0.370264124264E-01
  0.579060915887E-02
  0.579047737448E-02
 -0.204663372525E-01
 -0.204663372545E-01
 -0.430607139984E-01
 -0.430604941299E-01
 -0.664337453683E-01
 -0.664339472145E-01
 -0.909641595496E-01
 -0.909641157370E-01
 -0.116330942907E+00
 -0.116330965889E+00
 -0.142604540702E+00
 -0.142604540702E+00
 -0.171748651849E+00
 -0.171748518199E+00
 -0.189414429972E+00
 -0.189414545467E+00
 -0.205578613084E+00
 -0.205578673093E+00
 -0.219145784333E+00
 -0.219145721499E+00
 -0.228228104746E+00
 -0.228228104738E+00
 -0.237474532057E+00
 -0.237474532067E+00
 -0.242597041185E+00
 -0.242597041187E+00
 -0.248335635820E+00
 -0.248335635818E+00
 -0.250321587110E+00
 -0.250321587096E+00
 -0.251750509377E+00
 -0.251750509377E+00
 -0.253077607162E+00
 -0.253077653460E+00
 -0.253114592980E+00
 -0.253114592982E+00
 -0.253375222218E+00
 -0.253375222198E+00
 -0.253597701797E+00
 -0.253597761850E+00
 -0.253438532977E+00
 -0.253438499694E+00
 -0.253068071693E+00
 -0.253068071664E+00
 -0.252795565272E+00
 -0.252795565305E+00
 -0.252623092818E+00
 -0.252623116416E+00
 -0.252492188875E+00
 -0.252492188912E+00
 -0.252370664517E+00
 -0.252370664473E+00
 -0.252265997843E+00
 -0.252266015484E+00
 -0.252173883961E+00
 -0.252173894085E+00
 -0.252095231043E+00
 -0.252095236886E+00
 -0.252028269922E+00
 -0.252026800520E+00
  0.437047220799E-01
  0.437062806170E-01
  0.436332990334E-01
  0.436333112244E-01
  0.435494099759E-01
  0.435494099753E-01
  0.434511596153E-01
  0.434511413505E-01
  0.433394698796E-01
  0.433395015480E-01
  0.432106090210E-01
  0.432098540434E-01
  0.430701349012E-01
  0.430701590033E-01
  0.428855567956E-01
  0.428861391154E-01
  0.425958333893E-01
  0.425953173803E-01
  0.421998703738E-01
  0.421999036685E-01
  0.420294549011E-01
  0.420298677992E-01
  0.422674501579E-01
  0.422674501579E-01
  0.425456572910E-01
  0.425456573087E-01
  0.425852866428E-01
  0.425850868770E-01
  0.440008801299E-01
  0.440009635056E-01
  0.455241340879E-01
  0.455240558704E-01
  0.476385740906E-01
  0.476385264997E-01
  0.537330294182E-01
  0.537331395036E-01
  0.591543521814E-01
  0.591543205801E-01
  0.688947412472E-01
  0.688946726459E-01
  0.784061871448E-01
  0.784061768143E-01
  0.925127794870E-01
  0.925127794870E-01
  0.109163313711E+00
  0.109163189850E+00
  0.127170011776E+00
  0.127170011776E+00
  0.156451483227E+00
  0.156451483227E+00
  0.182405669783E+00
  0.182405647954E+00
  0.207073722804E+00
  0.207073893220E+00
  0.230569442549E+00
  0.230569323143E+00
  0.252631991295E+00
  0.252632004855E+00
  0.273660707635E+00
  0.273660760620E+00
  0.297730760098E+00
  0.297730691740E+00
  0.325850997739E+00
  0.325850997736E+00
  0.355562349873E+00
  0.355562349875E+00
  0.389729295306E+00
  0.389729295310E+00
  0.424306960222E+00
  0.424306877440E+00
  0.474947605847E+00
  0.474947666478E+00
  0.519059140730E+00
  0.519059140723E+00
  0.620304694866E+00
  0.620304704425E+00
  0.674523794862E+00
  0.674523789765E+00
  0.714489556642E+00
  0.714489629198E+00
  0.641275438235E+00
  0.641275474541E+00
  0.518542419635E+00
  0.518542339708E+00
  0.420606851279E+00
  0.420606822588E+00
  0.272523969924E+00
  0.272523969936E+00
  0.214792490788E+00
  0.214792398318E+00
  0.151798533341E+00
  0.151798649541E+00
  0.110446057100E+00
  0.110446057095E+00
  0.707283374640E-01
  0.707283374614E-01
  0.370264120084E-01
  0.370264120130E-01
  0.579052607457E-02
  0.579060897113E-02
 -0.204662738076E-01
 -0.204663364178E-01
 -0.430606970685E-01
 -0.430607127251E-01
 -0.664338794865E-01
 -0.664337452608E-01
 -0.909639735712E-01
 -0.909641592691E-01
 -0.116330965708E+00
 -0.116330942746E+00
 -0.142604540647E+00
 -0.142604540647E+00
 -0.171748651801E+00
 -0.171748651801E+00
 -0.189414545057E+00
 -0.189414429312E+00
 -0.205578616607E+00
 -0.205578616607E+00
 -0.219145802613E+00
 -0.219145793486E+00
 -0.228228111237E+00
 -0.228228039937E+00
 -0.237474535083E+00
 -0.237474502137E+00
 -0.242597041800E+00
 -0.242597156538E+00
 -0.248335646909E+00
 -0.248335597382E+00
 -0.250321594323E+00
 -0.250321513270E+00
 -0.251750510098E+00
 -0.251750596025E+00
 -0.253077657324E+00
 -0.253077452725E+00
 -0.253114581775E+00
 -0.253114581793E+00
 -0.253375210924E+00
 -0.253375210924E+00
 -0.253597746843E+00
 -0.253598160863E+00
 -0.253438510113E+00
 -0.253438543267E+00
 -0.253068083681E+00
 -0.253067573201E+00
 -0.252795554056E+00
 -0.252796126618E+00
 -0.252623127402E+00
 -0.252623150966E+00