# vtk DataFile Version 3.0
MachLine results file. Generated by MachLine, USU AeroLab (c) 2022.
ASCII
DATASET POLYDATA
POINTS                  40 float
  0.457662315369E+02  0.267660694122E+02  0.000000000000E+00
  0.988858718089E+04  0.267660694122E+02  0.148858671289E+04
  0.412340698242E+02  0.222339305878E+02  0.000000000000E+00
  0.988848583804E+04  0.222339305878E+02  0.148925681125E+04
  0.577274017334E+02  0.387271614075E+02  0.000000000000E+00
  0.988885464245E+04  0.387271614075E+02  0.148681820574E+04
  0.542080955505E+02  0.352078781128E+02  0.000000000000E+00
  0.988877594788E+04  0.352078781128E+02  0.148733854932E+04
  0.606566314697E+02  0.416563758850E+02  0.000000000000E+00
  0.988892014242E+04  0.416563758850E+02  0.148638510733E+04
  0.501681861877E+02  0.311679935455E+02  0.000000000000E+00
  0.988868561220E+04  0.311679935455E+02  0.148793586618E+04
  0.630036544800E+02  0.440033836365E+02  0.000000000000E+00
  0.988897262378E+04  0.440033836365E+02  0.148603809053E+04
  0.648274841309E+02  0.458272018433E+02  0.000000000000E+00
  0.988901340610E+04  0.458272018433E+02  0.148576842998E+04
  0.662113189697E+02  0.472110252380E+02  0.000000000000E+00
  0.988904434979E+04  0.472110252380E+02  0.148556382443E+04
  0.239966468811E+02  0.499661636353E+01  0.000000000000E+00
  0.988810039515E+04  0.499661636353E+01  0.149180543361E+04
  0.221728172302E+02  0.317279767990E+01  0.000000000000E+00
  0.988805961282E+04  0.317279767990E+01  0.149207509416E+04
  0.263436698914E+02  0.734362459183E+01  0.000000000000E+00
  0.988815287650E+04  0.734362459183E+01  0.149145841681E+04
  0.292729015350E+02  0.102728376389E+02  0.000000000000E+00
  0.988821837652E+04  0.102728376389E+02  0.149102531812E+04
  0.672424011230E+02  0.482421035767E+02  0.000000000000E+00
  0.988906740563E+04  0.482421035767E+02  0.148541137478E+04
  0.680002975464E+02  0.490000000000E+02  0.000000000000E+00
  0.988908435281E+04  0.490000000000E+02  0.148529931674E+04
  0.197579002380E+02  0.757896304131E+00  0.000000000000E+00
  0.988800561330E+04  0.757896304131E+00  0.149243214936E+04
  0.190000000000E+02  0.000000000000E+00  0.000000000000E+00
  0.988798866603E+04  0.000000000000E+00  0.149254420796E+04
  0.207889842987E+02  0.178897356987E+01  0.000000000000E+00
  0.988802866918E+04  0.178897356987E+01  0.149227969943E+04
  0.327922058105E+02  0.137921218872E+02  0.000000000000E+00
  0.988829707105E+04  0.137921218872E+02  0.149050497482E+04
  0.368321151733E+02  0.178320064545E+02  0.000000000000E+00
  0.988838740673E+04  0.178320064545E+02  0.148990765796E+04
POLYGONS                  38                 152
3                  30                  31                  33
3                  30                  33                  32
3                  34                  35                  31
3                  34                  31                  30
3                  20                  21                  35
3                  20                  35                  34
3                  18                  19                  21
3                  18                  21                  20
3                  22                  23                  19
3                  22                  19                  18
3                  24                  25                  23
3                  24                  23                  22
3                  36                  37                  25
3                  36                  25                  24
3                  38                  39                  37
3                  38                  37                  36
3                   2                   3                  39
3                   2                  39                  38
3                   0                   1                   3
3                   0                   3                   2
3                  10                  11                   1
3                  10                   1                   0
3                   6                   7                  11
3                   6                  11                  10
3                   4                   5                   7
3                   4                   7                   6
3                   8                   9                   5
3                   8                   5                   4
3                  12                  13                   9
3                  12                   9                   8
3                  14                  15                  13
3                  14                  13                  12
3                  16                  17                  15
3                  16                  15                  14
3                  26                  27                  17
3                  26                  17                  16
3                  28                  29                  27
3                  28                  27                  26
CELL_DATA                  38
NORMALS normals float
  0.147890986066E+00 -0.147891753696E+00 -0.977883574578E+00
  0.147890986066E+00 -0.147891753696E+00 -0.977883574578E+00
  0.147890981539E+00 -0.147891956164E+00 -0.977883544642E+00
  0.147890981539E+00 -0.147891956164E+00 -0.977883544642E+00
  0.147890982236E+00 -0.147891924997E+00 -0.977883549250E+00
  0.147890982236E+00 -0.147891924997E+00 -0.977883549250E+00
  0.147890983405E+00 -0.147891872726E+00 -0.977883556979E+00
  0.147890983405E+00 -0.147891872726E+00 -0.977883556979E+00
  0.147890982483E+00 -0.147891913935E+00 -0.977883550886E+00
  0.147890982483E+00 -0.147891913935E+00 -0.977883550886E+00
  0.147890982320E+00 -0.147891921227E+00 -0.977883549807E+00
  0.147890982320E+00 -0.147891921227E+00 -0.977883549807E+00
  0.147890984448E+00 -0.147891826052E+00 -0.977883563880E+00
  0.147890984448E+00 -0.147891826052E+00 -0.977883563880E+00
  0.147890983003E+00 -0.147891890709E+00 -0.977883554320E+00
  0.147890983003E+00 -0.147891890709E+00 -0.977883554320E+00
  0.147890980431E+00 -0.147892005727E+00 -0.977883537314E+00
  0.147890980431E+00 -0.147892005727E+00 -0.977883537314E+00
  0.147890986520E+00 -0.147891733402E+00 -0.977883577578E+00
  0.147890986520E+00 -0.147891733402E+00 -0.977883577578E+00
  0.147890980431E+00 -0.147892005724E+00 -0.977883537314E+00
  0.147890980431E+00 -0.147892005724E+00 -0.977883537314E+00
  0.147890983003E+00 -0.147891890709E+00 -0.977883554320E+00
  0.147890983003E+00 -0.147891890709E+00 -0.977883554320E+00
  0.147890981819E+00 -0.147891943651E+00 -0.977883546492E+00
  0.147890981819E+00 -0.147891943651E+00 -0.977883546492E+00
  0.147890986006E+00 -0.147891756396E+00 -0.977883574179E+00
  0.147890986006E+00 -0.147891756396E+00 -0.977883574179E+00
  0.147890981826E+00 -0.147891943322E+00 -0.977883546541E+00
  0.147890981826E+00 -0.147891943322E+00 -0.977883546541E+00
  0.147890982559E+00 -0.147891910546E+00 -0.977883551387E+00
  0.147890982559E+00 -0.147891910546E+00 -0.977883551387E+00
  0.147890976106E+00 -0.147892199151E+00 -0.977883508715E+00
  0.147890976106E+00 -0.147892199151E+00 -0.977883508715E+00
  0.147890990889E+00 -0.147891538030E+00 -0.977883606465E+00
  0.147890990889E+00 -0.147891538030E+00 -0.977883606465E+00
  0.147891002855E+00 -0.147891002875E+00 -0.977883685590E+00
  0.147891002855E+00 -0.147891002875E+00 -0.977883685590E+00
POINT_DATA                  40
SCALARS mu float 1
LOOKUP_TABLE default
 -0.528401750835E+01
 -0.528401750835E+01
 -0.529078912854E+01
 -0.529078912854E+01
 -0.472373495460E+01
 -0.472373495460E+01
 -0.502115243763E+01
 -0.502115243763E+01
 -0.430296285036E+01
 -0.430296285036E+01
 -0.520160336321E+01
 -0.520160336321E+01
 -0.376502659937E+01
 -0.376502659937E+01
 -0.311733663026E+01
 -0.311733663026E+01
 -0.234574450552E+01
 -0.234574450552E+01
 -0.484002189326E+01
 -0.484002189326E+01
 -0.474981656778E+01
 -0.474981656778E+01
 -0.494440132951E+01
 -0.494440132951E+01
 -0.505448283643E+01
 -0.505448283643E+01
 -0.137397001888E+01
 -0.137397001888E+01
  0.000000000000E+00
  0.000000000000E+00
 -0.463036168214E+01
 -0.463036168214E+01
 -0.460507224207E+01
 -0.460507224207E+01
 -0.467915172934E+01
 -0.467915172934E+01
 -0.515868604292E+01
 -0.515868604292E+01
 -0.524283893505E+01
 -0.524283893505E+01
