# vtk DataFile Version 3.0
MachLine results file. Generated by MachLine, USU AeroLab (c) 2022.
ASCII
DATASET POLYDATA
POINTS                 144 float
  0.000000000000E+00  0.000000000000E+00  0.000000000000E+00
  0.113538098335E+01  0.000000000000E+00 -0.658124566078E+00
  0.113538098335E+01  0.000000000000E+00  0.658124566078E+00
  0.192375373840E+01  0.192375373840E+01  0.000000000000E+00
  0.305913543701E+01  0.192375373840E+01 -0.658124983311E+00
  0.305913543701E+01  0.192375373840E+01  0.658124983311E+00
  0.423028087616E+01  0.000000000000E+00 -0.108747220039E+01
  0.423028087616E+01  0.000000000000E+00  0.108747220039E+01
  0.547033166885E+01  0.547033166885E+01  0.000000000000E+00
  0.615403699875E+01  0.192375373840E+01 -0.108747279644E+01
  0.615403699875E+01  0.192375373840E+01  0.108747279644E+01
  0.660571479797E+01  0.547033166885E+01 -0.658125698566E+00
  0.660571479797E+01  0.547033166885E+01  0.658125698566E+00
  0.939508819580E+01  0.000000000000E+00 -0.980745851994E+00
  0.939508819580E+01  0.000000000000E+00  0.980745851994E+00
  0.970061969757E+01  0.547033166885E+01 -0.108747410774E+01
  0.970061969757E+01  0.547033166885E+01  0.108747410774E+01
  0.113188476562E+02  0.192375373840E+01 -0.980746448040E+00
  0.113188476562E+02  0.192375373840E+01  0.980746448040E+00
  0.113820018768E+02  0.113820018768E+02  0.000000000000E+00
  0.125173873901E+02  0.113820018768E+02 -0.658127009869E+00
  0.125173873901E+02  0.113820018768E+02  0.658127009869E+00
  0.145402030945E+02  0.000000000000E+00 -0.479613035917E+00
  0.145402030945E+02  0.000000000000E+00  0.479613035917E+00
  0.148654365540E+02  0.547033166885E+01 -0.980747580528E+00
  0.148654365540E+02  0.547033166885E+01  0.980747580528E+00
  0.156122989655E+02  0.113820018768E+02 -0.108747613430E+01
  0.156122989655E+02  0.113820018768E+02  0.108747613430E+01
  0.164639663696E+02  0.192375373840E+01 -0.479613333941E+00
  0.164639663696E+02  0.192375373840E+01  0.479613333941E+00
  0.176505107880E+02  0.000000000000E+00 -0.144198849797E+00
  0.176505107880E+02  0.000000000000E+00  0.144198849797E+00
  0.190000000000E+02  0.000000000000E+00  0.000000000000E+00
  0.195742740631E+02  0.192375373840E+01 -0.144198939204E+00
  0.195742740631E+02  0.192375373840E+01  0.144198939204E+00
  0.197561950684E+02  0.197561950684E+02  0.000000000000E+00
  0.200105609894E+02  0.547033166885E+01 -0.479613870382E+00
  0.200105609894E+02  0.547033166885E+01  0.479613870382E+00
  0.207771244049E+02  0.113820018768E+02 -0.980749428272E+00
  0.207771244049E+02  0.113820018768E+02  0.980749428272E+00
  0.208915824890E+02  0.197561950684E+02 -0.658128738403E+00
  0.208915824890E+02  0.197561950684E+02  0.658128738403E+00
  0.209237651825E+02  0.192375373840E+01  0.000000000000E+00
  0.231208724976E+02  0.547033166885E+01 -0.144199103117E+00
  0.231208724976E+02  0.547033166885E+01  0.144199103117E+00
  0.239865016937E+02  0.197561950684E+02 -0.108747911453E+01
  0.239865016937E+02  0.197561950684E+02  0.108747911453E+01
  0.244703655243E+02  0.547033166885E+01  0.000000000000E+00
  0.259222583771E+02  0.113820018768E+02 -0.479614794254E+00
  0.259222583771E+02  0.113820018768E+02  0.479614794254E+00
  0.290325775146E+02  0.113820018768E+02 -0.144199386239E+00
  0.290325775146E+02  0.113820018768E+02  0.144199386239E+00
  0.291513423920E+02  0.197561950684E+02 -0.980752110481E+00
  0.291513423920E+02  0.197561950684E+02  0.980752110481E+00
  0.292438049316E+02  0.292438049316E+02  0.000000000000E+00
  0.303791980743E+02  0.292438049316E+02 -0.658130764961E+00
  0.303791980743E+02  0.292438049316E+02  0.658130764961E+00
  0.303820724487E+02  0.113820018768E+02  0.000000000000E+00
  0.334741249084E+02  0.292438049316E+02 -0.108748245239E+01
  0.334741249084E+02  0.292438049316E+02  0.108748245239E+01
  0.342964897156E+02  0.197561950684E+02 -0.479616105556E+00
  0.342964897156E+02  0.197561950684E+02  0.479616105556E+00
  0.374068183899E+02  0.197561950684E+02 -0.144199773669E+00
  0.374068183899E+02  0.197561950684E+02  0.144199773669E+00
  0.376179962158E+02  0.376179962158E+02  0.000000000000E+00
  0.386389808655E+02  0.292438049316E+02 -0.980755090714E+00
  0.386389808655E+02  0.292438049316E+02  0.980755090714E+00
  0.387533912659E+02  0.376179962158E+02 -0.658132553101E+00
  0.387533912659E+02  0.376179962158E+02  0.658132553101E+00
  0.387563171387E+02  0.197561950684E+02  0.000000000000E+00
  0.418483314514E+02  0.376179962158E+02 -0.108748543262E+01
  0.418483314514E+02  0.376179962158E+02  0.108748543262E+01
  0.435296669006E+02  0.435296669006E+02  0.000000000000E+00
  0.437841453552E+02  0.292438049316E+02 -0.479617565870E+00
  0.437841453552E+02  0.292438049316E+02  0.479617565870E+00
  0.446650657654E+02  0.435296669006E+02 -0.658133804798E+00
  0.446650657654E+02  0.435296669006E+02  0.658133804798E+00
  0.468944816589E+02  0.292438049316E+02 -0.144200220704E+00
  0.468944816589E+02  0.292438049316E+02  0.144200220704E+00
  0.470131988525E+02  0.376179962158E+02 -0.980757772923E+00
  0.470131988525E+02  0.376179962158E+02  0.980757772923E+00
  0.470762481689E+02  0.470762481689E+02  0.000000000000E+00
  0.477600097656E+02  0.435296669006E+02 -0.108748745918E+01
  0.477600097656E+02  0.435296669006E+02  0.108748745918E+01
  0.482116432190E+02  0.470762481689E+02 -0.658134579659E+00
  0.482116432190E+02  0.470762481689E+02  0.658134579659E+00
  0.482439842224E+02  0.292438049316E+02  0.000000000000E+00
  0.490000000000E+02  0.490000000000E+02  0.000000000000E+00
  0.501353988647E+02  0.490000000000E+02 -0.658134996891E+00
  0.501353988647E+02  0.490000000000E+02  0.658134996891E+00
  0.506007728577E+02  0.494653701782E+02 -0.465371757746E+00
  0.506007728577E+02  0.494653701782E+02  0.465371757746E+00
  0.507935333252E+02  0.496581344604E+02 -0.771266485397E-15
  0.513065910339E+02  0.470762481689E+02 -0.108748877048E+01
  0.513065910339E+02  0.470762481689E+02  0.108748877048E+01
  0.521583786011E+02  0.376179962158E+02 -0.479618877172E+00
  0.521583786011E+02  0.376179962158E+02  0.479618877172E+00
  0.529248886108E+02  0.435296669006E+02 -0.980759620667E+00
  0.529248886108E+02  0.435296669006E+02  0.980759620667E+00
  0.532303466797E+02  0.490000000000E+02 -0.108748936653E+01
  0.532303466797E+02  0.490000000000E+02  0.108748936653E+01
  0.539993209839E+02  0.497689704895E+02 -0.768971264362E+00
  0.539993209839E+02  0.497689704895E+02  0.768971264362E+00
  0.543178405762E+02  0.500874900818E+02 -0.157378642191E-15
  0.552687225342E+02  0.376179962158E+02 -0.144200608134E+00
  0.552687225342E+02  0.376179962158E+02  0.144200608134E+00
  0.564714775085E+02  0.470762481689E+02 -0.980760753155E+00
  0.564714775085E+02  0.470762481689E+02  0.980760753155E+00
  0.566182289124E+02  0.376179962158E+02  0.000000000000E+00
  0.580700759888E+02  0.435296669006E+02 -0.479619771242E+00
  0.580700759888E+02  0.435296669006E+02  0.479619771242E+00
  0.583952369690E+02  0.490000000000E+02 -0.980761349201E+00
  0.583952369690E+02  0.490000000000E+02  0.980761349201E+00
  0.590887413025E+02  0.496935043335E+02 -0.693503141403E+00
  0.590887413025E+02  0.496935043335E+02  0.693503141403E+00
  0.593759994507E+02  0.499807624817E+02  0.000000000000E+00
  0.611804275513E+02  0.435296669006E+02 -0.144200876355E+00
  0.611804275513E+02  0.435296669006E+02  0.144200876355E+00
  0.616166725159E+02  0.470762481689E+02 -0.479620337486E+00
  0.616166725159E+02  0.470762481689E+02  0.479620337486E+00
  0.625299339294E+02  0.435296669006E+02  0.000000000000E+00
  0.635404319763E+02  0.490000000000E+02 -0.479620635509E+00
  0.635404319763E+02  0.490000000000E+02  0.479620635509E+00
  0.638795776367E+02  0.493391418457E+02 -0.339143037796E+00
  0.638795776367E+02  0.493391418457E+02  0.339143037796E+00
  0.640200576782E+02  0.494796218872E+02  0.296956834055E-15
  0.647270278931E+02  0.470762481689E+02 -0.144201040268E+00
  0.647270278931E+02  0.470762481689E+02  0.144201040268E+00
  0.660765380859E+02  0.470762481689E+02  0.000000000000E+00
  0.666507873535E+02  0.490000000000E+02 -0.144201144576E+00
  0.666507873535E+02  0.490000000000E+02  0.144201144576E+00
  0.667527542114E+02  0.491019668579E+02 -0.101965606213E+00
  0.667527542114E+02  0.491019668579E+02  0.101965606213E+00
  0.667949905396E+02  0.491441993713E+02 -0.260488604752E-16
  0.680002975464E+02  0.490000000000E+02  0.000000000000E+00
  0.244703655243E+02  0.547033166885E+01  0.000000000000E+00
  0.209237651825E+02  0.192375373840E+01  0.000000000000E+00
  0.303820724487E+02  0.113820018768E+02  0.000000000000E+00
  0.660765380859E+02  0.470762481689E+02  0.000000000000E+00
  0.482439842224E+02  0.292438049316E+02  0.000000000000E+00
  0.387563171387E+02  0.197561950684E+02  0.000000000000E+00
  0.625299339294E+02  0.435296669006E+02  0.000000000000E+00
  0.566182289124E+02  0.376179962158E+02  0.000000000000E+00
  0.190000000000E+02  0.000000000000E+00  0.000000000000E+00
POLYGONS                 256                1024
3                  32                  33                  42
3                  32                  30                  33
3                  30                  28                  33
3                  30                  22                  28
3                  22                  17                  28
3                  22                  13                  17
3                  13                   6                  17
3                  17                   6                   9
3                   6                   1                   9
3                   9                   1                   4
3                   1                   0                   4
3                   4                   0                   3
3                   0                   5                   3
3                   0                   2                   5
3                   2                  10                   5
3                   2                   7                  10
[...]
CELL_DATA                 256
SCALARS C_p_inc float 1
LOOKUP_TABLE default
  0.135591151005E+00
  0.115344236263E+00
  0.772271070692E-01
  0.590380798060E-01
  0.257822996238E-01
  0.129955557772E-01
  0.551994252584E-01
  0.324561353353E-01
  0.252497775755E+00
  0.187407173706E+00
  0.596748412095E+00
  0.597520283792E+00
 -0.549951019484E+00
  0.814158520236E-02
 -0.663863079025E+00
 -0.466742000709E+00
 -0.469814003795E+00
 -0.481121820891E+00
 -0.338270915305E+00
 -0.276729372602E+00
 -0.151359401273E+00
 -0.722899806850E-01
  0.126220736161E-01
  0.991585160401E-01
  0.130668152778E+00
  0.134269871101E+00
  0.791163697148E-01
  0.770954045813E-01
  0.334176880094E-01
  0.259050008405E-01
  0.331463878749E-01
  0.283946827724E-01
  0.181756943931E+00
  0.184491496692E+00
  0.524510784351E+00
  0.508851213218E+00
 -0.840492831301E+00
 -0.523575887644E+00
 -0.803855758777E+00
 -0.658895806710E+00
 -0.482882151029E+00
 -0.487745162458E+00
 -0.277425972360E+00
 -0.222762031376E+00
 -0.720393032891E-01
 -0.259243885228E-01
  0.960161457122E-01
  0.112353407890E+00
  0.128997489675E+00
  0.129904829519E+00
  0.766168282001E-01
  0.788328984077E-01
  0.352562162943E-01
  0.335400012370E-01
  0.285610131389E-01
  0.384646081833E-01
  0.182975641983E+00
  0.204588975512E+00
  0.512178922672E+00
  0.493982426820E+00
 -0.103598940765E+01
 -0.834582771745E+00
 -0.884364638081E+00
 -0.808206909221E+00
 -0.485742380010E+00
 -0.498901041782E+00
 -0.224198708938E+00
 -0.198332469798E+00
 -0.259213597828E-01
 -0.111290549674E-01
  0.112468148431E+00
  0.119565826714E+00
  0.126002338382E+00
  0.128101638282E+00
  0.729819438519E-01
  0.762329919464E-01
  0.339390143312E-01
  0.352348458642E-01
  0.384578738625E-01
  0.439764459833E-01
  0.205197658898E+00
  0.221932429935E+00
  0.504747192690E+00
  0.490947386350E+00
 -0.113679877887E+01
 -0.103598886338E+01
 -0.922734936725E+00
 -0.891330806571E+00
 -0.491811769677E+00
 -0.494625969973E+00
 -0.199806750712E+00
 -0.191612060196E+00
 -0.110755720352E-01
 -0.321697895094E-02
  0.120727050716E+00
  0.127186684196E+00
  0.115563836858E+00
  0.124548686521E+00
  0.608392127612E-01
  0.723467457753E-01
  0.243555671389E-01
  0.337934129874E-01
  0.438357670680E-01
  0.387972942647E-01
  0.221707073164E+00
  0.223706678300E+00
  0.495100206225E+00
  0.490942680433E+00
 -0.116294984887E+01
 -0.113737607192E+01
 -0.928208256851E+00
 -0.926810876255E+00
 -0.485414940181E+00
 -0.496555070622E+00
 -0.193113574484E+00
 -0.179109763773E+00
 -0.328094504539E-02
  0.132023836074E-01
  0.128807195373E+00
  0.143821060606E+00
  0.938046180547E-01
  0.112351853247E+00
  0.332889776779E-01
  0.594082839491E-01
 -0.212515706537E-02
  0.239880342307E-01
  0.382659028835E-01
  0.153568575003E-01
  0.221810100408E+00
  0.206630431247E+00
  0.488440680675E+00
  0.495344416142E+00
 -0.111722707766E+01
 -0.116389196841E+01
 -0.894714119022E+00
 -0.933134403725E+00
 -0.453116445768E+00
 -0.491956706540E+00
 -0.180948340056E+00
 -0.143527039741E+00
  0.128000055735E-01
  0.542292383355E-01
  0.146381699309E+00
  0.183716152077E+00
  0.590444471354E-01
  0.860381467498E-01
 -0.420747825616E-02
  0.294950526612E-01
 -0.398631667544E-01
 -0.336790188237E-02
  0.134986216359E-01
 -0.308541613487E-01
  0.201117429096E+00
  0.165442796102E+00
  0.483458568868E+00
  0.500420051087E+00
 -0.101339998055E+01
 -0.111900354563E+01
 -0.823930678643E+00
 -0.903942544849E+00
 -0.385073093819E+00
 -0.467443769774E+00
 -0.146416435054E+00
 -0.719705640717E-01
  0.522961106940E-01
  0.128561131653E+00
  0.187200372065E+00
  0.259483196213E+00
 -0.389818222322E-01
  0.402029129867E-01
 -0.588260858711E-01
 -0.137019033239E-01
 -0.729474543778E-01
 -0.446749985964E-01
 -0.369603705570E-01
 -0.714867433035E-01
  0.148866395570E+00
  0.875134804886E-01
  0.465308136257E+00
  0.494666660465E+00
 -0.872840821287E+00
 -0.101551378184E+01
 -0.715896811880E+00
 -0.842317172105E+00
 -0.268408629923E+00
 -0.423907913684E+00
 -0.793603216513E-01
  0.612335613759E-02
  0.118715827672E+00
  0.215146509689E+00
  0.254996862027E+00
  0.363031757287E+00
 -0.116960577340E+03
 -0.319034032858E+00
 -0.613657872287E+00
 -0.885581957874E-01
 -0.124185835197E+00
 -0.932559360192E-01
 -0.960184556000E-01
 -0.972728211999E-01
  0.341542795885E-01
  0.123099538711E-01
  0.334390915346E+00
  0.423009931347E+00
 -0.659102472631E+00
 -0.872220151942E+00
 -0.468976407157E+00
 -0.790688541031E+00
 -0.162879917353E+00
 -0.390451475992E+00
 -0.307327731966E-01
  0.126282713219E-01
  0.155733763127E+00
 -0.418921291447E-01
  0.364117396153E+00
 -0.121935093128E+03
 -0.287475027519E+03
 -0.525104922018E+01
 -0.632963572108E+00
 -0.409284543265E+00
 -0.240912286171E+00
 -0.243954973767E+00
 -0.228496068565E+00
 -0.187295662982E+00
 -0.223368515967E+00
 -0.755395669932E-01
 -0.660012488113E+00
 -0.413034365360E+00
 -0.645757806458E+00
 -0.245275166738E+00
 -0.514175640866E+00
 -0.179091643304E+00
 -0.468640962806E+00
 -0.872084633781E+00
 -0.315354787662E+00
 -0.249817302091E+03
 -0.193154749847E+03
 -0.813133012809E+01
 -0.116346770196E+01
 -0.841866435918E+00
 -0.439600474405E+00
 -0.486072578595E+00
 -0.418546379166E+00
 -0.427164439318E+00
 -0.466292857307E+00
 -0.352222796185E+00
 -0.554809883591E+00
 -0.529013564303E+00
 -0.571296910035E+00
 -0.404771211462E+00
 -0.608478100379E+00
 -0.440341009372E+00
 -0.871465876017E+00
 -0.152601155632E+01
 -0.593179131082E+00
 -0.161687249368E+03
SCALARS sigma float 1
LOOKUP_TABLE default
  0.433898401077E-01
  0.433897567250E-01
  0.424177729292E-01
  0.424178386047E-01
  0.527328368556E-01
  0.527328229061E-01
  0.129048440363E+00
  0.129048453727E+00
  0.281339673447E+00
  0.281339659232E+00
  0.558885002068E+00
  0.558885002677E+00
  0.327594937813E+00
  0.327594936722E+00
 -0.121363266110E-01
 -0.121363099868E-01
 -0.169894607699E+00
 -0.169894620678E+00
 -0.243540396289E+00
 -0.243540382066E+00
 -0.253234341459E+00
 -0.253234406334E+00
 -0.252323557308E+00
 -0.252323477326E+00
  0.433898690953E-01
  0.433898399793E-01
  0.424177848532E-01
  0.424177725821E-01
  0.527328295493E-01
  0.527328369426E-01
  0.129048453600E+00
  0.129048443805E+00
  0.281339659905E+00
  0.281339696959E+00
  0.558884996453E+00
  0.558884964828E+00
  0.327594883869E+00
  0.327594934164E+00
 -0.121362847466E-01
 -0.121363266400E-01
 -0.169894617118E+00
 -0.169894607532E+00
 -0.243540382468E+00
 -0.243540389744E+00
 -0.253234404262E+00
 -0.253234392428E+00
 -0.252323476580E+00
 -0.252323448943E+00
  0.433898111593E-01
  0.433898690869E-01
  0.424178425101E-01
  0.424177849319E-01
  0.527328305406E-01
  0.527328295813E-01
  0.129048443867E+00
  0.129048443586E+00
  0.281339696376E+00
  0.281339636733E+00
  0.558884962511E+00
  0.558884941347E+00
  0.327594850403E+00
  0.327594882511E+00
 -0.121363511051E-01
 -0.121362847214E-01
 -0.169894617475E+00
 -0.169894617199E+00
 -0.243540389892E+00
 -0.243540388964E+00
 -0.253234392897E+00
 -0.253234338006E+00
 -0.252323448894E+00
 -0.252323503605E+00
  0.433898259494E-01
  0.433898111998E-01
  0.424178757745E-01
  0.424178426668E-01
  0.527328170032E-01
  0.527328305174E-01
  0.129048443567E+00
  0.129048446899E+00
  0.281339637936E+00
  0.281339692975E+00
  0.558884955760E+00
  0.558885148285E+00
  0.327595145333E+00
  0.327594858852E+00
 -0.121362903165E-01
 -0.121363511570E-01
 -0.169894614172E+00
 -0.169894617450E+00
 -0.243540388857E+00
 -0.243540401833E+00
 -0.253234338941E+00
 -0.253234307539E+00
 -0.252323503841E+00
 -0.252323489941E+00
  0.433897971855E-01
  0.433898259880E-01
  0.424178153790E-01
  0.424178757123E-01
  0.527328461296E-01
  0.527328169651E-01
  0.129048446907E+00
  0.129048438754E+00
  0.281339692290E+00
  0.281339764428E+00
  0.558885121935E+00
  0.558884719684E+00
  0.327594534489E+00
  0.327595129888E+00
 -0.121362106963E-01
 -0.121362902869E-01
 -0.169894622207E+00
 -0.169894614183E+00
 -0.243540401657E+00
 -0.243540373713E+00
 -0.253234307168E+00
 -0.253234364310E+00
 -0.252323490166E+00
 -0.252323517292E+00
  0.433898117781E-01
  0.433897970286E-01
  0.424177831728E-01
  0.424178151876E-01
  0.527328682019E-01
  0.527328460942E-01
  0.129048438740E+00
  0.129048426881E+00
  0.281339763420E+00
  0.281339575469E+00
  0.558884735476E+00
  0.558884946402E+00
  0.327594857608E+00
  0.327594543745E+00
 -0.121364184182E-01
 -0.121362106528E-01
 -0.169894633856E+00
 -0.169894622189E+00
 -0.243540373550E+00
 -0.243540352321E+00
 -0.253234363167E+00
 -0.253234393532E+00
 -0.252323516380E+00
 -0.252323502480E+00
  0.433896159304E-01
  0.433898118485E-01
  0.424178456762E-01
  0.424177833808E-01
  0.527328279712E-01
  0.527328682918E-01
  0.129048426919E+00
  0.129048438039E+00
  0.281339574786E+00
  0.281339644272E+00
  0.558884914954E+00
  0.558884627677E+00
  0.327594403360E+00
  0.327594839175E+00
 -0.121363410500E-01
 -0.121364183887E-01
 -0.169894622983E+00
 -0.169894633906E+00
 -0.243540352736E+00
 -0.243540391748E+00
 -0.253234394774E+00
 -0.253234335386E+00
 -0.252323502889E+00
 -0.252323687928E+00
  0.433897938075E-01
  0.433896159290E-01
  0.424178487478E-01
  0.424178458909E-01
  0.527328620496E-01
  0.527328282855E-01
  0.129048438054E+00
  0.129048433968E+00
  0.281339653575E+00
  0.281339655591E+00
  0.558884790810E+00
  0.558885619582E+00
  0.327595817029E+00
  0.327594498982E+00
 -0.121363391722E-01
 -0.121363414513E-01
 -0.169894627002E+00
 -0.169894623003E+00
 -0.243540393199E+00
 -0.243540359970E+00
 -0.253234336668E+00
 -0.253234333913E+00
 -0.252323687920E+00
 -0.252323519076E+00
  0.433897187533E-01
  0.433897947667E-01
  0.424177879594E-01
  0.424178489426E-01
  0.527328049173E-01
  0.527328614578E-01
  0.129048433909E+00
  0.129048449183E+00
  0.281339643078E+00
  0.281339691297E+00
  0.558885438903E+00
  0.558885023685E+00
  0.327594967752E+00
  0.327595711123E+00
 -0.121362822396E-01
 -0.121363386324E-01
 -0.169894612092E+00
 -0.169894626925E+00
 -0.243540357237E+00
 -0.243540414884E+00
 -0.253234335076E+00
 -0.253234395316E+00
 -0.252323524654E+00
 -0.252323597567E+00
  0.417287079744E-01
  0.408101992122E-01
  0.408096144973E-01
  0.505274448354E-01
  0.505276147536E-01
  0.120112827058E+00
  0.120112906128E+00
  0.249072624310E+00
  0.249072748761E+00
  0.474069956171E+00
  0.277879931333E+00
 -0.107440089950E-01
 -0.107443626346E-01
 -0.158130516094E+00
 -0.158130704316E+00
 -0.233355996888E+00
 -0.233356077366E+00
 -0.243633592119E+00
 -0.243633386321E+00
 -0.242664345851E+00
 -0.441447860356E-01
 -0.451661221824E-01
 -0.451594495031E-01
 -0.344371160698E-01
 -0.344388363698E-01
  0.390285361122E-01
  0.390285216163E-01
  0.163251473339E+00
  0.163251435091E+00
  0.366484773257E+00
  0.294996106664E+00
  0.616803922356E-01
  0.616808021768E-01
 -0.774509437323E-01
 -0.774504180523E-01
 -0.158582203113E+00
 -0.158582278382E+00
 -0.170352172109E+00
 -0.170350805159E+00
 -0.169230463156E+00
SCALARS inclination float 1
LOOKUP_TABLE default
  0.100000000000E+01
  0.100000000000E+01
  0.100000000000E+01
  0.100000000000E+01
  0.100000000000E+01
  0.100000000000E+01
  0.100000000000E+01
  0.100000000000E+01
  0.100000000000E+01
  0.100000000000E+01
  0.100000000000E+01
  0.100000000000E+01
  0.100000000000E+01
  0.100000000000E+01
  0.100000000000E+01
  0.100000000000E+01
  0.100000000000E+01
  0.100000000000E+01
  0.100000000000E+01
  0.100000000000E+01
  0.100000000000E+01
  0.100000000000E+01
  0.100000000000E+01
  0.100000000000E+01
  0.100000000000E+01
  0.100000000000E+01
  0.100000000000E+01
  0.100000000000E+01
  0.100000000000E+01
  0.100000000000E+01
  0.100000000000E+01
  0.100000000000E+01
  0.100000000000E+01
  0.100000000000E+01
  0.100000000000E+01
  0.100000000000E+01
  0.100000000000E+01
  0.100000000000E+01
  0.100000000000E+01
  0.100000000000E+01
  0.100000000000E+01
  0.100000000000E+01
  0.100000000000E+01
  0.100000000000E+01
  0.100000000000E+01
  0.100000000000E+01
  0.100000000000E+01
  0.100000000000E+01
  0.100000000000E+01
  0.100000000000E+01
  0.100000000000E+01
  0.100000000000E+01
  0.100000000000E+01
  0.100000000000E+01
  0.100000000000E+01
  0.100000000000E+01
  0.100000000000E+01
  0.100000000000E+01
  0.100000000000E+01
  0.100000000000E+01
  0.100000000000E+01
  0.100000000000E+01
  0.100000000000E+01
  0.100000000000E+01
  0.100000000000E+01
  0.100000000000E+01
  0.100000000000E+01
  0.100000000000E+01
  0.100000000000E+01
  0.100000000000E+01
  0.100000000000E+01
  0.100000000000E+01
  0.100000000000E+01
  0.100000000000E+01
  0.100000000000E+01
  0.100000000000E+01
  0.100000000000E+01
  0.100000000000E+01
  0.100000000000E+01
  0.100000000000E+01
  0.100000000000E+01
  0.100000000000E+01
  0.100000000000E+01
  0.100000000000E+01
  0.100000000000E+01
  0.100000000000E+01
  0.100000000000E+01
  0.100000000000E+01
  0.100000000000E+01
  0.100000000000E+01
  0.100000000000E+01
  0.100000000000E+01
  0.100000000000E+01
  0.100000000000E+01
  0.100000000000E+01
  0.100000000000E+01
  0.100000000000E+01
  0.100000000000E+01
  0.100000000000E+01
  0.100000000000E+01
  0.100000000000E+01
  0.100000000000E+01
  0.100000000000E+01
  0.100000000000E+01
  0.100000000000E+01
  0.100000000000E+01
  0.100000000000E+01
  0.100000000000E+01
  0.100000000000E+01
  0.100000000000E+01
  0.100000000000E+01
  0.100000000000E+01
  0.100000000000E+01
  0.100000000000E+01
  0.100000000000E+01
  0.100000000000E+01
  0.100000000000E+01
  0.100000000000E+01
  0.100000000000E+01
  0.100000000000E+01
  0.100000000000E+01
  0.100000000000E+01
  0.100000000000E+01
  0.100000000000E+01
  0.100000000000E+01
  0.100000000000E+01
  0.100000000000E+01
  0.100000000000E+01
  0.100000000000E+01
  0.100000000000E+01
  0.100000000000E+01
  0.100000000000E+01
  0.100000000000E+01
  0.100000000000E+01
  0.100000000000E+01
  0.100000000000E+01
  0.100000000000E+01
  0.100000000000E+01
  0.100000000000E+01
  0.100000000000E+01
  0.100000000000E+01
  0.100000000000E+01
  0.100000000000E+01
  0.100000000000E+01
  0.100000000000E+01
  0.100000000000E+01
  0.100000000000E+01
  0.100000000000E+01
  0.100000000000E+01
  0.100000000000E+01
  0.100000000000E+01
  0.100000000000E+01
  0.100000000000E+01
  0.100000000000E+01
  0.100000000000E+01
  0.100000000000E+01
  0.100000000000E+01
  0.100000000000E+01
  0.100000000000E+01
  0.100000000000E+01
  0.100000000000E+01
  0.100000000000E+01
  0.100000000000E+01
  0.100000000000E+01
  0.100000000000E+01
  0.100000000000E+01
  0.100000000000E+01
  0.100000000000E+01
  0.100000000000E+01
  0.100000000000E+01
  0.100000000000E+01
  0.100000000000E+01
  0.100000000000E+01
  0.100000000000E+01
  0.100000000000E+01
  0.100000000000E+01
  0.100000000000E+01
  0.100000000000E+01
  0.100000000000E+01
  0.100000000000E+01
  0.100000000000E+01
  0.100000000000E+01
  0.100000000000E+01
  0.100000000000E+01
  0.100000000000E+01
  0.100000000000E+01
  0.100000000000E+01
  0.100000000000E+01
  0.100000000000E+01
  0.100000000000E+01
  0.100000000000E+01
  0.100000000000E+01
  0.100000000000E+01
  0.100000000000E+01
  0.100000000000E+01
  0.100000000000E+01
  0.100000000000E+01
  0.100000000000E+01
  0.100000000000E+01
  0.100000000000E+01
  0.100000000000E+01
  0.100000000000E+01
  0.100000000000E+01
  0.100000000000E+01
  0.100000000000E+01
  0.100000000000E+01
  0.100000000000E+01
  0.100000000000E+01
  0.100000000000E+01
  0.100000000000E+01
  0.100000000000E+01
  0.100000000000E+01
  0.100000000000E+01
  0.100000000000E+01
  0.100000000000E+01
  0.100000000000E+01
  0.100000000000E+01
  0.100000000000E+01
  0.100000000000E+01
  0.100000000000E+01
  0.100000000000E+01
  0.100000000000E+01
  0.100000000000E+01
  0.100000000000E+01
  0.100000000000E+01
  0.100000000000E+01
  0.100000000000E+01
  0.100000000000E+01
  0.100000000000E+01
  0.100000000000E+01
  0.100000000000E+01
  0.100000000000E+01
  0.100000000000E+01
  0.100000000000E+01
  0.100000000000E+01
  0.100000000000E+01
  0.100000000000E+01
  0.100000000000E+01
  0.100000000000E+01
  0.100000000000E+01
  0.100000000000E+01
  0.100000000000E+01
  0.100000000000E+01
  0.100000000000E+01
  0.100000000000E+01
  0.100000000000E+01
  0.100000000000E+01
  0.100000000000E+01
  0.100000000000E+01
  0.100000000000E+01
  0.100000000000E+01
  0.100000000000E+01
  0.100000000000E+01
  0.100000000000E+01
  0.100000000000E+01
  0.100000000000E+01
VECTORS v float
  0.150690641979E+03  0.326180896408E+01  0.157534038017E+02
  0.152449898616E+03  0.275479282309E+01  0.159955779873E+02
  0.155670887740E+03 -0.466212229273E+00  0.168377655478E+02
  0.157208650068E+03  0.493131731042E+00  0.169001308416E+02
  0.160087091891E+03 -0.238532452727E+01  0.158247691369E+02
  0.161168026815E+03 -0.593323408681E+00  0.157555126360E+02
  0.158389432050E+03  0.218527573995E+01  0.322782516071E+01
  0.160230553021E+03 -0.460870861848E+01  0.340626242069E+01
  0.138901069672E+03  0.167207948577E+02 -0.169497628048E+02
  0.145510862844E+03 -0.128485210128E+01 -0.203645955368E+02
  0.817942175527E+02  0.624318188624E+02 -0.112234311832E+02
  0.820865327549E+02  0.617796993909E+02 -0.117708735178E+02
  0.167954573218E+03 -0.240883410727E+02  0.111317841319E+03
  0.144818809455E+03  0.275247202875E+02  0.679896199707E+02
  0.205058222102E+03 -0.327147071646E+02  0.329856276293E+02
  0.195320508947E+03 -0.618833654041E+01  0.279548116121E+02
  0.197395893246E+03 -0.826371343280E+01 -0.424978079682E+01
  0.198040562636E+03 -0.106426305248E+02 -0.431226456448E+01
  0.187673460819E+03 -0.275493536509E+00 -0.183061780892E+02
  0.183064878656E+03 -0.791571521674E+01 -0.186014611218E+02
  0.173902959700E+03  0.124624916140E+01 -0.186192213367E+02
  0.167766315357E+03 -0.258214524722E+01 -0.183703144850E+02
  0.161044744386E+03  0.413945896987E+01 -0.167660165522E+02
  0.153775944367E+03  0.623432337584E+01 -0.157654537934E+02
  0.151049932635E+03  0.653838155871E+01  0.154416730469E+02
  0.150729844515E+03  0.673443412587E+01  0.153865254062E+02
  0.155527705177E+03  0.193654578038E+01  0.165632088019E+02
  0.155698290279E+03  0.191749528055E+01  0.165836609850E+02
  0.159470334506E+03 -0.185456682820E+01  0.157130023144E+02
  0.160094768443E+03 -0.156846298264E+01  0.157459541986E+02
  0.160231792203E+03 -0.170549112572E+01  0.334629465461E+01
  0.160612048248E+03 -0.264032546433E+01  0.337347185983E+01
  0.145765598250E+03  0.122061363965E+02 -0.185283662976E+02
  0.145484287406E+03  0.127467347622E+02 -0.184143502508E+02
  0.849732181114E+02  0.732578308085E+02 -0.679083202635E+01
  0.794934824724E+02  0.820241824087E+02  0.146692215226E+01
  0.184308698622E+03 -0.227910337411E+02  0.120045518150E+03
  0.172879285892E+03 -0.450653252972E+01  0.102821843170E+03
  0.211663764642E+03 -0.432910133198E+02  0.353692318040E+02
  0.205096807507E+03 -0.306711977999E+02  0.327074894220E+02
  0.197135305328E+03 -0.227096711436E+02 -0.454291761773E+01
  0.197389460543E+03 -0.233344948245E+02 -0.456107871289E+01
  0.183054692012E+03 -0.899967744745E+01 -0.187060470977E+02
  0.178962061653E+03 -0.108748443483E+02 -0.184900692548E+02
  0.167799309397E+03  0.287960371968E+00 -0.180643597649E+02
  0.164154129043E+03  0.695048306735E+00 -0.176273623817E+02
  0.153829961791E+03  0.110192751369E+02 -0.152599297267E+02
  0.152370280626E+03  0.119133224637E+02 -0.150084188190E+02
  0.151147060422E+03  0.786244521601E+01  0.153105773179E+02
  0.151065585583E+03  0.792494630460E+01  0.152951843056E+02
  0.155731783368E+03  0.325872109946E+01  0.164426237984E+02
  0.155543908689E+03  0.334606654457E+01  0.164129531335E+02
  0.159341893821E+03 -0.451936181287E+00  0.155638753731E+02
  0.159483355802E+03 -0.468970826146E+00  0.155793130665E+02
  0.160612493098E+03 -0.159811531421E+01  0.335194421854E+01
  0.159800230816E+03 -0.753347160803E-01  0.330369202784E+01
  0.145511972162E+03  0.142129384586E+02 -0.182147881123E+02
  0.143231697003E+03  0.177455654189E+02 -0.174083712962E+02
  0.793848921597E+02  0.815924001571E+02  0.127958467352E+01
  0.739604895232E+02  0.888788432256E+02  0.864743419685E+01