# vtk DataFile Version 3.0
MachLine results file. Generated by MachLine, USU AeroLab (c) 2022.
ASCII
DATASET POLYDATA
POINTS                  20 float
  0.244703655243E+02  0.547033166885E+01  0.000000000000E+00
  0.988811098788E+04  0.547033166885E+01  0.149173539240E+04
  0.209237651825E+02  0.192375373840E+01  0.000000000000E+00
  0.988803168299E+04  0.192375373840E+01  0.149225977154E+04
  0.303820724487E+02  0.113820018768E+02  0.000000000000E+00
  0.988824317849E+04  0.113820018768E+02  0.149086132274E+04
  0.680002975464E+02  0.490000000000E+02  0.000000000000E+00
  0.988908435281E+04  0.490000000000E+02  0.148529931674E+04
  0.660765380859E+02  0.470762481689E+02  0.000000000000E+00
  0.988904133597E+04  0.470762481689E+02  0.148558375232E+04
  0.482439842224E+02  0.292438049316E+02  0.000000000000E+00
  0.988864258547E+04  0.292438049316E+02  0.148822036719E+04
  0.387563171387E+02  0.197561950684E+02  0.000000000000E+00
  0.988843043346E+04  0.197561950684E+02  0.148962315695E+04
  0.625299339294E+02  0.435296669006E+02  0.000000000000E+00
  0.988896203100E+04  0.435296669006E+02  0.148610813202E+04
  0.566182289124E+02  0.376179962158E+02  0.000000000000E+00
  0.988882984044E+04  0.376179962158E+02  0.148698220140E+04
  0.190000000000E+02  0.000000000000E+00  0.000000000000E+00
  0.988798866603E+04  0.000000000000E+00  0.149254420796E+04
POLYGONS                  18                  72
3                   2                   3                  19
3                   2                  19                  18
3                   0                   1                   3
3                   0                   3                   2
3                   4                   5                   1
3                   4                   1                   0
3                  12                  13                   5
3                  12                   5                   4
3                  10                  11                  13
3                  10                  13                  12
3                  16                  17                  11
3                  16                  11                  10
3                  14                  15                  17
3                  14                  17                  16
3                   8                   9                  15
3                   8                  15                  14
3                   6                   7                   9
3                   6                   9                   8
CELL_DATA                  18
NORMALS normals float
  0.147890983613E+00 -0.147891863393E+00 -0.977883558359E+00
  0.147890983613E+00 -0.147891863393E+00 -0.977883558359E+00
  0.147890982416E+00 -0.147891916961E+00 -0.977883550438E+00
  0.147890982416E+00 -0.147891916961E+00 -0.977883550438E+00
  0.147890982766E+00 -0.147891901293E+00 -0.977883552755E+00
  0.147890982766E+00 -0.147891901293E+00 -0.977883552755E+00
  0.147890982964E+00 -0.147891892442E+00 -0.977883554063E+00
  0.147890982964E+00 -0.147891892442E+00 -0.977883554063E+00
  0.147890983347E+00 -0.147891875289E+00 -0.977883556600E+00
  0.147890983347E+00 -0.147891875289E+00 -0.977883556600E+00
  0.147890982227E+00 -0.147891925391E+00 -0.977883549192E+00
  0.147890982227E+00 -0.147891925391E+00 -0.977883549192E+00
  0.147890984071E+00 -0.147891842952E+00 -0.977883561381E+00
  0.147890984071E+00 -0.147891842952E+00 -0.977883561381E+00
  0.147890981981E+00 -0.147891936409E+00 -0.977883547563E+00
  0.147890981981E+00 -0.147891936409E+00 -0.977883547563E+00
  0.147890990028E+00 -0.147891576548E+00 -0.977883600770E+00
  0.147890990028E+00 -0.147891576548E+00 -0.977883600770E+00
POINT_DATA                  20
SCALARS mu float 1
LOOKUP_TABLE default
 -0.448111373927E+01
 -0.448111373927E+01
 -0.433543647896E+01
 -0.433543647896E+01
 -0.466226105602E+01
 -0.466226105602E+01
  0.000000000000E+00
  0.000000000000E+00
 -0.168586182248E+01
 -0.168586182248E+01
 -0.464700730445E+01
 -0.464700730445E+01
 -0.477258449579E+01
 -0.477258449579E+01
 -0.308808956354E+01
 -0.308808956354E+01
 -0.410885253503E+01
 -0.410885253503E+01
 -0.426394087758E+01
 -0.426394087758E+01
