# vtk DataFile Version 3.0
MachLine results file. Generated by MachLine, USU AeroLab (c) 2022.
ASCII
DATASET POLYDATA
POINTS                1436 float
  0.000000000000E+00  0.000000000000E+00  0.000000000000E+00
  0.982935349150E+04  0.000000000000E+00  0.183951350613E+04
  0.147665724158E+00  0.000000000000E+00 -0.234920635819E+00
  0.982940096476E+04  0.000000000000E+00  0.183925983498E+04
  0.147665724158E+00  0.000000000000E+00  0.234920635819E+00
  0.982931601169E+04  0.000000000000E+00  0.183971377772E+04
  0.339639574289E+00  0.339639574289E+00  0.000000000000E+00
  0.982936498425E+04  0.339639574289E+00  0.183945209512E+04
  0.473465979099E+00  0.000000000000E+00 -0.436293870211E+00
  0.982944839998E+04  0.000000000000E+00  0.183900636715E+04
  0.473465979099E+00  0.000000000000E+00  0.436293870211E+00
  0.982929062539E+04  0.000000000000E+00  0.183984942818E+04
  0.487305283546E+00  0.339639574289E+00 -0.234920650721E+00
  0.982941245752E+04  0.339639574289E+00  0.183919842396E+04
  0.487305283546E+00  0.339639574289E+00  0.234920650721E+00
  0.982932750444E+04  0.339639574289E+00  0.183965236673E+04
  0.735364913940E+00  0.735364913940E+00  0.000000000000E+00
  0.982937837485E+04  0.735364913940E+00  0.183938054312E+04
  0.813105583191E+00  0.339639574289E+00 -0.436293929815E+00
  0.982945989275E+04  0.339639574289E+00  0.183894495608E+04
  0.813105583191E+00  0.339639574289E+00  0.436293929815E+00
  0.982930211814E+04  0.339639574289E+00  0.183978801722E+04
  0.120883107185E+01  0.735364913940E+00 -0.436293989420E+00
  0.982947328335E+04  0.735364913940E+00  0.183887340399E+04
  0.120883107185E+01  0.735364913940E+00  0.436293989420E+00
  0.982931550873E+04  0.735364913940E+00  0.183971646525E+04
  0.128370416164E+01  0.339639574289E+00 -0.604293525219E+00
  0.982950619330E+04  0.339639574289E+00  0.183869755126E+04
  0.166874670982E+01  0.119528055191E+01 -0.436294049025E+00
  0.982948884604E+04  0.119528055191E+01  0.183879024553E+04
  0.166874670982E+01  0.119528055191E+01  0.436294049025E+00
  0.982933107139E+04  0.119528055191E+01  0.183963330691E+04
  0.167942965031E+01  0.735364913940E+00 -0.604293584824E+00
  0.982951958391E+04  0.735364913940E+00  0.183862599918E+04
  0.191605937481E+01  0.339639574289E+00  0.760520458221E+00
  0.982928081586E+04  0.339639574289E+00  0.183990184494E+04
  0.213934540749E+01  0.119528055191E+01 -0.604293704033E+00
  0.982953514660E+04  0.119528055191E+01  0.183854284064E+04
  0.213934540749E+01  0.119528055191E+01  0.604293704033E+00
  0.982931661915E+04  0.119528055191E+01  0.183971053175E+04
  0.239635515213E+01  0.000000000000E+00 -0.902061045170E+00
  0.982959768332E+04  0.000000000000E+00  0.183820867866E+04
  0.239635515213E+01  0.000000000000E+00  0.902061045170E+00
  0.982927147588E+04  0.000000000000E+00  0.183995175269E+04
  0.249142503738E+01  0.234375929832E+01 -0.234920814633E+00
  0.982948027315E+04  0.234375929832E+01  0.183883605433E+04
  0.277170085907E+01  0.119528055191E+01 -0.760520696640E+00
  0.982958479207E+04  0.119528055191E+01  0.183827756244E+04
  0.277170085907E+01  0.119528055191E+01  0.760520696640E+00
  0.982930976910E+04  0.119528055191E+01  0.183974713468E+04
  0.281722569466E+01  0.234375929832E+01 -0.436294227839E+00
  0.982952770841E+04  0.234375929832E+01  0.183858258625E+04
  0.319952154160E+01  0.305185556412E+01  0.234920859337E+00
  0.982941928065E+04  0.305185556412E+01  0.183916196491E+04
  0.328782463074E+01  0.234375929832E+01 -0.604293942451E+00
  0.982957400900E+04  0.234375929832E+01  0.183833518126E+04
  0.328782463074E+01  0.234375929832E+01  0.604293942451E+00
  0.982935548146E+04  0.234375929832E+01  0.183950287283E+04
  0.352532196045E+01  0.305185556412E+01  0.436294317245E+00
  0.982939389432E+04  0.305185556412E+01  0.183929761555E+04
  0.359163665771E+01  0.119528055191E+01 -0.902061402798E+00
  0.982963812944E+04  0.119528055191E+01  0.183799255674E+04
  0.359163665771E+01  0.119528055191E+01  0.902061402798E+00
  0.982931192187E+04  0.119528055191E+01  0.183973563146E+04
  0.399592113495E+01  0.305185556412E+01 -0.604294061661E+00
  0.982959796966E+04  0.305185556412E+01  0.183820714860E+04
  0.399592113495E+01  0.305185556412E+01  0.604294061661E+00
  0.982937944208E+04  0.305185556412E+01  0.183937484040E+04
  0.401046848297E+01  0.386280250549E+01 -0.234920918941E+00
  0.982953167471E+04  0.386280250549E+01  0.183856139252E+04
  0.433626890182E+01  0.386280250549E+01 -0.436294436455E+00
  0.982957910999E+04  0.386280250549E+01  0.183830792438E+04
  0.433626890182E+01  0.386280250549E+01  0.436294436455E+00
  0.982942133520E+04  0.386280250549E+01  0.183915098650E+04
  0.461992597580E+01  0.119528055191E+01 -0.102348947525E+01
  0.982969488048E+04  0.119528055191E+01  0.183768931022E+04
  0.474011659622E+01  0.234375929832E+01 -0.902061700821E+00
  0.982967699187E+04  0.234375929832E+01  0.183778489717E+04
  0.474011659622E+01  0.234375929832E+01  0.902061700821E+00
  0.982935078419E+04  0.234375929832E+01  0.183952797246E+04
  0.478677463531E+01  0.478677463531E+01  0.000000000000E+00
  0.982951546685E+04  0.478677463531E+01  0.183864799847E+04
  0.500836277008E+01  0.339639574289E+00  0.111146700382E+01
  0.982932199808E+04  0.339639574289E+00  0.183968178968E+04
  0.515288639069E+01  0.172824025154E+01 -0.102348971367E+01
  0.982971291489E+04  0.172824025154E+01  0.183759294420E+04
  0.515288639069E+01  0.172824025154E+01  0.102348971367E+01
  0.982934279586E+04  0.172824025154E+01  0.183957065773E+04
  0.543922424316E+01  0.386280250549E+01  0.760521352291E+00
  0.982940003290E+04  0.386280250549E+01  0.183926481432E+04
  0.544821310043E+01  0.305185556412E+01 -0.902061939240E+00
  0.982970095255E+04  0.305185556412E+01  0.183765686439E+04
  0.544821310043E+01  0.305185556412E+01  0.902061939240E+00
  0.982937474479E+04  0.305185556412E+01  0.183939994014E+04
  0.586400508881E+01  0.119528055191E+01 -0.111146736145E+01
  0.982975288524E+04  0.119528055191E+01  0.183737936455E+04
  0.586400508881E+01  0.119528055191E+01  0.111146736145E+01
  0.982935095133E+04  0.119528055191E+01  0.183952707939E+04
  0.598104286194E+01  0.583337688446E+01 -0.234921067953E+00
  0.982959835523E+04  0.583337688446E+01  0.183820508831E+04
  0.630684375763E+01  0.583337688446E+01 -0.436294704676E+00
  0.982964579054E+04  0.583337688446E+01  0.183795161997E+04
  0.630684375763E+01  0.583337688446E+01  0.436294704676E+00
  0.982948801566E+04  0.583337688446E+01  0.183879468262E+04
  0.636319684982E+01  0.478677463531E+01 -0.760521590710E+00
  0.982970632163E+04  0.478677463531E+01  0.183762817498E+04
  0.647650289536E+01  0.305185556412E+01 -0.102349007130E+01
  0.982975770362E+04  0.305185556412E+01  0.183735361773E+04
  0.647650289536E+01  0.305185556412E+01  0.102349007130E+01
  0.982938758447E+04  0.305185556412E+01  0.183933133195E+04
  0.677744340897E+01  0.583337688446E+01 -0.604294598103E+00
  0.982969209119E+04  0.583337688446E+01  0.183770421468E+04
  0.701248550415E+01  0.234375929832E+01  0.111146771908E+01
  0.982938981366E+04  0.234375929832E+01  0.183931942036E+04
  0.715871477127E+01  0.701104879379E+01 -0.234921157360E+00
  0.982963820543E+04  0.701104879379E+01  0.183799215068E+04
  0.715871477127E+01  0.701104879379E+01  0.234921157360E+00
  0.982955325217E+04  0.701104879379E+01  0.183844609442E+04
  0.730835962296E+01  0.119528055191E+01  0.114008176327E+01
  0.982939465171E+04  0.119528055191E+01  0.183929356849E+04
  0.740979957581E+01  0.583337688446E+01 -0.760521829128E+00
  0.982974173672E+04  0.583337688446E+01  0.183743893612E+04
  0.740979957581E+01  0.583337688446E+01  0.760521829128E+00
  0.982946671334E+04  0.583337688446E+01  0.183890851055E+04
  0.772058296204E+01  0.305185556412E+01  0.111146795750E+01
  0.982941377429E+04  0.305185556412E+01  0.183919138787E+04
  0.784132003784E+01  0.172824025154E+01 -0.114008188248E+01
  0.982982496767E+04  0.172824025154E+01  0.183699419545E+04
  0.784132003784E+01  0.172824025154E+01  0.114008188248E+01
  0.982941268605E+04  0.172824025154E+01  0.183919720281E+04
  0.821142387390E+01  0.478677463531E+01  0.102349066734E+01
  0.982944629079E+04  0.478677463531E+01  0.183901763750E+04
  0.822973728180E+01  0.583337688446E+01 -0.902062714100E+00
  0.982979507418E+04  0.583337688446E+01  0.183715392990E+04
  0.822973728180E+01  0.583337688446E+01  0.902062714100E+00
  0.982946886614E+04  0.583337688446E+01  0.183889700715E+04
  0.847402095795E+01  0.832635498047E+01 -0.234921261668E+00
  0.982968271291E+04  0.832635498047E+01  0.183775432706E+04
  0.847402095795E+01  0.832635498047E+01  0.234921261668E+00
  0.982959775961E+04  0.832635498047E+01  0.183820827101E+04
  0.853153038025E+01  0.386280250549E+01 -0.111146831512E+01
  0.982984314939E+04  0.386280250549E+01  0.183689704228E+04
  0.890782928467E+01  0.119528055191E+01 -0.108925771713E+01
  0.982985186669E+04  0.119528055191E+01  0.183685046185E+04
  0.890782928467E+01  0.119528055191E+01  0.108925771713E+01
  0.982945796433E+04  0.119528055191E+01  0.183895526047E+04
  0.916493797302E+01  0.305185556412E+01 -0.114008235931E+01
  0.982986975647E+04  0.305185556412E+01  0.183675486861E+04
  0.939508819580E+01  0.000000000000E+00 -0.980745851994E+00
  0.982984873432E+04  0.000000000000E+00  0.183686719949E+04
  0.939508819580E+01  0.000000000000E+00  0.980745851994E+00
  0.982949407253E+04  0.000000000000E+00  0.183876231804E+04
  0.940740966797E+01  0.701104879379E+01 -0.902063071728E+00
  0.982983492444E+04  0.701104879379E+01  0.183694099192E+04
  0.973472881317E+01  0.339639574289E+00 -0.980745971203E+00
  0.982986022714E+04  0.339639574289E+00  0.183680578817E+04
  0.973472881317E+01  0.339639574289E+00  0.980745971203E+00
  0.982950556530E+04  0.339639574289E+00  0.183870090696E+04
  0.978319931030E+01  0.978319931030E+01  0.000000000000E+00
  0.982968453637E+04  0.978319931030E+01  0.183774458350E+04
  0.997588634491E+01  0.386280250549E+01  0.114008271694E+01
[...]
CELL_DATA                  78
NORMALS normals float
  0.180915855778E+00 -0.180916919366E+00 -0.966715325944E+00
  0.180915855778E+00 -0.180916919366E+00 -0.966715325944E+00
  0.180915863386E+00 -0.180916694508E+00 -0.966715366601E+00
  0.180915863386E+00 -0.180916694508E+00 -0.966715366601E+00
  0.180915847613E+00 -0.180917160646E+00 -0.966715282317E+00
  0.180915847613E+00 -0.180917160647E+00 -0.966715282317E+00
  0.180915856154E+00 -0.180916908250E+00 -0.966715327954E+00
  0.180915856154E+00 -0.180916908250E+00 -0.966715327954E+00
  0.180915858478E+00 -0.180916839573E+00 -0.966715340372E+00
  0.180915858478E+00 -0.180916839573E+00 -0.966715340372E+00
  0.180915848720E+00 -0.180917127938E+00 -0.966715288232E+00
  0.180915848720E+00 -0.180917127937E+00 -0.966715288232E+00
  0.180915859253E+00 -0.180916816660E+00 -0.966715344515E+00
  0.180915859253E+00 -0.180916816660E+00 -0.966715344515E+00
  0.180915847807E+00 -0.180917154920E+00 -0.966715283353E+00
  0.180915847807E+00 -0.180917154920E+00 -0.966715283353E+00
  0.180915858215E+00 -0.180916847329E+00 -0.966715338969E+00
  0.180915858215E+00 -0.180916847330E+00 -0.966715338969E+00
  0.180915854625E+00 -0.180916953415E+00 -0.966715319788E+00
  0.180915854625E+00 -0.180916953415E+00 -0.966715319788E+00
  0.180915849802E+00 -0.180917095963E+00 -0.966715294013E+00
  0.180915849802E+00 -0.180917095963E+00 -0.966715294013E+00
  0.180915859579E+00 -0.180916807020E+00 -0.966715346258E+00
  0.180915859579E+00 -0.180916807020E+00 -0.966715346258E+00
  0.180915848204E+00 -0.180917143185E+00 -0.966715285475E+00
  0.180915848204E+00 -0.180917143185E+00 -0.966715285475E+00
  0.180915854826E+00 -0.180916947483E+00 -0.966715320860E+00
  0.180915854826E+00 -0.180916947484E+00 -0.966715320860E+00
  0.180915854281E+00 -0.180916963594E+00 -0.966715317947E+00
  0.180915854281E+00 -0.180916963594E+00 -0.966715317947E+00
  0.180915859248E+00 -0.180916816812E+00 -0.966715344487E+00
  0.180915859248E+00 -0.180916816812E+00 -0.966715344487E+00
  0.180915857987E+00 -0.180916854078E+00 -0.966715337749E+00
  0.180915857987E+00 -0.180916854078E+00 -0.966715337749E+00
  0.180915853841E+00 -0.180916976603E+00 -0.966715315595E+00
  0.180915853841E+00 -0.180916976603E+00 -0.966715315595E+00
  0.180915849458E+00 -0.180917106139E+00 -0.966715292173E+00
  0.180915849458E+00 -0.180917106139E+00 -0.966715292173E+00
  0.180915849744E+00 -0.180917097687E+00 -0.966715293701E+00
  0.180915849744E+00 -0.180917097687E+00 -0.966715293701E+00
  0.180915849458E+00 -0.180917106139E+00 -0.966715292173E+00
  0.180915849458E+00 -0.180917106139E+00 -0.966715292173E+00
  0.180915864341E+00 -0.180916666304E+00 -0.966715371701E+00
  0.180915864341E+00 -0.180916666304E+00 -0.966715371701E+00
  0.180915847119E+00 -0.180917175240E+00 -0.966715279679E+00
  0.180915847119E+00 -0.180917175240E+00 -0.966715279679E+00
  0.180915856399E+00 -0.180916901016E+00 -0.966715329262E+00
  0.180915856399E+00 -0.180916901017E+00 -0.966715329262E+00
  0.180915854281E+00 -0.180916963594E+00 -0.966715317947E+00
  0.180915854281E+00 -0.180916963594E+00 -0.966715317947E+00
  0.180915851574E+00 -0.180917043578E+00 -0.966715303485E+00
  0.180915851574E+00 -0.180917043578E+00 -0.966715303485E+00
  0.180915862333E+00 -0.180916725641E+00 -0.966715360972E+00
  0.180915862333E+00 -0.180916725641E+00 -0.966715360972E+00
  0.180915859579E+00 -0.180916807036E+00 -0.966715346255E+00
  0.180915859579E+00 -0.180916807036E+00 -0.966715346255E+00
  0.180915856243E+00 -0.180916905625E+00 -0.966715328429E+00
  0.180915856243E+00 -0.180916905625E+00 -0.966715328429E+00
  0.180915833047E+00 -0.180917591111E+00 -0.966715204483E+00
  0.180915833047E+00 -0.180917591111E+00 -0.966715204483E+00
  0.180915869007E+00 -0.180916528416E+00 -0.966715396633E+00
  0.180915869007E+00 -0.180916528415E+00 -0.966715396633E+00
  0.180915866142E+00 -0.180916613068E+00 -0.966715381327E+00
  0.180915866142E+00 -0.180916613069E+00 -0.966715381327E+00
  0.180915834880E+00 -0.180917536945E+00 -0.966715214277E+00
  0.180915834880E+00 -0.180917536945E+00 -0.966715214277E+00
  0.180915890590E+00 -0.180915890590E+00 -0.966715511960E+00
  0.180915890590E+00 -0.180915890590E+00 -0.966715511960E+00
  0.180915817192E+00 -0.180918059665E+00 -0.966715119762E+00
  0.180915817192E+00 -0.180918059665E+00 -0.966715119762E+00
  0.180915805822E+00 -0.180918395662E+00 -0.966715059009E+00
  0.180915805822E+00 -0.180918395663E+00 -0.966715059009E+00
  0.180915939704E+00 -0.180914439135E+00 -0.966715774400E+00
  0.180915939704E+00 -0.180914439135E+00 -0.966715774400E+00
  0.180915833509E+00 -0.180917577451E+00 -0.966715206953E+00
  0.180915833509E+00 -0.180917577451E+00 -0.966715206953E+00
  0.180915890588E+00 -0.180915890640E+00 -0.966715511951E+00
  0.180915890588E+00 -0.180915890641E+00 -0.966715511951E+00
POINT_DATA                1436
SCALARS mu float 1
LOOKUP_TABLE default
  0.000000000000E+00
  0.000000000000E+00
  0.000000000000E+00
  0.000000000000E+00
  0.000000000000E+00
  0.000000000000E+00
  0.000000000000E+00
  0.000000000000E+00
  0.000000000000E+00
  0.000000000000E+00
  0.000000000000E+00
  0.000000000000E+00
  0.000000000000E+00
  0.000000000000E+00
  0.000000000000E+00
  0.000000000000E+00
  0.000000000000E+00
  0.000000000000E+00
  0.000000000000E+00
  0.000000000000E+00
  0.000000000000E+00
  0.000000000000E+00
  0.000000000000E+00
  0.000000000000E+00
  0.000000000000E+00
  0.000000000000E+00
  0.000000000000E+00
  0.000000000000E+00
  0.000000000000E+00
  0.000000000000E+00
  0.000000000000E+00
  0.000000000000E+00
  0.000000000000E+00
  0.000000000000E+00
  0.000000000000E+00
  0.000000000000E+00
  0.000000000000E+00
  0.000000000000E+00
  0.000000000000E+00
  0.000000000000E+00
  0.000000000000E+00
  0.000000000000E+00
  0.000000000000E+00
  0.000000000000E+00
  0.000000000000E+00
  0.000000000000E+00
  0.000000000000E+00
  0.000000000000E+00
  0.000000000000E+00
  0.000000000000E+00
  0.000000000000E+00
  0.000000000000E+00
  0.000000000000E+00
  0.000000000000E+00
  0.000000000000E+00
  0.000000000000E+00
  0.000000000000E+00
  0.000000000000E+00
  0.000000000000E+00
  0.000000000000E+00
  0.000000000000E+00
  0.000000000000E+00
  0.000000000000E+00
  0.000000000000E+00
  0.000000000000E+00
  0.000000000000E+00
  0.000000000000E+00
  0.000000000000E+00
  0.000000000000E+00
  0.000000000000E+00
  0.000000000000E+00
  0.000000000000E+00
  0.000000000000E+00
  0.000000000000E+00
  0.000000000000E+00
  0.000000000000E+00
  0.000000000000E+00
  0.000000000000E+00
  0.000000000000E+00
  0.000000000000E+00
  0.000000000000E+00
  0.000000000000E+00
  0.000000000000E+00
  0.000000000000E+00
  0.000000000000E+00
  0.000000000000E+00
  0.000000000000E+00
  0.000000000000E+00
  0.000000000000E+00
  0.000000000000E+00
  0.000000000000E+00
  0.000000000000E+00
  0.000000000000E+00
  0.000000000000E+00
  0.000000000000E+00
  0.000000000000E+00
  0.000000000000E+00
  0.000000000000E+00
  0.000000000000E+00
  0.000000000000E+00
  0.000000000000E+00
  0.000000000000E+00
  0.000000000000E+00
  0.000000000000E+00
  0.000000000000E+00
  0.000000000000E+00
  0.000000000000E+00
  0.000000000000E+00
  0.000000000000E+00
  0.000000000000E+00
  0.000000000000E+00
  0.000000000000E+00
  0.000000000000E+00
  0.000000000000E+00
  0.000000000000E+00
  0.000000000000E+00
  0.000000000000E+00
  0.000000000000E+00
  0.000000000000E+00
  0.000000000000E+00
  0.000000000000E+00
  0.000000000000E+00
  0.000000000000E+00
  0.000000000000E+00
  0.000000000000E+00
  0.000000000000E+00
  0.000000000000E+00
  0.000000000000E+00
  0.000000000000E+00
  0.000000000000E+00
  0.000000000000E+00
  0.000000000000E+00
  0.000000000000E+00
  0.000000000000E+00
  0.000000000000E+00
  0.000000000000E+00
  0.000000000000E+00
  0.000000000000E+00
  0.000000000000E+00
  0.000000000000E+00
  0.000000000000E+00
  0.000000000000E+00
  0.000000000000E+00
  0.000000000000E+00
  0.000000000000E+00
  0.000000000000E+00
  0.000000000000E+00
  0.000000000000E+00
  0.000000000000E+00
  0.000000000000E+00
  0.000000000000E+00
  0.000000000000E+00
  0.000000000000E+00
  0.000000000000E+00
  0.000000000000E+00
  0.000000000000E+00
  0.000000000000E+00
  0.000000000000E+00
  0.000000000000E+00
  0.000000000000E+00
  0.000000000000E+00
  0.000000000000E+00
  0.000000000000E+00
  0.000000000000E+00
  0.000000000000E+00
  0.000000000000E+00
  0.000000000000E+00
  0.000000000000E+00
  0.000000000000E+00
  0.000000000000E+00
  0.000000000000E+00
  0.000000000000E+00
  0.000000000000E+00
  0.000000000000E+00
  0.000000000000E+00
  0.000000000000E+00
  0.000000000000E+00
  0.000000000000E+00
  0.000000000000E+00
  0.000000000000E+00
  0.000000000000E+00
  0.000000000000E+00
  0.000000000000E+00
  0.000000000000E+00
  0.000000000000E+00
  0.000000000000E+00
  0.000000000000E+00
  0.000000000000E+00
  0.000000000000E+00
  0.000000000000E+00
  0.000000000000E+00
  0.000000000000E+00
  0.000000000000E+00
  0.000000000000E+00
  0.000000000000E+00
  0.000000000000E+00
  0.000000000000E+00
  0.000000000000E+00
  0.000000000000E+00
  0.000000000000E+00
  0.000000000000E+00
  0.000000000000E+00
  0.000000000000E+00
  0.000000000000E+00
  0.000000000000E+00
  0.000000000000E+00
  0.000000000000E+00
  0.000000000000E+00
  0.000000000000E+00
  0.000000000000E+00
  0.000000000000E+00
  0.000000000000E+00
  0.000000000000E+00
  0.000000000000E+00
  0.000000000000E+00
  0.000000000000E+00
  0.000000000000E+00
  0.000000000000E+00
  0.000000000000E+00
  0.000000000000E+00
  0.000000000000E+00
  0.000000000000E+00
  0.000000000000E+00
  0.000000000000E+00
  0.000000000000E+00
  0.000000000000E+00
  0.000000000000E+00
  0.000000000000E+00
  0.000000000000E+00
  0.000000000000E+00
  0.000000000000E+00
  0.000000000000E+00
  0.000000000000E+00
  0.000000000000E+00
  0.000000000000E+00
  0.000000000000E+00
  0.000000000000E+00
  0.000000000000E+00
  0.000000000000E+00
  0.000000000000E+00
  0.000000000000E+00
  0.000000000000E+00
  0.000000000000E+00
  0.000000000000E+00
  0.000000000000E+00
  0.000000000000E+00
  0.000000000000E+00
  0.000000000000E+00
  0.000000000000E+00
  0.000000000000E+00
  0.000000000000E+00
  0.000000000000E+00
  0.000000000000E+00
  0.000000000000E+00
  0.000000000000E+00
  0.000000000000E+00
  0.000000000000E+00
  0.000000000000E+00
  0.000000000000E+00
  0.000000000000E+00
  0.000000000000E+00
  0.000000000000E+00
  0.000000000000E+00
  0.000000000000E+00
  0.000000000000E+00
  0.000000000000E+00
  0.000000000000E+00
  0.000000000000E+00
  0.000000000000E+00
  0.000000000000E+00
  0.000000000000E+00
  0.000000000000E+00
  0.000000000000E+00
  0.000000000000E+00
  0.000000000000E+00
  0.000000000000E+00
  0.000000000000E+00
  0.000000000000E+00
  0.000000000000E+00
  0.000000000000E+00
  0.000000000000E+00
  0.000000000000E+00
  0.000000000000E+00
  0.000000000000E+00
  0.000000000000E+00
  0.000000000000E+00
  0.000000000000E+00
  0.000000000000E+00
  0.000000000000E+00
  0.000000000000E+00
  0.000000000000E+00
  0.000000000000E+00
  0.000000000000E+00
  0.000000000000E+00
  0.000000000000E+00
  0.000000000000E+00
  0.000000000000E+00
  0.000000000000E+00
  0.000000000000E+00
  0.000000000000E+00
  0.000000000000E+00
  0.000000000000E+00
  0.000000000000E+00
  0.000000000000E+00
  0.000000000000E+00
  0.000000000000E+00
  0.000000000000E+00
  0.000000000000E+00
  0.000000000000E+00
  0.000000000000E+00
  0.000000000000E+00
  0.000000000000E+00
  0.000000000000E+00
  0.000000000000E+00
  0.000000000000E+00
  0.000000000000E+00
  0.000000000000E+00
  0.000000000000E+00
  0.000000000000E+00
  0.000000000000E+00
  0.000000000000E+00
  0.000000000000E+00
  0.000000000000E+00
  0.000000000000E+00
  0.000000000000E+00
  0.000000000000E+00
  0.000000000000E+00
  0.000000000000E+00
  0.000000000000E+00
  0.000000000000E+00
  0.000000000000E+00
  0.000000000000E+00
  0.000000000000E+00
  0.000000000000E+00
  0.000000000000E+00
  0.000000000000E+00
 -0.585903528399E+01
 -0.585903528399E+01
  0.000000000000E+00
  0.000000000000E+00
  0.000000000000E+00
  0.000000000000E+00
  0.000000000000E+00
  0.000000000000E+00
  0.000000000000E+00
  0.000000000000E+00
  0.000000000000E+00
  0.000000000000E+00
  0.000000000000E+00
  0.000000000000E+00
  0.000000000000E+00
  0.000000000000E+00
 -0.587250493486E+01
 -0.587250493486E+01
  0.000000000000E+00
  0.000000000000E+00
  0.000000000000E+00
  0.000000000000E+00
  0.000000000000E+00
  0.000000000000E+00
  0.000000000000E+00
  0.000000000000E+00
  0.000000000000E+00
  0.000000000000E+00
  0.000000000000E+00
  0.000000000000E+00
 -0.589245368046E+01
 -0.589245368046E+01
  0.000000000000E+00
  0.000000000000E+00
  0.000000000000E+00
  0.000000000000E+00
  0.000000000000E+00
  0.000000000000E+00
  0.000000000000E+00
  0.000000000000E+00
  0.000000000000E+00
  0.000000000000E+00
 -0.591817049061E+01
 -0.591817049061E+01
  0.000000000000E+00
  0.000000000000E+00
  0.000000000000E+00
  0.000000000000E+00
  0.000000000000E+00
  0.000000000000E+00
  0.000000000000E+00
  0.000000000000E+00
  0.000000000000E+00
  0.000000000000E+00
 -0.595232542205E+01
 -0.595232542205E+01
  0.000000000000E+00
  0.000000000000E+00
  0.000000000000E+00
  0.000000000000E+00
  0.000000000000E+00
  0.000000000000E+00
  0.000000000000E+00
  0.000000000000E+00
  0.000000000000E+00
  0.000000000000E+00
  0.000000000000E+00
  0.000000000000E+00
  0.000000000000E+00
  0.000000000000E+00
  0.000000000000E+00
  0.000000000000E+00
 -0.599647910709E+01
 -0.599647910709E+01
  0.000000000000E+00
  0.000000000000E+00
  0.000000000000E+00
  0.000000000000E+00
  0.000000000000E+00
  0.000000000000E+00
  0.000000000000E+00
  0.000000000000E+00
  0.000000000000E+00
  0.000000000000E+00
  0.000000000000E+00
  0.000000000000E+00
 -0.604642549526E+01
 -0.604642549526E+01
  0.000000000000E+00
  0.000000000000E+00
  0.000000000000E+00
  0.000000000000E+00
  0.000000000000E+00
  0.000000000000E+00
  0.000000000000E+00
  0.000000000000E+00
  0.000000000000E+00
  0.000000000000E+00
  0.000000000000E+00
  0.000000000000E+00
  0.000000000000E+00
  0.000000000000E+00
  0.000000000000E+00
  0.000000000000E+00
  0.000000000000E+00
  0.000000000000E+00
 -0.610338337023E+01
 -0.610338337023E+01
  0.000000000000E+00
  0.000000000000E+00
  0.000000000000E+00
  0.000000000000E+00
  0.000000000000E+00
  0.000000000000E+00
  0.000000000000E+00
  0.000000000000E+00
  0.000000000000E+00
  0.000000000000E+00
  0.000000000000E+00
  0.000000000000E+00
  0.000000000000E+00
  0.000000000000E+00
  0.000000000000E+00
  0.000000000000E+00
  0.000000000000E+00
  0.000000000000E+00
 -0.616338981163E+01
 -0.616338981163E+01
  0.000000000000E+00
  0.000000000000E+00
  0.000000000000E+00
  0.000000000000E+00
  0.000000000000E+00
  0.000000000000E+00
  0.000000000000E+00
  0.000000000000E+00
  0.000000000000E+00
  0.000000000000E+00
  0.000000000000E+00
  0.000000000000E+00
  0.000000000000E+00
  0.000000000000E+00
  0.000000000000E+00
  0.000000000000E+00
  0.000000000000E+00
  0.000000000000E+00
 -0.622969747802E+01
 -0.622969747802E+01
  0.000000000000E+00
  0.000000000000E+00
  0.000000000000E+00
  0.000000000000E+00
  0.000000000000E+00
  0.000000000000E+00
  0.000000000000E+00
  0.000000000000E+00
  0.000000000000E+00
  0.000000000000E+00
  0.000000000000E+00
  0.000000000000E+00
  0.000000000000E+00
  0.000000000000E+00
  0.000000000000E+00
  0.000000000000E+00
  0.000000000000E+00
  0.000000000000E+00
 -0.629905274048E+01
 -0.629905274048E+01
  0.000000000000E+00
  0.000000000000E+00
  0.000000000000E+00
  0.000000000000E+00
  0.000000000000E+00
  0.000000000000E+00
  0.000000000000E+00
  0.000000000000E+00
  0.000000000000E+00
  0.000000000000E+00
  0.000000000000E+00
  0.000000000000E+00
  0.000000000000E+00
  0.000000000000E+00
  0.000000000000E+00
  0.000000000000E+00
  0.000000000000E+00
  0.000000000000E+00
  0.000000000000E+00
  0.000000000000E+00
  0.000000000000E+00
  0.000000000000E+00
  0.000000000000E+00
  0.000000000000E+00
 -0.637143212455E+01
 -0.637143212455E+01
  0.000000000000E+00
  0.000000000000E+00
  0.000000000000E+00
  0.000000000000E+00
  0.000000000000E+00
  0.000000000000E+00
  0.000000000000E+00
  0.000000000000E+00
  0.000000000000E+00
  0.000000000000E+00
  0.000000000000E+00
  0.000000000000E+00
  0.000000000000E+00
  0.000000000000E+00
  0.000000000000E+00
  0.000000000000E+00
  0.000000000000E+00
  0.000000000000E+00
  0.000000000000E+00
  0.000000000000E+00
  0.000000000000E+00
  0.000000000000E+00
  0.000000000000E+00
  0.000000000000E+00
 -0.644371173825E+01
 -0.644371173825E+01
  0.000000000000E+00
  0.000000000000E+00
  0.000000000000E+00
  0.000000000000E+00
  0.000000000000E+00
  0.000000000000E+00
  0.000000000000E+00
  0.000000000000E+00
  0.000000000000E+00
  0.000000000000E+00
  0.000000000000E+00
  0.000000000000E+00
  0.000000000000E+00
  0.000000000000E+00
  0.000000000000E+00
  0.000000000000E+00
  0.000000000000E+00
  0.000000000000E+00
  0.000000000000E+00
  0.000000000000E+00
  0.000000000000E+00
  0.000000000000E+00
  0.000000000000E+00
  0.000000000000E+00
 -0.651474548817E+01
 -0.651474548817E+01
  0.000000000000E+00
  0.000000000000E+00
  0.000000000000E+00
  0.000000000000E+00
  0.000000000000E+00
  0.000000000000E+00
  0.000000000000E+00
  0.000000000000E+00
  0.000000000000E+00
  0.000000000000E+00
  0.000000000000E+00
  0.000000000000E+00
  0.000000000000E+00
  0.000000000000E+00
  0.000000000000E+00
  0.000000000000E+00
  0.000000000000E+00
  0.000000000000E+00
  0.000000000000E+00
  0.000000000000E+00
  0.000000000000E+00
  0.000000000000E+00
 -0.658337712129E+01
 -0.658337712129E+01
  0.000000000000E+00
  0.000000000000E+00
  0.000000000000E+00
  0.000000000000E+00
  0.000000000000E+00
  0.000000000000E+00
  0.000000000000E+00
  0.000000000000E+00
  0.000000000000E+00
  0.000000000000E+00
  0.000000000000E+00
  0.000000000000E+00
  0.000000000000E+00
  0.000000000000E+00
  0.000000000000E+00
  0.000000000000E+00
  0.000000000000E+00
  0.000000000000E+00
  0.000000000000E+00
  0.000000000000E+00
  0.000000000000E+00
  0.000000000000E+00
  0.000000000000E+00
  0.000000000000E+00
  0.000000000000E+00
  0.000000000000E+00
 -0.664715515916E+01
 -0.664715515916E+01
  0.000000000000E+00
  0.000000000000E+00
  0.000000000000E+00
  0.000000000000E+00
  0.000000000000E+00
  0.000000000000E+00
  0.000000000000E+00
  0.000000000000E+00
  0.000000000000E+00
  0.000000000000E+00
  0.000000000000E+00
  0.000000000000E+00
  0.000000000000E+00
  0.000000000000E+00
  0.000000000000E+00
  0.000000000000E+00
  0.000000000000E+00
  0.000000000000E+00
  0.000000000000E+00
  0.000000000000E+00
  0.000000000000E+00
  0.000000000000E+00
  0.000000000000E+00
  0.000000000000E+00
  0.000000000000E+00
  0.000000000000E+00
 -0.670444352297E+01
 -0.670444352297E+01
  0.000000000000E+00
  0.000000000000E+00
  0.000000000000E+00
  0.000000000000E+00
  0.000000000000E+00
  0.000000000000E+00
  0.000000000000E+00
  0.000000000000E+00
  0.000000000000E+00
  0.000000000000E+00
  0.000000000000E+00
  0.000000000000E+00
  0.000000000000E+00
  0.000000000000E+00
  0.000000000000E+00
  0.000000000000E+00
  0.000000000000E+00
  0.000000000000E+00
  0.000000000000E+00
  0.000000000000E+00
  0.000000000000E+00
  0.000000000000E+00
  0.000000000000E+00
  0.000000000000E+00
  0.000000000000E+00
  0.000000000000E+00
  0.000000000000E+00
  0.000000000000E+00
  0.000000000000E+00
  0.000000000000E+00
 -0.675211033108E+01
 -0.675211033108E+01
  0.000000000000E+00
  0.000000000000E+00
  0.000000000000E+00
  0.000000000000E+00
  0.000000000000E+00
  0.000000000000E+00
  0.000000000000E+00
  0.000000000000E+00
  0.000000000000E+00
  0.000000000000E+00
  0.000000000000E+00
  0.000000000000E+00
  0.000000000000E+00
  0.000000000000E+00
  0.000000000000E+00
  0.000000000000E+00
  0.000000000000E+00
  0.000000000000E+00
  0.000000000000E+00
  0.000000000000E+00
  0.000000000000E+00
  0.000000000000E+00
  0.000000000000E+00
  0.000000000000E+00
  0.000000000000E+00