# vtk DataFile Version 3.0
MachLine results file. Generated by MachLine, USU AeroLab (c) 2022.
ASCII
DATASET POLYDATA
POINTS                1848 float
  0.559710450636E-05  0.000000000000E+00  0.120211578351E-21
  0.147669420356E+00  0.000000000000E+00 -0.234916154167E+00
  0.147669420356E+00  0.000000000000E+00  0.234916154167E+00
  0.339643488108E+00  0.339635660470E+00  0.000000000000E+00
  0.473468632512E+00  0.000000000000E+00 -0.436287762525E+00
  0.473468632512E+00  0.000000000000E+00  0.436287762525E+00
  0.487308608206E+00  0.339636249629E+00 -0.234917183841E+00
  0.487308608206E+00  0.339636249629E+00  0.234917183841E+00
  0.735369269503E+00  0.735360558377E+00 -0.623642789854E-22
  0.813108237056E+00  0.339636920424E+00 -0.436288359745E+00
  0.813108237056E+00  0.339636920424E+00  0.436288359745E+00
  0.883034320569E+00  0.735361246371E+00 -0.234916856065E+00
  0.883034320569E+00  0.735361246371E+00  0.234916856065E+00
  0.944066647098E+00  0.000000000000E+00 -0.604286064991E+00
  0.944066647098E+00  0.000000000000E+00  0.604286064991E+00
  0.119528541420E+01  0.119527568962E+01 -0.139239588662E-21
  0.120883396323E+01  0.735362022563E+00 -0.436287920848E+00
  0.120883396323E+01  0.735362022563E+00  0.436287920848E+00
  0.128370629013E+01  0.339637445796E+00 -0.604286441728E+00
  0.128370629013E+01  0.339637445796E+00  0.604286441728E+00
  0.134295035247E+01  0.119527649041E+01 -0.234916489990E+00
  0.134295035247E+01  0.119527649041E+01  0.234916489990E+00
  0.157642143906E+01  0.000000000000E+00 -0.760511625665E+00
  0.157642143906E+01  0.000000000000E+00  0.760511625665E+00
  0.166874987392E+01  0.119527738781E+01 -0.436287408051E+00
  0.166874987392E+01  0.119527738781E+01  0.436287408051E+00
  0.167943194385E+01  0.735362620399E+00 -0.604285952066E+00
  0.167943194385E+01  0.735362620399E+00  0.604285952066E+00
  0.172824569053E+01  0.172823481255E+01 -0.389385905703E-21
  0.187591062046E+01  0.172823574089E+01 -0.234916066324E+00
  0.187591062046E+01  0.172823574089E+01  0.234916066324E+00
  0.191606115975E+01  0.339637789350E+00 -0.760511930360E+00
  0.191606115975E+01  0.339637789350E+00  0.760511930360E+00
  0.213934789061E+01  0.119527806879E+01 -0.604285440358E+00
  0.213934789061E+01  0.119527806879E+01  0.604285440358E+00
  0.220170988446E+01  0.172823677653E+01 -0.436286844900E+00
  0.220170988446E+01  0.172823677653E+01  0.436286844900E+00
  0.231178688624E+01  0.735363010380E+00 -0.760511482838E+00
  0.231178688624E+01  0.735363010380E+00  0.760511482838E+00
  0.234376538790E+01  0.234375320874E+01 -0.348769880774E-21
  0.239635655070E+01  0.000000000000E+00 -0.902050767795E+00
  0.239635655070E+01  0.000000000000E+00  0.902050767795E+00
  0.249143005586E+01  0.234375427984E+01 -0.234915581477E+00
  0.249143005586E+01  0.234375427984E+01  0.234915581477E+00
  0.267230804490E+01  0.172823755218E+01 -0.604284839933E+00
  0.267230804490E+01  0.172823755218E+01  0.604284839933E+00
  0.273599651581E+01  0.339638112717E+00 -0.902051094889E+00
  0.273599651581E+01  0.339638112717E+00  0.902051094889E+00
  0.277170289895E+01  0.119527851203E+01 -0.760510950761E+00
  0.277170289895E+01  0.119527851203E+01  0.760510950761E+00
  0.281722952122E+01  0.234375547176E+01 -0.436286196457E+00
  0.281722952122E+01  0.234375547176E+01  0.436286196457E+00
  0.305186238041E+01  0.305184874783E+01 -0.195195463795E-21
  0.313172232612E+01  0.735363369156E+00 -0.902050640810E+00
  0.313172232612E+01  0.735363369156E+00  0.902050640810E+00
  0.319952712879E+01  0.305184997693E+01 -0.234915033141E+00
  0.319952712879E+01  0.305184997693E+01  0.234915033141E+00
  0.328782757476E+01  0.234375635430E+01 -0.604284144956E+00
  0.328782757476E+01  0.234375635430E+01  0.604284144956E+00
  0.330466299259E+01  0.172823805608E+01 -0.760510326632E+00
  0.330466299259E+01  0.172823805608E+01  0.760510326632E+00
  0.342464501736E+01  0.000000000000E+00 -0.102347726804E+01
  0.342464501736E+01  0.000000000000E+00  0.102347726804E+01
  0.352532618079E+01  0.305185134378E+01 -0.436285459385E+00
  0.352532618079E+01  0.305185134378E+01  0.436285459385E+00
  0.359163829815E+01  0.119527891148E+01 -0.902050101036E+00
  0.359163829815E+01  0.119527891148E+01  0.902050101036E+00
  0.376428499675E+01  0.339638473036E+00 -0.102347755842E+01
  0.376428499675E+01  0.339638473036E+00  0.102347755842E+01
  0.386281012443E+01  0.386279488655E+01 -0.436361510624E-21
  0.392018245394E+01  0.234375692670E+01 -0.760509663821E+00
  0.392018245394E+01  0.234375692670E+01  0.760509663821E+00
  0.399592435318E+01  0.305185234589E+01 -0.604283351599E+00
  0.399592435318E+01  0.305185234589E+01  0.604283351599E+00
  0.401047470017E+01  0.386279628829E+01 -0.234914435781E+00
  0.401047470017E+01  0.386279628829E+01  0.234914435781E+00
  0.412459882225E+01  0.172823850189E+01 -0.902049467796E+00
  0.412459882225E+01  0.172823850189E+01  0.902049467796E+00
  0.416001101646E+01  0.735363758474E+00 -0.102347710272E+01
  0.416001101646E+01  0.735363758474E+00  0.102347710272E+01
  0.433627355849E+01  0.386279784882E+01 -0.436284662791E+00
  0.433627355849E+01  0.386279784882E+01  0.436284662791E+00
  0.461992719359E+01  0.119527933413E+01 -0.102347656107E+01
  0.461992719359E+01  0.119527933413E+01  0.102347656107E+01
  0.462827939417E+01  0.305185299490E+01 -0.760508898570E+00
  0.462827939417E+01  0.305185299490E+01  0.760508898570E+00
  0.466872311975E+01  0.000000000000E+00 -0.111145353779E+01
  0.466872311975E+01  0.000000000000E+00  0.111145353779E+01
  0.474011846960E+01  0.234375742494E+01 -0.902048794181E+00
  0.474011846960E+01  0.234375742494E+01  0.902048794181E+00
  0.478678312943E+01  0.478676614119E+01 -0.486485741194E-21
  0.480687159859E+01  0.386279898322E+01 -0.604282518577E+00
  0.480687159859E+01  0.386279898322E+01  0.604282518577E+00
  0.493444751927E+01  0.478676772883E+01 -0.234913791519E+00
  0.493444751927E+01  0.478676772883E+01  0.234913791519E+00
  0.500836336858E+01  0.339638975791E+00 -0.111145376435E+01
  0.500836336858E+01  0.339638975791E+00  0.111145376435E+01
  0.515288767965E+01  0.172823896258E+01 -0.102347604475E+01
  0.515288767965E+01  0.172823896258E+01  0.102347604475E+01
  0.526024664267E+01  0.478676950112E+01 -0.436283779756E+00
  0.526024664267E+01  0.478676950112E+01  0.436283779756E+00
  0.540408912163E+01  0.735364289471E+00 -0.111145330904E+01
  0.540408912163E+01  0.735364289471E+00  0.111145330904E+01
  0.543922703165E+01  0.386279971700E+01 -0.760508029793E+00
  0.543922703165E+01  0.386279971700E+01  0.760508029793E+00
  0.544821511269E+01  0.305185355186E+01 -0.902048075774E+00
  0.544821511269E+01  0.305185355186E+01  0.902048075774E+00
  0.573084453819E+01  0.478677078010E+01 -0.604281589405E+00
  0.573084453819E+01  0.478677078010E+01  0.604281589405E+00
  0.576840728392E+01  0.234375792871E+01 -0.102347530863E+01
  0.576840728392E+01  0.234375792871E+01  0.102347530863E+01
  0.583338631872E+01  0.583336745020E+01 -0.675413266973E-21
  0.586400574314E+01  0.119527989759E+01 -0.111145288712E+01
  0.586400574314E+01  0.119527989759E+01  0.111145288712E+01
  0.598105051178E+01  0.583336923462E+01 -0.234913090871E+00
  0.598105051178E+01  0.583336923462E+01  0.234913090871E+00
  0.611307647464E+01  0.000000000000E+00 -0.114006672374E+01
  0.611307647464E+01  0.000000000000E+00  0.114006672374E+01
  0.625916268514E+01  0.386280033901E+01 -0.902047251677E+00
  0.625916268514E+01  0.386280033901E+01  0.902047251677E+00
  0.630684940695E+01  0.583337123515E+01 -0.436282847598E+00
  0.630684940695E+01  0.583337123515E+01  0.436282847598E+00
  0.636319987860E+01  0.478677160653E+01 -0.760507120199E+00
  0.636319987860E+01  0.478677160653E+01  0.760507120199E+00
  0.639696619211E+01  0.172823956313E+01 -0.111145225217E+01
  0.639696619211E+01  0.172823956313E+01  0.111145225217E+01
  0.645271674047E+01  0.339639661210E+00 -0.114006685712E+01
  0.645271674047E+01  0.339639661210E+00  0.114006685712E+01
  0.647650435555E+01  0.305185410393E+01 -0.102347458652E+01
  0.647650435555E+01  0.305185410393E+01  0.102347458652E+01
  0.677744762352E+01  0.583337266991E+01 -0.604280572342E+00
  0.677744762352E+01  0.583337266991E+01  0.604280572342E+00
  0.684844294097E+01  0.735365004281E+00 -0.114006640392E+01
  0.684844294097E+01  0.735365004281E+00  0.114006640392E+01
  0.701105922061E+01  0.701103836697E+01 -0.149294341255E-21
  0.701248623121E+01  0.234375857127E+01 -0.111145163580E+01
  0.701248623121E+01  0.234375857127E+01  0.111145163580E+01
  0.715872320950E+01  0.701104035556E+01 -0.234912358162E+00
  0.715872320950E+01  0.701104035556E+01  0.234912358162E+00
  0.718313593776E+01  0.478677229970E+01 -0.902046324878E+00
  0.718313593776E+01  0.478677229970E+01  0.902046324878E+00
  0.728745235124E+01  0.386280094467E+01 -0.102347387693E+01
  0.728745235124E+01  0.386280094467E+01  0.102347387693E+01
  0.730835952869E+01  0.119528064618E+01 -0.114006598452E+01
  0.730835952869E+01  0.119528064618E+01  0.114006598452E+01
  0.740980286412E+01  0.583337359616E+01 -0.760506118674E+00
  0.740980286412E+01  0.583337359616E+01  0.760506118674E+00
  0.748452186274E+01  0.701104259801E+01 -0.436281879461E+00
  0.748452186274E+01  0.701104259801E+01  0.436281879461E+00
  0.771254505256E+01  0.000000000000E+00 -0.108924206628E+01
  0.771254505256E+01  0.000000000000E+00  0.108924206628E+01
  0.772058373250E+01  0.305185479366E+01 -0.111145091404E+01
  0.772058373250E+01  0.305185479366E+01  0.111145091404E+01
  0.784131993909E+01  0.172824035030E+01 -0.114006535249E+01
  0.784131993909E+01  0.172824035030E+01  0.114006535249E+01
  0.795511991424E+01  0.701104419785E+01 -0.604279541528E+00
  0.795511991424E+01  0.701104419785E+01  0.604279541528E+00
  0.805218527188E+01  0.339640314685E+00 -0.108924208871E+01
  0.805218527188E+01  0.339640314685E+00  0.108924208871E+01
  0.821142554516E+01  0.478677296405E+01 -0.102347294427E+01
  0.821142554516E+01  0.478677296405E+01  0.102347294427E+01
[...]
POINT_DATA                1848
SCALARS phi float 1
LOOKUP_TABLE default
 -0.550159187305E-05
 -0.101936349416E+00
 -0.188362637096E+00
 -0.333847590570E+00
 -0.385133332437E+00
 -0.545644778782E+00
 -0.435779523701E+00
 -0.522206190200E+00
 -0.722820449673E+00
 -0.718976995856E+00
 -0.879488661919E+00
 -0.824752375245E+00
 -0.911178921154E+00
 -0.816797241575E+00
 -0.103911571720E+01
 -0.117488828594E+01
 -0.110794988141E+01
 -0.126846138600E+01
 -0.115064098339E+01
 -0.137295959761E+01
 -0.127682016798E+01
 -0.136324657921E+01
 -0.140962321691E+01
 -0.168941749831E+01
 -0.156001758200E+01
 -0.172052889793E+01
 -0.153961380706E+01
 -0.176193224114E+01
 -0.169875378124E+01
 -0.180068573302E+01
 -0.188711198838E+01
 -0.174346704830E+01
 -0.202326144180E+01
 -0.199168154290E+01
 -0.221399978872E+01
 -0.208388291963E+01
 -0.224439402838E+01
 -0.213243993576E+01
 -0.241223416461E+01
 -0.230376984988E+01
 -0.218953010580E+01
 -0.252139701991E+01
 -0.240570163335E+01
 -0.249212771033E+01
 -0.251554702869E+01
 -0.273786505361E+01
 -0.252337417332E+01
 -0.285524120777E+01
 -0.258450774017E+01
 -0.286430177327E+01
 -0.268889904798E+01
 -0.284940991817E+01
 -0.299978341444E+01
 -0.291234714436E+01
 -0.324421401176E+01
 -0.310171537783E+01
 -0.318814125308E+01
 -0.312056306052E+01
 -0.334288082976E+01
 -0.310837317070E+01
 -0.338816697418E+01
 -0.317793462008E+01
 -0.355447467163E+01
 -0.338491242087E+01
 -0.354542301988E+01
 -0.336441491020E+01
 -0.369628157901E+01
 -0.351177870838E+01
 -0.388831886677E+01
 -0.379689261836E+01
 -0.371338912928E+01
 -0.399318268891E+01
 -0.381657656059E+01
 -0.403889403795E+01
 -0.389882452193E+01
 -0.398525017741E+01
 -0.388828076553E+01
 -0.422014720137E+01
 -0.390075188556E+01
 -0.427729187630E+01
 -0.418202141125E+01
 -0.434253171720E+01
 -0.435281985334E+01
 -0.472935964480E+01
 -0.440940278323E+01
 -0.468919606132E+01
 -0.438459961038E+01
 -0.479350636922E+01
 -0.449329690892E+01
 -0.482516309694E+01
 -0.470509834663E+01
 -0.461368542764E+01
 -0.483600259852E+01
 -0.480703018599E+01
 -0.489345560445E+01
 -0.471844397527E+01
 -0.512735081746E+01
 -0.487668564977E+01
 -0.525322525127E+01
 -0.509022737979E+01
 -0.525073736086E+01
 -0.510741689027E+01
 -0.551632356495E+01
 -0.520651204223E+01
 -0.548630500069E+01
 -0.518931026218E+01
 -0.552117618589E+01
 -0.552189126255E+01
 -0.574420809159E+01
 -0.548170176232E+01
 -0.585824109300E+01
 -0.573384161792E+01
 -0.555948527282E+01
 -0.596839179227E+01
 -0.583577339274E+01
 -0.592219855342E+01
 -0.579904214536E+01
 -0.621847577260E+01
 -0.598641944904E+01
 -0.631828506956E+01
 -0.611897040478E+01
 -0.627948004291E+01
 -0.611471778247E+01
 -0.639451040629E+01
 -0.608335105461E+01
 -0.649225734046E+01
 -0.613288654410E+01
 -0.655232022042E+01
 -0.617771553748E+01
 -0.655425460250E+01
 -0.655063461874E+01
 -0.677295107360E+01
 -0.652185989853E+01
 -0.694129340811E+01
 -0.689141794292E+01
 -0.668836757253E+01
 -0.709727363163E+01
 -0.699334965184E+01
 -0.707977454296E+01
 -0.689462559119E+01
 -0.722649087074E+01
 -0.697482511930E+01
 -0.735136392325E+01
 -0.697392824741E+01
 -0.739336160269E+01
 -0.714346103769E+01
 -0.742325329305E+01
 -0.727654646940E+01
 -0.743705575135E+01
 -0.738056561484E+01
 -0.778130071331E+01
 -0.738438176997E+01
 -0.779328756352E+01
 -0.749779399074E+01
 -0.791722711350E+01
 -0.770821053262E+01
 -0.793052660824E+01
 -0.771440998827E+01
 -0.811514509500E+01
 -0.788303120483E+01
 -0.825956966566E+01
 -0.792336970101E+01
 -0.825523462686E+01
 -0.818427989804E+01
 -0.810338425592E+01
 -0.850411919717E+01
 -0.810281093378E+01
 -0.852224383098E+01
 -0.828621154175E+01
 -0.837263615667E+01
 -0.818149083158E+01
 -0.859039636407E+01
 -0.830103731410E+01
 -0.858082919464E+01
 -0.856940909800E+01
 -0.872991800677E+01
 -0.855545213023E+01
 -0.895618687480E+01
 -0.879882508228E+01
 -0.921825771524E+01
 -0.891177571141E+01
 -0.928831383785E+01
 -0.900107253641E+01
 -0.922338821379E+01
 -0.905435607911E+01
 -0.941517075612E+01
 -0.908094589045E+01
 -0.941281045549E+01
 -0.907931828859E+01
 -0.948005284620E+01
 -0.908969777620E+01
 -0.949860300924E+01
 -0.938820109439E+01
 -0.974901491776E+01
 -0.961626470727E+01
 -0.959390014553E+01
 -0.987369163126E+01
 -0.971819628879E+01
 -0.980462062787E+01
 -0.959593502694E+01
 -0.100153674002E+02
 -0.968433519567E+01
 -0.100850695296E+02
 -0.977717438630E+01
 -0.101379881218E+02
 -0.100013927034E+02
 -0.101619012427E+02
 -0.100693518363E+02
 -0.104458895988E+02
 -0.101184422219E+02
 -0.105273471201E+02
 -0.102292431548E+02
 -0.105900567799E+02
 -0.103738086211E+02
 -0.107056728267E+02
 -0.104330569153E+02
 -0.106553722082E+02
 -0.103803502411E+02
 -0.107810843130E+02
 -0.105041419120E+02
 -0.109235739872E+02
 -0.107320436415E+02
 -0.110397260871E+02
 -0.107531092759E+02
 -0.111139227867E+02
 -0.110258844133E+02
 -0.113056755174E+02
 -0.111877852661E+02
 -0.110658883588E+02
 -0.113735708753E+02
 -0.112897177311E+02
 -0.113761417979E+02
 -0.111774611002E+02
 -0.115781948709E+02
 -0.112760192196E+02
 -0.116849237533E+02
 -0.113581270785E+02
 -0.117189404451E+02
 -0.113622144889E+02
 -0.117387519104E+02
 -0.114548625644E+02
 -0.117625450625E+02
 -0.115729139436E+02
 -0.117334221184E+02
 -0.115328872306E+02
 -0.119523189724E+02
 -0.118057927979E+02
 -0.121376566348E+02
 -0.119069313066E+02
 -0.122146137701E+02
 -0.120045779936E+02
 -0.122268929074E+02
 -0.120541420669E+02
 -0.124149552774E+02
 -0.120856679360E+02
 -0.124864014110E+02
 -0.123261451361E+02
 -0.125755981002E+02
 -0.124307983364E+02
 -0.127384807660E+02
 -0.125974053707E+02
 -0.128771961206E+02
 -0.125688827424E+02
 -0.129777869341E+02
 -0.126599898606E+02
 -0.129094429414E+02
 -0.128950853781E+02
 -0.126904641379E+02
 -0.131098955603E+02
 -0.127942004614E+02
 -0.131707375323E+02
 -0.128512528658E+02
 -0.132120658822E+02
 -0.129970168593E+02
 -0.130834406734E+02
 -0.130489640653E+02
 -0.132984171246E+02
 -0.130358161191E+02
 -0.133434984657E+02
 -0.131144132012E+02
 -0.135151463455E+02
 -0.132802138072E+02
 -0.134407216590E+02
 -0.133773146028E+02
 -0.137091780983E+02
 -0.135010328174E+02
 -0.137504858156E+02
 -0.137118777019E+02
 -0.139341922800E+02
 -0.137662750936E+02
 -0.139599938077E+02
 -0.137318310754E+02
 -0.140395133484E+02
 -0.137594605878E+02
 -0.141202733907E+02
 -0.140248998571E+02
 -0.142743527931E+02
 -0.139833285268E+02
 -0.144027596083E+02
 -0.141001198222E+02
 -0.142938386755E+02
 -0.140008686249E+02
 -0.144097725086E+02
 -0.143047049737E+02
 -0.145844953914E+02
 -0.142719910113E+02
 -0.146727237949E+02
 -0.143657221991E+02
 -0.147422589246E+02
 -0.144890940384E+02
 -0.146828128424E+02
 -0.145289427896E+02
 -0.148366249252E+02
 -0.147296346644E+02
 -0.146299185649E+02
 -0.148793714310E+02
 -0.148315670494E+02
 -0.149179906361E+02
 -0.147882057908E+02
 -0.151490183595E+02
 -0.149411637178E+02
 -0.151348824741E+02
 -0.150096229514E+02
 -0.151542166954E+02
 -0.151147638158E+02
 -0.152752713689E+02
 -0.150846150569E+02
 -0.154164782332E+02
 -0.153434676894E+02
 -0.154880615609E+02
 -0.153259335417E+02
 -0.155753862782E+02
 -0.154650307699E+02
 -0.156587494298E+02
 -0.154371504896E+02
 -0.157448324610E+02
 -0.154153143586E+02
 -0.158347450894E+02
 -0.155464275613E+02
 -0.157687418427E+02
 -0.155648553410E+02
 -0.159655877865E+02
 -0.155723902951E+02
 -0.159812938321E+02
 -0.157324419075E+02
 -0.158770357196E+02
 -0.160418938570E+02
 -0.161455475243E+02
 -0.159457854145E+02
 -0.163065977077E+02
 -0.160700494910E+02
 -0.162637680419E+02
 -0.161230461915E+02
 -0.163724987752E+02
 -0.161845125381E+02
 -0.163291062659E+02
 -0.160730235045E+02
 -0.164495599507E+02
 -0.161392565995E+02
 -0.164190467475E+02
 -0.163757376575E+02
 -0.164793914423E+02
 -0.164658975458E+02
 -0.167735793225E+02
 -0.166778014142E+02
 -0.167083786567E+02
 -0.168529722677E+02
 -0.167647137594E+02
 -0.168683674574E+02
 -0.167797337766E+02
 -0.168661571785E+02
 -0.167660654080E+02
 -0.169597838071E+02
 -0.168715010816E+02
 -0.169423224319E+02
 -0.169191656654E+02
 -0.172510285857E+02
 -0.170629303750E+02
 -0.172234377031E+02
 -0.170312538890E+02
 -0.172807062901E+02
 -0.169868387473E+02
 -0.174062691759E+02
 -0.169968429654E+02
 -0.173975751067E+02
 -0.172053467706E+02
 -0.172761681901E+02
 -0.172167825255E+02
 -0.173204361054E+02
 -0.173133973884E+02
 -0.174579908526E+02
 -0.172386496967E+02
 -0.175994617012E+02
 -0.172796924514E+02
 -0.176885957515E+02
 -0.175209904227E+02
 -0.175662465030E+02
 -0.174945958633E+02
 -0.177169099274E+02
 -0.175943210057E+02
 -0.176651423083E+02
 -0.175631780722E+02
 -0.177568962693E+02
 -0.176234762110E+02
 -0.179311577417E+02
 -0.177406505252E+02
 -0.178443039581E+02
 -0.178548361245E+02
 -0.179000922191E+02
 -0.180191379647E+02
 -0.180448401434E+02
 -0.180094151920E+02
 -0.181540084602E+02
 -0.180463916535E+02
 -0.181172128061E+02
 -0.179075740434E+02
 -0.182841102516E+02
 -0.180600000155E+02
 -0.183094521798E+02
 -0.180874238785E+02
 -0.183672138163E+02
 -0.182438122414E+02
 -0.182890681873E+02
 -0.183529836790E+02
 -0.183786858174E+02
 -0.183456692701E+02
 -0.184493225084E+02
 -0.183952169746E+02
 -0.184061877328E+02
 -0.184713857845E+02
 -0.186651037462E+02
 -0.185702596642E+02
 -0.186410806267E+02
 -0.186757676800E+02
 -0.186958810249E+02
 -0.187411367797E+02
 -0.187208769595E+02
 -0.187290645727E+02
 -0.187400352502E+02
 -0.187419579291E+02
 -0.187676598855E+02
 -0.185683663791E+02
 -0.189690981769E+02
 -0.186706372882E+02
 -0.190314490011E+02
 -0.188228074362E+02
 -0.189092307070E+02
 -0.188065259886E+02
 -0.189511190169E+02
 -0.186941408350E+02
 -0.191135710274E+02
 -0.190096142181E+02
 -0.188673328628E+02
 -0.191991956095E+02
 -0.189163423477E+02
 -0.192240236100E+02
 -0.190416852130E+02
 -0.191453382034E+02
 -0.191180388281E+02
 -0.191290093012E+02
 -0.191060057725E+02
 -0.192665129430E+02
 -0.191940285950E+02
 -0.192197303291E+02
 -0.191752784233E+02
 -0.192460991401E+02
 -0.192197490476E+02
 -0.192650045685E+02
 -0.191142448061E+02
 -0.195231478667E+02
 -0.192175805617E+02
 -0.194670324379E+02
 -0.193985880022E+02
 -0.195701094984E+02
 -0.195810797311E+02
 -0.195001337998E+02
 -0.196938514712E+02
 -0.195376692762E+02
 -0.197599831976E+02
 -0.197178966246E+02
 -0.197435980971E+02
 -0.197147355991E+02
 -0.198593283204E+02
 -0.198247678139E+02
 -0.198700230566E+02
 -0.198506581253E+02
 -0.198387979040E+02
 -0.199424505915E+02
 -0.198712943775E+02
 -0.199421148022E+02
 -0.198557430428E+02
 -0.202322791178E+02
 -0.200939775329E+02
 -0.201049474865E+02
 -0.201304990846E+02
 -0.204102889118E+02
 -0.203229153982E+02
 -0.203486165667E+02
 -0.203745255323E+02
 -0.202421625266E+02
 -0.206029739376E+02
 -0.202756702845E+02
 -0.206764018484E+02
 -0.203483299195E+02
 -0.206560109035E+02
 -0.205207856533E+02
 -0.205660405680E+02
 -0.205104467033E+02
 -0.207598982703E+02
 -0.206684070762E+02
 -0.207392271637E+02
 -0.206989963105E+02
 -0.207099659466E+02
 -0.205286931266E+02
 -0.209481230800E+02
 -0.206577143593E+02
 -0.208514316907E+02
 -0.207470075225E+02
 -0.208506598651E+02
 -0.207434836265E+02
 -0.208880760098E+02
 -0.208355378174E+02
 -0.209795435995E+02
 -0.209374682970E+02
 -0.210238914946E+02
 -0.210189313678E+02
 -0.210446321895E+02
 -0.209104098851E+02
 -0.212422725372E+02
 -0.210624137544E+02
 -0.214713166804E+02
 -0.212206665303E+02
 -0.213811736240E+02
 -0.213178983614E+02
 -0.213631529079E+02
 -0.213950122838E+02
 -0.214059815613E+02
 -0.215766185842E+02
 -0.216474382815E+02
 -0.216755606517E+02
 -0.216523318256E+02
 -0.218746456937E+02
 -0.217757555676E+02
 -0.218794075177E+02
 -0.218160459564E+02
 -0.218417463919E+02
 -0.219010641969E+02
 -0.220456561971E+02
 -0.219505805129E+02
 -0.221442974868E+02
 -0.219424361643E+02
 -0.221918873930E+02
 -0.219198570136E+02
 -0.222275377046E+02
 -0.218988181279E+02
 -0.222753541494E+02
 -0.219494664097E+02
 -0.223102775704E+02
 -0.221921268767E+02
 -0.222030957561E+02
 -0.222261098751E+02
 -0.222713640109E+02
 -0.221102243985E+02
 -0.225109557256E+02
 -0.222451597066E+02
 -0.225249494942E+02
 -0.224726724895E+02
 -0.226053666375E+02
 -0.226761859135E+02
 -0.224768620203E+02
 -0.228962918396E+02
 -0.227242556019E+02
 -0.227499556085E+02
 -0.229333380239E+02
 -0.230369895529E+02
 -0.229947568451E+02
 -0.231003365246E+02
 -0.231113049679E+02
 -0.230966892148E+02
 -0.231831124040E+02
 -0.230250704410E+02
 -0.233569331151E+02
 -0.231939322403E+02
 -0.233385238342E+02
 -0.232548579388E+02
 -0.233001116255E+02
 -0.231054906516E+02
 -0.235143935667E+02
 -0.233808830515E+02
 -0.233798873832E+02
 -0.235403944906E+02
 -0.233825718594E+02
 -0.235762884509E+02
 -0.235139632607E+02
 -0.237634141611E+02
 -0.237530036689E+02
 -0.237787032160E+02
 -0.236271608895E+02
 -0.239348413149E+02
 -0.237629472316E+02
 -0.238337660516E+02
 -0.238115526251E+02
 -0.240338665405E+02
 -0.237840204973E+02
 -0.241448314138E+02
 -0.241290864709E+02
 -0.241400544439E+02
 -0.240134823942E+02
 -0.243900184578E+02
 -0.240583951216E+02
 -0.244591263162E+02
 -0.242262060827E+02
 -0.243298571619E+02
 -0.244096300907E+02
 -0.244124385400E+02
 -0.244576917514E+02
 -0.244043804628E+02
 -0.246841703372E+02
 -0.246259236007E+02
 -0.247705147685E+02
 -0.245199407487E+02
 -0.249393705573E+02
 -0.249105861520E+02
 -0.249362852070E+02
 -0.249540989656E+02
 -0.251478151890E+02
 -0.250558153023E+02
 -0.251266336416E+02
 -0.251691090415E+02
 -0.252866670821E+02
 -0.252976345557E+02
 -0.252710414364E+02
 -0.253574646859E+02
 -0.252212690243E+02
 -0.254707196047E+02
 -0.251842930440E+02
 -0.255161558247E+02
 -0.252201548893E+02
 -0.256290578457E+02
 -0.255672114862E+02
 -0.254617168243E+02
 -0.257693970336E+02
 -0.255542377000E+02
 -0.257147449280E+02
 -0.256581974576E+02
 -0.257618480718E+02
 -0.257053084920E+02
 -0.257505612059E+02
 -0.257321930767E+02
 -0.260930038419E+02
 -0.259859048001E+02
 -0.262082188689E+02
 -0.262034561095E+02
 -0.262291546541E+02
 -0.261974507253E+02
 -0.263420414750E+02
 -0.261014738357E+02
 -0.265022049771E+02
 -0.261727049607E+02
 -0.265492411737E+02
 -0.264878066856E+02
 -0.265586245377E+02
 -0.265795370436E+02
 -0.265905039980E+02
 -0.265787344797E+02
 -0.268585245734E+02
 -0.266614047381E+02
 -0.268551206057E+02
 -0.266346049342E+02
 -0.270540348280E+02
 -0.268600803189E+02
 -0.271372998842E+02
 -0.271825520905E+02
 -0.270558249720E+02
 -0.273052752843E+02
 -0.272297245958E+02
 -0.273333747568E+02
 -0.273283276321E+02
 -0.274302619339E+02
 -0.275166853123E+02
 -0.273586451752E+02
 -0.276905081971E+02
 -0.274098894000E+02
 -0.277175694426E+02
 -0.273793774193E+02
 -0.277882805685E+02
 -0.276354475071E+02
 -0.276611455319E+02
 -0.277134582130E+02
 -0.278739656465E+02
 -0.277752736557E+02
 -0.281360843389E+02
 -0.279047583902E+02
 -0.280493487378E+02
 -0.280115284450E+02
 -0.280224948716E+02
 -0.280593357093E+02
 -0.281301530829E+02
 -0.281451253228E+02
 -0.283674396513E+02
 -0.282920705797E+02
 -0.282161398925E+02
 -0.286168710763E+02
 -0.283470570809E+02
 -0.287235935569E+02
 -0.284959625803E+02
 -0.286896781251E+02
 -0.287088289165E+02
 -0.287540806253E+02
 -0.287379550018E+02
 -0.290177454032E+02
 -0.289370322682E+02
 -0.290406820060E+02
 -0.287938293452E+02
 -0.292132593881E+02
 -0.290039994364E+02
 -0.292534495322E+02
 -0.292069765458E+02
 -0.292326740594E+02
 -0.294429876397E+02
 -0.295449201021E+02
 -0.296313436743E+02
 -0.295830593632E+02
 -0.295940252687E+02
 -0.294529718533E+02
 -0.297606517992E+02
 -0.295178675673E+02
 -0.298497309429E+02
 -0.295537314143E+02
 -0.299626348265E+02
 -0.297666452722E+02
 -0.298374621883E+02
 -0.297393162440E+02
 -0.298839062369E+02
 -0.298636003785E+02
 -0.298281183096E+02
 -0.299886260391E+02
 -0.298899397011E+02
 -0.302507504115E+02
 -0.302597854588E+02
 -0.304821001474E+02
 -0.304161384878E+02
 -0.304613897214E+02
 -0.304441370533E+02
 -0.306378523517E+02
 -0.303753642686E+02
 -0.307760956459E+02
 -0.305062794765E+02
 -0.308828163292E+02
 -0.307715920146E+02
 -0.308752413570E+02
 -0.309142861219E+02
 -0.309399831498E+02
 -0.308526151576E+02
 -0.311324059713E+02
 -0.310470818940E+02
 -0.312965318668E+02
 -0.309681851931E+02
 -0.313876155429E+02
 -0.312903670703E+02
 -0.313013324786E+02
 -0.314860619663E+02
 -0.315709089002E+02
 -0.315879944645E+02
 -0.316744182884E+02
 -0.316012050258E+02
 -0.316720215305E+02
 -0.315676379023E+02
 -0.318753178606E+02
 -0.316874926139E+02
 -0.318320823091E+02
 -0.316325277343E+02
 -0.319643915701E+02
 -0.317129538026E+02
 -0.321218576358E+02
 -0.318711946344E+02
 -0.320317027408E+02
 -0.320491659831E+02
 -0.324099767994E+02
 -0.322506963759E+02
 -0.322959471786E+02
 -0.323028581000E+02
 -0.325251732383E+02
 -0.324872195306E+02
 -0.326809346566E+02
 -0.325497220132E+02
 -0.329504536535E+02
 -0.327488440177E+02
 -0.327745405990E+02
 -0.327197665219E+02
 -0.328234155389E+02
 -0.326209434105E+02
 -0.329974807473E+02
 -0.328956897223E+02
 -0.331754810193E+02
 -0.331249268447E+02
 -0.331358917986E+02
 -0.331617498349E+02
 -0.334111997736E+02
 -0.331274075970E+02
 -0.335468383678E+02
 -0.334054677147E+02
 -0.334342262525E+02
 -0.335361587866E+02
 -0.336225829050E+02
 -0.335493814200E+02
 -0.336201975736E+02
 -0.337305751076E+02
 -0.338751645923E+02
 -0.336756060742E+02
 -0.340074704431E+02
 -0.337268679314E+02
 -0.340345480022E+02
 -0.338193590752E+02
 -0.339798676149E+02
 -0.338276196398E+02
 -0.342365239579E+02
 -0.341988727780E+02
 -0.342441232134E+02
 -0.342510263731E+02
 -0.344733420358E+02
 -0.342235256104E+02
 -0.345843366633E+02
 -0.346018893667E+02
 -0.347956044112E+02
 -0.346970241767E+02
 -0.347227203759E+02
 -0.347628527771E+02
 -0.348665015577E+02
 -0.346640180194E+02
 -0.350405559359E+02
 -0.347089481797E+02
 -0.351096802405E+02
 -0.348438580592E+02
 -0.351236499171E+02
 -0.350731070089E+02
 -0.350840715703E+02
 -0.352687737764E+02
 -0.353536433115E+02
 -0.353707063418E+02
 -0.354571307917E+02
 -0.353209798834E+02
 -0.355704298894E+02
 -0.352420734426E+02
 -0.356615047421E+02
 -0.355924676898E+02
 -0.356632835769E+02
 -0.356539067708E+02
 -0.358144157955E+02
 -0.356237707102E+02
 -0.359556356692E+02
 -0.358452449601E+02
 -0.359898343271E+02
 -0.359012238231E+02
 -0.362089041129E+02
 -0.358706942676E+02
 -0.362795992104E+02
 -0.360855741794E+02
 -0.363078904017E+02
 -0.362419590581E+02
 -0.362872092063E+02
 -0.363827518158E+02
 -0.367435632160E+02
 -0.367401104628E+02
 -0.367658063627E+02
 -0.366121864448E+02
 -0.369887249768E+02
 -0.366784059300E+02
 -0.369581984084E+02
 -0.367611194363E+02
 -0.369548345025E+02
 -0.368775226465E+02
 -0.369811712740E+02
 -0.369760710269E+02
 -0.368236103230E+02
 -0.372243428677E+02
 -0.370780073696E+02
 -0.371644321710E+02
 -0.371161933010E+02
 -0.371271575511E+02
 -0.373967289670E+02
 -0.373612042016E+02
 -0.375217137467E+02
 -0.372851518855E+02
 -0.377045837656E+02
 -0.374953395468E+02
 -0.377447897277E+02
 -0.374583223776E+02
 -0.377901880091E+02
 -0.377071375680E+02
 -0.377779532839E+02
 -0.377928717439E+02
 -0.380151885430E+02
 -0.378188627222E+02
 -0.382277683257E+02
 -0.380044787903E+02
 -0.381490681554E+02
 -0.380604537984E+02
 -0.383681344138E+02
 -0.383566326959E+02
 -0.384018826526E+02
 -0.383857035669E+02
 -0.386654966843E+02
 -0.385475914475E+02
 -0.384467381709E+02
 -0.388232773792E+02
 -0.384974177449E+02
 -0.388582295760E+02
 -0.386495240640E+02
 -0.387359492252E+02
 -0.388547841078E+02
 -0.388804798020E+02
 -0.389327248149E+02
 -0.390932348779E+02
 -0.389354828712E+02
 -0.391291980685E+02
 -0.388666925517E+02
 -0.392674256757E+02
 -0.390367564933E+02
 -0.391404050849E+02
 -0.392308669507E+02
 -0.392418309858E+02
 -0.391656200789E+02
 -0.394974863803E+02
 -0.392333203946E+02
 -0.396527529351E+02
 -0.393643924753E+02
 -0.395867098946E+02
 -0.395114021936E+02
 -0.396545695466E+02
 -0.399040200103E+02
 -0.396534145073E+02
 -0.400623207888E+02
 -0.398663714289E+02
 -0.399371870806E+02
 -0.399795742204E+02
 -0.399572243862E+02
 -0.402370181647E+02
 -0.400815068560E+02
 -0.401679323753E+02
 -0.401788384920E+02
 -0.403234279554E+02
 -0.401751197431E+02
 -0.404828007840E+02
 -0.401540359144E+02
 -0.405305758405E+02
 -0.403647077755E+02
 -0.405252183614E+02