# vtk DataFile Version 3.0
MachLine results file. Generated by MachLine, USU AeroLab (c) 2022.
ASCII
DATASET POLYDATA
POINTS                  20 float
  0.482439842224E+02  0.292438049316E+02  0.000000000000E+00
  0.983098597623E+04  0.292438049316E+02  0.183079040110E+04
  0.387563171387E+02  0.197561950684E+02  0.000000000000E+00
  0.983066493161E+04  0.197561950684E+02  0.183250588787E+04
  0.566182289124E+02  0.376179962158E+02  0.000000000000E+00
  0.983126934475E+04  0.376179962158E+02  0.182927623478E+04
  0.660765380859E+02  0.470762481689E+02  0.000000000000E+00
  0.983158939596E+04  0.470762481689E+02  0.182756605629E+04
  0.625299339294E+02  0.435296669006E+02  0.000000000000E+00
  0.983146938561E+04  0.435296669006E+02  0.182820732589E+04
  0.303820724487E+02  0.113820018768E+02  0.000000000000E+00
  0.983038156308E+04  0.113820018768E+02  0.183402005418E+04
  0.680002975464E+02  0.490000000000E+02  0.000000000000E+00
  0.983165449232E+04  0.490000000000E+02  0.182721821694E+04
  0.244703655243E+02  0.547033166885E+01  0.000000000000E+00
  0.983018152216E+04  0.547033166885E+01  0.183508896342E+04
  0.209237651825E+02  0.192375373840E+01  0.000000000000E+00
  0.983006151194E+04  0.192375373840E+01  0.183573023233E+04
  0.190000000000E+02  0.000000000000E+00  0.000000000000E+00
  0.982999641538E+04  0.000000000000E+00  0.183607807271E+04
POLYGONS                  18                  72
3                  16                  17                  19
3                  16                  19                  18
3                  14                  15                  17
3                  14                  17                  16
3                  10                  11                  15
3                  10                  15                  14
3                   2                   3                  11
3                   2                  11                  10
3                   0                   1                   3
3                   0                   3                   2
3                   4                   5                   1
3                   4                   1                   0
3                   8                   9                   5
3                   8                   5                   4
3                   6                   7                   9
3                   6                   9                   8
3                  12                  13                   7
3                  12                   7                   6
CELL_DATA                  18
NORMALS normals float
  0.180915855364E+00 -0.180916931603E+00 -0.966715323732E+00
  0.180915855364E+00 -0.180916931603E+00 -0.966715323732E+00
  0.180915853171E+00 -0.180916996405E+00 -0.966715312015E+00
  0.180915853171E+00 -0.180916996405E+00 -0.966715312015E+00
  0.180915853812E+00 -0.180916977452E+00 -0.966715315441E+00
  0.180915853812E+00 -0.180916977452E+00 -0.966715315441E+00
  0.180915854174E+00 -0.180916966745E+00 -0.966715317378E+00
  0.180915854174E+00 -0.180916966744E+00 -0.966715317378E+00
  0.180915854877E+00 -0.180916945994E+00 -0.966715321130E+00
  0.180915854877E+00 -0.180916945994E+00 -0.966715321130E+00
  0.180915852826E+00 -0.180917006603E+00 -0.966715310170E+00
  0.180915852826E+00 -0.180917006603E+00 -0.966715310170E+00
  0.180915856200E+00 -0.180916906874E+00 -0.966715328203E+00
  0.180915856200E+00 -0.180916906874E+00 -0.966715328203E+00
  0.180915852375E+00 -0.180917019932E+00 -0.966715307760E+00
  0.180915852375E+00 -0.180917019932E+00 -0.966715307760E+00
  0.180915867106E+00 -0.180916584599E+00 -0.966715386474E+00
  0.180915867106E+00 -0.180916584599E+00 -0.966715386474E+00
POINT_DATA                  20
SCALARS mu float 1
LOOKUP_TABLE default
 -0.571671445328E+01
 -0.571671445328E+01
 -0.587387105870E+01
 -0.587387105870E+01
 -0.504981269640E+01
 -0.504981269640E+01
 -0.206232049718E+01
 -0.206232049718E+01
 -0.378876875937E+01
 -0.378876875937E+01
 -0.573916924481E+01
 -0.573916924481E+01
  0.000000000000E+00
  0.000000000000E+00
 -0.551598257055E+01
 -0.551598257055E+01
 -0.533583605854E+01
 -0.533583605854E+01
 -0.524748177152E+01
 -0.524748177152E+01
