# vtk DataFile Version 3.0
TriPan results file. Generated by TriPan, USU AeroLab (c) 2021.
ASCII
DATASET POLYDATA
POINTS                 309 float
  0.145119197349E-04  0.000000000000E+00  0.702222613473E-21
  0.420138497918E+00  0.000000000000E+00 -0.412059144854E+00
  0.420138497918E+00  0.000000000000E+00  0.412059144854E+00
  0.928185622804E+00  0.928162653334E+00  0.370492718948E-21
  0.134831331777E+01  0.928166164882E+00 -0.412060979457E+00
  0.134831331777E+01  0.928166164882E+00  0.412060979457E+00
  0.181353533969E+01  0.000000000000E+00 -0.806793832730E+00
  0.181353533969E+01  0.000000000000E+00  0.806793832730E+00
  0.226198092881E+01  0.226195057449E+01  0.000000000000E+00
  0.268210702775E+01  0.226195568206E+01 -0.412057187748E+00
  0.268210702775E+01  0.226195568206E+01  0.412057187748E+00
  0.274171014569E+01  0.928169171587E+00 -0.806795197448E+00
  0.274171014569E+01  0.928169171587E+00  0.806795197448E+00
  0.407550250541E+01  0.226195991982E+01 -0.806790662114E+00
  0.407550250541E+01  0.226195991982E+01  0.806790662114E+00
  0.413895454185E+01  0.413891468269E+01  0.321459894060E-20
  0.455907863241E+01  0.413892179865E+01 -0.412052224685E+00
  0.455907863241E+01  0.413892179865E+01  0.412052224685E+00
  0.479629669423E+01  0.000000000000E+00 -0.111703721841E+01
  0.479629669423E+01  0.000000000000E+00  0.111703721841E+01
  0.572447154981E+01  0.928172726805E+00 -0.111703822838E+01
  0.572447154981E+01  0.928172726805E+00  0.111703822838E+01
  0.595247250490E+01  0.413892764158E+01 -0.806784693282E+00
  0.595247250490E+01  0.413892764158E+01  0.806784693282E+00
  0.670397027304E+01  0.670391909310E+01  0.247656500064E-20
  0.705826345133E+01  0.226196417166E+01 -0.111703365070E+01
  0.705826345133E+01  0.226196417166E+01  0.111703365070E+01
  0.712409204420E+01  0.670392852846E+01 -0.412046181935E+00
  0.712409204420E+01  0.670392852846E+01  0.412046181935E+00
  0.851748444622E+01  0.670393631870E+01 -0.806777388893E+00
  0.851748444622E+01  0.670393631870E+01  0.806777388893E+00
  0.893523301137E+01  0.413893280970E+01 -0.111702761222E+01
  0.893523301137E+01  0.413893280970E+01  0.111702761222E+01
  0.939523493126E+01  0.000000000000E+00 -0.980728882398E+00
  0.939523493126E+01  0.000000000000E+00  0.980728882398E+00
  0.100722457449E+02  0.100721825083E+02  0.305997667590E-20
  0.103234084887E+02  0.928176637223E+00 -0.980721530569E+00
  0.103234084887E+02  0.928176637223E+00  0.980721530569E+00
  0.104923656357E+02  0.100721943008E+02 -0.412039541942E+00
  0.104923656357E+02  0.100721943008E+02  0.412039541942E+00
  0.115002433555E+02  0.670394260715E+01 -0.111702019620E+01
  0.115002433555E+02  0.670394260715E+01  0.111702019620E+01
  0.116572000425E+02  0.226196842976E+01 -0.980718679272E+00
  0.116572000425E+02  0.226196842976E+01  0.980718679272E+00
  0.118857549503E+02  0.100722042248E+02 -0.806769331235E+00
  0.118857549503E+02  0.100722042248E+02  0.806769331235E+00
  0.135341681758E+02  0.413893754088E+01 -0.980714688122E+00
  0.135341681758E+02  0.413893754088E+01  0.980714688122E+00
  0.139772048849E+02  0.000000000000E+00 -0.540117955762E+00
  0.139772048849E+02  0.000000000000E+00  0.540117955762E+00
  0.142710712716E+02  0.142709972098E+02  0.358380602499E-20
  0.146911892142E+02  0.142710109506E+02 -0.412033276042E+00
  0.146911892142E+02  0.142710109506E+02  0.412033276042E+00
  0.148685126249E+02  0.100722117480E+02 -0.111701198563E+01
  0.148685126249E+02  0.100722117480E+02  0.111701198563E+01
  0.149053790802E+02  0.928177214295E+00 -0.540120306661E+00
  0.149053790802E+02  0.928177214295E+00  0.540120306661E+00
  0.160845774727E+02  0.142710228843E+02 -0.806761707262E+00
  0.160845774727E+02  0.142710228843E+02  0.806761707262E+00
  0.160991788626E+02  0.670394794941E+01 -0.980709307171E+00
  0.160991788626E+02  0.670394794941E+01  0.980709307171E+00
  0.162391706293E+02  0.226196901156E+01 -0.540118505948E+00
  0.162391706293E+02  0.226196901156E+01  0.540118505948E+00
  0.169605804506E+02  0.000000000000E+00 -0.218323365097E+00
  0.169605804506E+02  0.000000000000E+00  0.218323365097E+00
  0.178887555873E+02  0.928176256456E+00 -0.218324870062E+00
  0.178887555873E+02  0.928176256456E+00  0.218324870062E+00
  0.181161386856E+02  0.413893819960E+01 -0.540115296205E+00
  0.181161386856E+02  0.413893819960E+01  0.540115296205E+00
  0.184032178921E+02  0.000000000000E+00 -0.636706128239E-01
  0.184032178921E+02  0.000000000000E+00  0.636706128239E-01
  0.190002907528E+02 -0.840944481527E-07 -0.788455474777E-06
  0.190673339798E+02  0.142710315750E+02 -0.111700419411E+01
  0.190673339798E+02  0.142710315750E+02  0.111700419411E+01
  0.191785074010E+02  0.191784261928E+02  0.261974574614E-20
  0.192225469940E+02  0.226196819618E+01 -0.218321837191E+00
  0.192225469940E+02  0.226196819618E+01  0.218321837191E+00
  0.193313927253E+02  0.928175608321E+00 -0.636692985335E-01
  0.193313927253E+02  0.928175608321E+00  0.636692985335E-01
  0.194674474091E+02  0.100722178131E+02 -0.980702613060E+00
  0.194674474091E+02  0.100722178131E+02  0.980702613060E+00
  0.195986242999E+02  0.191784409772E+02 -0.412028700899E+00
  0.195986242999E+02  0.191784409772E+02  0.412028700899E+00
  0.199284648759E+02  0.928183688477E+00 -0.100715878959E-05
  0.206651820729E+02  0.226196769971E+01 -0.636648302229E-01
  0.206651820729E+02  0.226196769971E+01  0.636648302229E-01
  0.206811482308E+02  0.670394879607E+01 -0.540110142948E+00
  0.206811482308E+02  0.670394879607E+01  0.540110142948E+00
  0.209920110930E+02  0.191784543764E+02 -0.806756130456E+00
  0.209920110930E+02  0.191784543764E+02  0.806756130456E+00
  0.210995148431E+02  0.413893759147E+01 -0.218316865234E+00
  0.210995148431E+02  0.413893759147E+01  0.218316865234E+00
  0.212622529717E+02  0.226197893907E+01 -0.139070631409E-05
  0.225421517127E+02  0.413893721166E+01 -0.636587391445E-01
  0.225421517127E+02  0.413893721166E+01  0.636587391445E-01
  0.231392185671E+02  0.413895249540E+01 -0.188590327224E-05
  0.236645241797E+02  0.670394839650E+01 -0.218310037539E+00
  0.236645241797E+02  0.670394839650E+01  0.218310037539E+00
  0.236662670754E+02  0.142710383750E+02 -0.980695478375E+00
  0.236662670754E+02  0.142710383750E+02  0.980695478375E+00
  0.239747667464E+02  0.191784639207E+02 -0.111699848317E+01
  0.239747667464E+02  0.191784639207E+02  0.111699848317E+01
  0.240494184145E+02  0.100722189299E+02 -0.540103376168E+00
  0.240494184145E+02  0.100722189299E+02  0.540103376168E+00
  0.245000413633E+02  0.244999586367E+02  0.000000000000E+00
  0.249201584372E+02  0.244999732461E+02 -0.412027011240E+00
  0.249201584372E+02  0.244999732461E+02  0.412027011240E+00
  0.251071609793E+02  0.670394808665E+01 -0.636512186147E-01
  0.251071609793E+02  0.670394808665E+01  0.636512186147E-01
  0.257042230406E+02  0.670396816347E+01 -0.247617573531E-05
  0.263135446900E+02  0.244999871856E+02 -0.806754065860E+00
  0.263135446900E+02  0.244999871856E+02  0.806754065860E+00
  0.270327922951E+02  0.100722186912E+02 -0.218302122370E+00
  0.270327922951E+02  0.100722186912E+02  0.218302122370E+00
  0.282482359082E+02  0.142710397571E+02 -0.540096384726E+00
  0.282482359082E+02  0.142710397571E+02  0.540096384726E+00
  0.284754290580E+02  0.100722184182E+02 -0.636429141243E-01
  0.284754290580E+02  0.100722184182E+02  0.636429141243E-01
  0.285736992607E+02  0.191784713021E+02 -0.980689568383E+00
  0.285736992607E+02  0.191784713021E+02  0.980689568383E+00
  0.290724860452E+02  0.100722435691E+02 -0.310492037916E-05
  0.292962981203E+02  0.244999970457E+02 -0.111699636567E+01
  0.292962981203E+02  0.244999970457E+02  0.111699636567E+01
  0.298215722923E+02  0.298214941139E+02 -0.252200432150E-20
  0.302416907090E+02  0.298215073806E+02 -0.412028695858E+00
  0.302416907090E+02  0.298215073806E+02  0.412028695858E+00
  0.312316115874E+02  0.142710396272E+02 -0.218294479658E+00
  0.312316115874E+02  0.142710396272E+02  0.218294479658E+00
  0.316350755952E+02  0.298215207793E+02 -0.806756113011E+00
  0.316350755952E+02  0.298215207793E+02  0.806756113011E+00
  0.326742502400E+02  0.142710393718E+02 -0.636350629714E-01
  0.326742502400E+02  0.142710393718E+02  0.636350629714E-01
  0.331556679204E+02  0.191784728572E+02 -0.540091052704E+00
  0.331556679204E+02  0.191784728572E+02  0.540091052704E+00
  0.332713008060E+02  0.142710690365E+02 -0.366946003233E-05
  0.338952322807E+02  0.245000046883E+02 -0.980686650712E+00
  0.338952322807E+02  0.245000046883E+02  0.980686650712E+00
  0.346178312461E+02  0.298215303261E+02 -0.111699846182E+01
  0.346178312461E+02  0.298215303261E+02  0.111699846182E+01
  0.347290001994E+02  0.347289313192E+02 -0.111102197025E-20
  0.351491207386E+02  0.347289424633E+02 -0.412033265542E+00
  0.351491207386E+02  0.347289424633E+02  0.412033265542E+00
  0.361390435369E+02  0.191784727900E+02 -0.218288838176E+00
  0.361390435369E+02  0.191784727900E+02  0.218288838176E+00
  0.365425070906E+02  0.347289543962E+02 -0.806761672327E+00
  0.365425070906E+02  0.347289543962E+02  0.806761672327E+00
  0.375816821825E+02  0.191784725416E+02 -0.636293256172E-01
  0.375816821825E+02  0.191784725416E+02  0.636293256172E-01
  0.381787298283E+02  0.191785051266E+02 -0.404213918334E-05
  0.384772009150E+02  0.245000062688E+02 -0.540089009297E+00
  0.384772009150E+02  0.245000062688E+02  0.540089009297E+00
  0.389278125514E+02  0.389277553808E+02 -0.922149802381E-21
  0.392167655509E+02  0.298215378243E+02 -0.980687720153E+00
  0.392167655509E+02  0.298215378243E+02  0.980687720153E+00
  0.393479354844E+02  0.389277641311E+02 -0.412039525323E+00
  0.393479354844E+02  0.389277641311E+02  0.412039525323E+00
  0.395252635926E+02  0.347289630920E+02 -0.111700415312E+01
  0.395252635926E+02  0.347289630920E+02  0.111700415312E+01
  0.407413276606E+02  0.389277740545E+02 -0.806769279584E+00
  0.407413276606E+02  0.389277740545E+02  0.806769279584E+00
  0.414605765133E+02  0.245000062199E+02 -0.218286729666E+00
[...]
POINT_DATA                 309
SCALARS phi float 1
LOOKUP_TABLE default
 -0.111022302463E-15
  0.222044604925E-15
 -0.155431223448E-14
  0.444089209850E-15
  0.177635683940E-14
  0.555111512313E-15
  0.444089209850E-15
  0.111022302463E-15
  0.222044604925E-15
  0.000000000000E+00
 -0.210942374679E-14
  0.222044604925E-15
  0.111022302463E-15
  0.166533453694E-14
  0.888178419700E-15
 -0.777156117238E-15
  0.000000000000E+00
 -0.333066907388E-15
 -0.111022302463E-15
 -0.555111512313E-15
  0.000000000000E+00
 -0.277555756156E-15
 -0.111022302463E-15
  0.333066907388E-15
 -0.111022302463E-15
  0.555111512313E-15
  0.555111512313E-16
  0.222044604925E-15
  0.777156117238E-15
  0.333066907388E-15
  0.333066907388E-15
  0.111022302463E-15
 -0.166533453694E-15
 -0.166533453694E-15
  0.138777878078E-16
  0.444089209850E-15
 -0.832667268469E-16
 -0.254353829665E-15
  0.888178419700E-15
  0.777156117238E-15
 -0.555111512313E-16
  0.555111512313E-16
 -0.555111512313E-16
 -0.194289029309E-15
 -0.222044604925E-15
  0.166533453694E-15
  0.117961196366E-15
 -0.444089209850E-15
 -0.499600361081E-15
 -0.277555756156E-15
  0.111022302463E-15
  0.444089209850E-15
  0.000000000000E+00
  0.000000000000E+00
  0.166533453694E-15
  0.527355936697E-15
 -0.105471187339E-14
  0.333066907388E-15
 -0.444089209850E-15
 -0.189084858881E-15
  0.471844785466E-15
 -0.832667268469E-15
  0.721644966006E-15
  0.277555756156E-15
 -0.555111512313E-16
  0.555111512313E-16
  0.610622663544E-15
 -0.555111512313E-16
 -0.555111512313E-16
 -0.111022302463E-15
  0.499600361081E-15
  0.105471187339E-14
  0.149880108324E-14
  0.305311331772E-15
 -0.888178419700E-15
  0.111022302463E-15
  0.111022302463E-15
  0.000000000000E+00
 -0.105471187339E-14
 -0.957567358739E-15
 -0.333066907388E-15
  0.777156117238E-15
  0.222044604925E-15
 -0.166533453694E-15
  0.166533453694E-15
 -0.943689570931E-15
  0.105471187339E-14
  0.777156117238E-15
  0.777156117238E-15
 -0.222044604925E-15
 -0.943689570931E-15
 -0.277555756156E-15
 -0.444089209850E-15
 -0.555111512313E-15
 -0.555111512313E-15
  0.222044604925E-15
 -0.444089209850E-15
 -0.555111512313E-16
 -0.693889390391E-17
 -0.111022302463E-15
 -0.610622663544E-15
  0.222044604925E-15
  0.166533453694E-15
  0.721644966006E-15
 -0.888178419700E-15
  0.555111512313E-15
  0.444089209850E-15
 -0.166533453694E-15
  0.943689570931E-15
 -0.333066907388E-15
  0.111022302463E-14
  0.166533453694E-15
 -0.444089209850E-15
 -0.555111512313E-15
 -0.555111512313E-16
 -0.888178419700E-15
 -0.222044604925E-15
  0.277555756156E-15
 -0.166533453694E-15
  0.555111512313E-16
 -0.555111512313E-15
 -0.388578058619E-15
 -0.555111512313E-16
  0.333066907388E-15
  0.333066907388E-15
  0.333066907388E-15
 -0.832667268469E-15
 -0.610622663544E-15
 -0.666133814775E-15
  0.222044604925E-15
  0.943689570931E-15
 -0.610622663544E-15
  0.555111512313E-16
  0.116573417586E-14
  0.111022302463E-15
  0.166533453694E-15
 -0.105471187339E-14
  0.277555756156E-15
  0.693889390391E-16
  0.000000000000E+00
 -0.222044604925E-15
  0.222044604925E-15
 -0.388578058619E-15
 -0.333066907388E-15
 -0.222044604925E-15
  0.499600361081E-15
 -0.999200722163E-15
  0.222044604925E-15
  0.388578058619E-15
  0.111022302463E-15
  0.943689570931E-15
 -0.555111512313E-15
 -0.277555756156E-16
 -0.999200722163E-15
 -0.888178419700E-15
  0.000000000000E+00
 -0.111022302463E-15
 -0.555111512313E-16
  0.111022302463E-15
  0.555111512313E-16
 -0.444089209850E-15
  0.610622663544E-15
 -0.111022302463E-15
  0.777156117238E-15
  0.144328993201E-14
 -0.222044604925E-15
 -0.610622663544E-15
 -0.832667268469E-15
  0.499600361081E-15
  0.832667268469E-16
  0.111022302463E-15
  0.444089209850E-15
 -0.943689570931E-15
  0.555111512313E-16
  0.832667268469E-16
  0.222044604925E-15
  0.333066907388E-15
 -0.111022302463E-14
 -0.610622663544E-15
  0.832667268469E-15
 -0.555111512313E-16
 -0.666133814775E-15
 -0.277555756156E-15
  0.388578058619E-15
  0.222044604925E-15
 -0.253269627493E-15
 -0.122124532709E-14
 -0.444089209850E-15
  0.333066907388E-15
 -0.444089209850E-15
  0.444089209850E-15
  0.000000000000E+00
  0.333066907388E-15
  0.166533453694E-15
  0.333066907388E-15
 -0.444089209850E-15
 -0.555111512313E-16
 -0.499600361081E-15
 -0.943689570931E-15
  0.333066907388E-15
  0.000000000000E+00
 -0.555111512313E-16
  0.388578058619E-15
 -0.138777878078E-15
  0.107552855511E-15
 -0.444089209850E-15
  0.166533453694E-15
 -0.555111512313E-16
  0.444089209850E-15
  0.832667268469E-16
 -0.333066907388E-15
 -0.194289029309E-15
  0.166533453694E-15
  0.555111512313E-16
  0.166533453694E-15
 -0.464905891562E-15
 -0.166533453694E-15
 -0.277555756156E-15
  0.666133814775E-15
 -0.222044604925E-15
  0.666133814775E-15
  0.513478148889E-15
 -0.971445146547E-16
  0.166533453694E-15
  0.111022302463E-15
 -0.111022302463E-15
  0.222044604925E-15
 -0.388578058619E-15
  0.485722573274E-16
  0.555111512313E-16
 -0.249800180541E-15
 -0.777156117238E-15
  0.346944695195E-16
 -0.305311331772E-15
  0.971445146547E-16
  0.166533453694E-15
  0.000000000000E+00
 -0.555111512313E-15
 -0.333066907388E-15
  0.222044604925E-15
  0.888178419700E-15
 -0.111022302463E-15
 -0.222044604925E-15
 -0.277555756156E-15
  0.388578058619E-15
 -0.666133814775E-15
  0.138777878078E-15
  0.222044604925E-15
 -0.721644966006E-15
  0.888178419700E-15
  0.000000000000E+00
 -0.277555756156E-15
 -0.388578058619E-15
 -0.555111512313E-15
  0.277555756156E-15
  0.166533453694E-15
  0.610622663544E-15
 -0.222044604925E-15
  0.832667268469E-15
 -0.777156117238E-15
 -0.499600361081E-15
 -0.111022302463E-15
  0.555111512313E-16
  0.555111512313E-16
  0.000000000000E+00
 -0.166533453694E-15
 -0.555111512313E-16
 -0.166533453694E-15
 -0.111022302463E-15
  0.555111512313E-16
 -0.277555756156E-15
 -0.444089209850E-15
  0.277555756156E-15
 -0.277555756156E-15
  0.555111512313E-16
  0.111022302463E-15
  0.166533453694E-15
 -0.666133814775E-15
 -0.222044604925E-15
 -0.999200722163E-15
 -0.333066907388E-15
 -0.111022302463E-15
  0.388578058619E-15
 -0.555111512313E-16
  0.555111512313E-16
 -0.555111512313E-16
 -0.555111512313E-15
  0.832667268469E-15
 -0.235922392733E-14
 -0.832667268469E-16
 -0.105471187339E-14
  0.305311331772E-15
 -0.832667268469E-16
  0.333066907388E-15
 -0.222044604925E-15
 -0.555111512313E-16
 -0.277555756156E-15
 -0.222044604925E-15
  0.499600361081E-15
  0.388578058619E-15
 -0.166533453694E-15
 -0.222044604925E-15
  0.499600361081E-15
 -0.166533453694E-15
 -0.499600361081E-15
 -0.721644966006E-15
 -0.832667268469E-15
 -0.111022302463E-15
  0.000000000000E+00
SCALARS phi_mu float 1
LOOKUP_TABLE default
  0.669382118290E+00
  0.764511134986E+00
  0.720970482005E+00
  0.804524603465E+00
  0.835875598527E+00
  0.774493341525E+00
  0.808924120303E+00
  0.695358423806E+00
  0.826868145850E+00
  0.846019586764E+00
  0.780031933684E+00
  0.800589603944E+00
  0.671834584053E+00
  0.776394238729E+00
  0.641048778655E+00
  0.810485507739E+00
  0.823059034830E+00
  0.755200465543E+00
  0.669378806237E+00
  0.486190737067E+00
  0.603527144229E+00
  0.413348520775E+00
  0.733029621737E+00
  0.594861799889E+00
  0.771570684741E+00
  0.538503895415E+00
  0.344725872654E+00
  0.780697107654E+00
  0.712148898521E+00
  0.680606276002E+00
  0.541497829298E+00
  0.470477194596E+00
  0.275414559353E+00
  0.265292426262E+00
  0.741447136991E-01
  0.727508822508E+00
  0.187797089660E+00
 -0.162337071177E-02
  0.735425534651E+00
  0.666709853986E+00
  0.407874840970E+00
  0.212762991798E+00
  0.112049304965E+00
 -0.751797754216E-01
  0.632464246784E+00
  0.493219440360E+00
  0.441748909456E-01
 -0.141190304534E+00
 -0.153076439942E+00
 -0.276621854125E+00
  0.691789482967E+00
  0.699707232648E+00
  0.631001901440E+00
  0.360316324515E+00
  0.165533535746E+00
 -0.206200371614E+00
 -0.324292583630E+00
  0.597383236511E+00
  0.458229728994E+00
 -0.717572124915E-02
 -0.191275601222E+00
 -0.252564942744E+00
 -0.367069627582E+00
 -0.350997947087E+00
 -0.406920498005E+00
 -0.371956276267E+00
 -0.423125217044E+00
 -0.286102033118E+00
 -0.398758933825E+00
 -0.402830978602E+00
 -0.420770767175E+00
 -0.399477107734E+00
  0.329282983033E+00
  0.134790793099E+00
  0.667396224228E+00
 -0.380862795717E+00
 -0.430461358779E+00
 -0.392231225557E+00
 -0.407931492711E+00
 -0.406142132779E-01
 -0.224008741469E+00
  0.675584539128E+00
  0.606919907325E+00
 -0.369148000808E+00
 -0.385272015431E+00
 -0.400641555677E+00
 -0.308602106286E+00
 -0.420402685512E+00
  0.574383540958E+00
  0.435331310889E+00
 -0.387842308728E+00
 -0.436833579896E+00
 -0.359526694826E+00
 -0.385323157005E+00
 -0.400552855952E+00
 -0.357877980332E+00
 -0.396151154597E+00
 -0.444867133619E+00
 -0.619456174909E-01
 -0.244985792367E+00
  0.309330210248E+00
  0.115023180493E+00
 -0.324909663488E+00
 -0.436319847020E+00
  0.650515340522E+00
  0.658881307293E+00
  0.590253299698E+00
 -0.389641282927E+00
 -0.404801098912E+00
 -0.360972180910E+00
  0.558344828419E+00
  0.419371811089E+00
 -0.405045208834E+00
 -0.453627057447E+00
 -0.337576380938E+00
 -0.448798698975E+00
 -0.396081056508E+00
 -0.411204075758E+00
 -0.768141541987E-01
 -0.259666463444E+00
 -0.366571647568E+00
  0.294827711617E+00
  0.100647313641E+00
  0.636850102594E+00
  0.645261324759E+00
  0.576668875174E+00
 -0.413736216865E+00
 -0.462248757950E+00
  0.544911789188E+00
  0.406013859649E+00
 -0.403284838910E+00
 -0.418387475550E+00
 -0.348175715616E+00
 -0.459295493650E+00
 -0.373232440122E+00
 -0.889779143126E-01
 -0.271704178126E+00
  0.281819501189E+00
  0.877598596900E-01
  0.623236384860E+00
  0.631554184033E+00
  0.563007696409E+00
 -0.422168499318E+00
 -0.470640610634E+00
  0.530926875126E+00
  0.392128255319E+00
 -0.410822455549E+00
 -0.425912609406E+00
 -0.380425899465E+00
 -0.358252998065E+00
 -0.469298217986E+00
  0.607300076040E+00
 -0.101264544150E+00
 -0.283859756793E+00
  0.615329086703E+00
  0.546856131768E+00
  0.267260643739E+00
  0.733730266698E-01
  0.513781355687E+00
  0.375149020481E+00
 -0.430990064726E+00
 -0.479430662242E+00
  0.587074365505E+00
  0.594474481620E+00
  0.526131164102E+00
 -0.419043305671E+00
 -0.434123774786E+00
 -0.388396271466E+00
  0.248178119543E+00
  0.546103061338E-01
 -0.369509384293E+00
 -0.480466651879E+00
  0.490870528478E+00
  0.352551485198E+00
 -0.116324117396E+00
 -0.298705490211E+00
  0.560779664162E+00
  0.566909931364E+00
  0.498806079619E+00
  0.459055602812E+00
  0.321376454610E+00
  0.526460393857E+00
 -0.441189363979E+00
 -0.489590079862E+00
  0.221010841665E+00
  0.281368359822E-01
  0.530033409687E+00
  0.462401317760E+00
  0.480427276630E+00
 -0.428571542117E+00
 -0.443640098089E+00
 -0.136921528524E+00
 -0.318840841449E+00
  0.478372663588E+00
  0.411867482277E+00
  0.413630343670E+00
  0.277447381892E+00
 -0.383545817526E+00
 -0.494341021453E+00
 -0.397611212070E+00
  0.401095402629E+00
  0.386985223547E+00
  0.326809854868E+00
  0.181591065278E+00
 -0.956223783704E-02
  0.334592409381E+00
  0.294524871420E+00
  0.299259387803E+00
  0.347774200667E+00
  0.216175216946E+00
  0.263283472550E+00
  0.147957112004E+00
  0.192722236918E+00
  0.119329896285E+00
  0.129702216544E+00
 -0.567778122960E-01
  0.138328004292E+00
 -0.453070118601E+00
 -0.501393876990E+00
 -0.164588713209E+00
 -0.345351034166E+00
  0.764731377287E-01
 -0.989046378781E-01
 -0.400239733504E+00
 -0.510659011215E+00
 -0.438913588959E+00
 -0.453959154681E+00
 -0.407223784583E+00
  0.282281008463E-01
 -0.125028069622E+00
 -0.194338270480E+00
 -0.372174262444E+00
 -0.319445314872E-01
 -0.127531102657E+00
 -0.927569902853E-01
 -0.463305937868E+00
 -0.511454248388E+00
 -0.215496990272E+00
 -0.386881867856E+00
 -0.413524856872E+00
 -0.523045915053E+00
 -0.445210810641E+00
 -0.460204570874E+00
 -0.224845357381E+00
 -0.383995113916E+00
 -0.411799995001E+00
 -0.228078389671E+00
 -0.365144513017E+00
 -0.412430091091E+00
 -0.520032574000E+00
 -0.247303474443E+00
 -0.331968199662E+00
 -0.462279254087E+00
 -0.510048448693E+00
 -0.288992638469E+00
 -0.437330875054E+00
 -0.452218240634E+00
 -0.392784057105E+00
 -0.496672397507E+00
 -0.401247655813E+00
 -0.441285158328E+00
 -0.488342274287E+00
 -0.359868972419E+00
 -0.456392122047E+00
 -0.323360979486E+00
 -0.402450856262E+00
 -0.408832706940E+00
 -0.423533700541E+00
 -0.316715168822E+00
 -0.365611821371E+00
 -0.333658817775E+00
 -0.400959919846E+00
 -0.446762211896E+00
 -0.370242885695E+00
 -0.347528588970E+00
 -0.390790780881E+00
 -0.362748608609E+00
 -0.377147546933E+00
 -0.322933281325E+00
 -0.287119671570E+00
 -0.319978867749E+00
 -0.279443614548E+00
 -0.299803408849E+00
 -0.284507527155E+00
 -0.305397897421E+00
 -0.319243554689E+00
 -0.266342642463E+00
 -0.235260858114E+00
 -0.245023971062E+00
 -0.231755986420E+00
 -0.237818994743E+00
 -0.232766826233E+00
 -0.197079044256E+00
 -0.399477427448E+00
 -0.369148147868E+00
 -0.359526887939E+00
 -0.357878237164E+00
 -0.360972516035E+00
 -0.366572067683E+00
 -0.373232937360E+00
 -0.380426447468E+00
 -0.388396828843E+00
 -0.397611733607E+00
 -0.407224234470E+00
 -0.411800355539E+00
 -0.401247928775E+00
 -0.370243085365E+00
 -0.322933425412E+00
 -0.266342747399E+00
SCALARS phi_sigma float 1
LOOKUP_TABLE default
 -0.669382118290E+00
 -0.764511134986E+00
 -0.720970482005E+00
 -0.804524603465E+00
 -0.835875598527E+00
 -0.774493341525E+00
 -0.808924120303E+00
 -0.695358423806E+00
 -0.826868145850E+00
 -0.846019586764E+00
 -0.780031933684E+00
 -0.800589603944E+00
 -0.671834584053E+00
 -0.776394238729E+00
 -0.641048778655E+00
 -0.810485507739E+00
 -0.823059034830E+00
 -0.755200465543E+00
 -0.669378806237E+00
 -0.486190737067E+00
 -0.603527144229E+00
 -0.413348520775E+00
 -0.733029621737E+00
 -0.594861799889E+00
 -0.771570684741E+00
 -0.538503895415E+00
 -0.344725872654E+00
 -0.780697107654E+00
 -0.712148898521E+00
 -0.680606276002E+00
 -0.541497829298E+00
 -0.470477194596E+00
 -0.275414559353E+00
 -0.265292426262E+00
 -0.741447136991E-01
 -0.727508822508E+00
 -0.187797089660E+00
  0.162337071177E-02
 -0.735425534651E+00
 -0.666709853986E+00
 -0.407874840970E+00
 -0.212762991798E+00
 -0.112049304965E+00
  0.751797754216E-01
 -0.632464246784E+00
 -0.493219440360E+00
 -0.441748909456E-01
  0.141190304534E+00
  0.153076439942E+00
  0.276621854125E+00
 -0.691789482967E+00
 -0.699707232648E+00
 -0.631001901440E+00
 -0.360316324515E+00
 -0.165533535746E+00
  0.206200371614E+00
  0.324292583630E+00
 -0.597383236511E+00
 -0.458229728994E+00
  0.717572124915E-02
  0.191275601222E+00
  0.252564942744E+00
  0.367069627582E+00
  0.350997947087E+00
  0.406920498005E+00
  0.371956276267E+00
  0.423125217044E+00
  0.286102033118E+00
  0.398758933825E+00
  0.402830978602E+00
  0.420770767175E+00
  0.399477107734E+00
 -0.329282983033E+00
 -0.134790793099E+00
 -0.667396224228E+00
  0.380862795717E+00
  0.430461358779E+00
  0.392231225557E+00
  0.407931492711E+00
  0.406142132779E-01
  0.224008741469E+00
 -0.675584539128E+00
 -0.606919907325E+00
  0.369148000808E+00
  0.385272015431E+00
  0.400641555677E+00
  0.308602106286E+00
  0.420402685512E+00
 -0.574383540958E+00
 -0.435331310889E+00
  0.387842308728E+00
  0.436833579896E+00
  0.359526694826E+00
  0.385323157005E+00
  0.400552855952E+00
  0.357877980332E+00
  0.396151154597E+00
  0.444867133619E+00
  0.619456174909E-01
  0.244985792367E+00
 -0.309330210248E+00
 -0.115023180493E+00
  0.324909663488E+00
  0.436319847020E+00
 -0.650515340522E+00
 -0.658881307293E+00
 -0.590253299698E+00
  0.389641282927E+00
  0.404801098912E+00
  0.360972180910E+00
 -0.558344828419E+00
 -0.419371811089E+00
  0.405045208834E+00
  0.453627057447E+00
  0.337576380938E+00
  0.448798698975E+00
  0.396081056508E+00
  0.411204075758E+00
  0.768141541987E-01
  0.259666463444E+00
  0.366571647568E+00
 -0.294827711617E+00
 -0.100647313641E+00
 -0.636850102594E+00
 -0.645261324759E+00
 -0.576668875174E+00
  0.413736216865E+00
  0.462248757950E+00
 -0.544911789188E+00
 -0.406013859649E+00
  0.403284838910E+00
  0.418387475550E+00
  0.348175715616E+00
  0.459295493650E+00
  0.373232440122E+00
  0.889779143126E-01
  0.271704178126E+00
 -0.281819501189E+00
 -0.877598596900E-01
 -0.623236384860E+00
 -0.631554184033E+00
 -0.563007696409E+00
  0.422168499318E+00
  0.470640610634E+00
 -0.530926875126E+00
 -0.392128255319E+00
  0.410822455549E+00
  0.425912609406E+00
  0.380425899465E+00
  0.358252998065E+00
  0.469298217986E+00
 -0.607300076040E+00
  0.101264544150E+00
  0.283859756793E+00
 -0.615329086703E+00
 -0.546856131768E+00
 -0.267260643739E+00
 -0.733730266698E-01
 -0.513781355687E+00
 -0.375149020481E+00
  0.430990064726E+00
  0.479430662242E+00
 -0.587074365505E+00
 -0.594474481620E+00
 -0.526131164102E+00
  0.419043305671E+00
  0.434123774786E+00
  0.388396271466E+00
 -0.248178119543E+00
 -0.546103061338E-01
  0.369509384293E+00
  0.480466651879E+00
 -0.490870528478E+00
 -0.352551485198E+00
  0.116324117396E+00
  0.298705490211E+00
 -0.560779664162E+00
 -0.566909931364E+00
 -0.498806079619E+00
 -0.459055602812E+00
 -0.321376454610E+00
 -0.526460393857E+00
  0.441189363979E+00
  0.489590079862E+00
 -0.221010841665E+00
 -0.281368359822E-01
 -0.530033409687E+00
 -0.462401317760E+00
 -0.480427276630E+00
  0.428571542117E+00
  0.443640098089E+00
  0.136921528524E+00
  0.318840841449E+00
 -0.478372663588E+00
 -0.411867482277E+00
 -0.413630343670E+00
 -0.277447381892E+00
  0.383545817526E+00
  0.494341021453E+00
  0.397611212070E+00
 -0.401095402629E+00
 -0.386985223547E+00
 -0.326809854868E+00
 -0.181591065278E+00
  0.956223783704E-02
 -0.334592409381E+00
 -0.294524871420E+00
 -0.299259387803E+00
 -0.347774200667E+00
 -0.216175216946E+00
 -0.263283472550E+00
 -0.147957112004E+00
 -0.192722236918E+00
 -0.119329896285E+00
 -0.129702216544E+00
  0.567778122960E-01
 -0.138328004292E+00
  0.453070118601E+00
  0.501393876990E+00
  0.164588713209E+00
  0.345351034166E+00
 -0.764731377287E-01
  0.989046378781E-01
  0.400239733504E+00
  0.510659011215E+00
  0.438913588959E+00
  0.453959154681E+00
  0.407223784583E+00
 -0.282281008463E-01
  0.125028069622E+00
  0.194338270480E+00
  0.372174262444E+00
  0.319445314872E-01
  0.127531102657E+00
  0.927569902853E-01
  0.463305937868E+00
  0.511454248388E+00
  0.215496990272E+00
  0.386881867856E+00
  0.413524856872E+00
  0.523045915053E+00
  0.445210810641E+00
  0.460204570874E+00
  0.224845357381E+00
  0.383995113916E+00
  0.411799995001E+00
  0.228078389671E+00
  0.365144513017E+00
  0.412430091091E+00
  0.520032574000E+00
  0.247303474443E+00
  0.331968199662E+00
  0.462279254087E+00
  0.510048448693E+00
  0.288992638469E+00
  0.437330875054E+00
  0.452218240634E+00
  0.392784057105E+00
  0.496672397507E+00
  0.401247655813E+00
  0.441285158328E+00
  0.488342274287E+00
  0.359868972419E+00
  0.456392122047E+00
  0.323360979486E+00
  0.402450856262E+00
  0.408832706940E+00
  0.423533700541E+00
  0.316715168822E+00
  0.365611821371E+00
  0.333658817775E+00
  0.400959919846E+00
  0.446762211896E+00
  0.370242885695E+00
  0.347528588970E+00
  0.390790780881E+00
  0.362748608609E+00
  0.377147546933E+00
  0.322933281325E+00
  0.287119671570E+00
  0.319978867749E+00
  0.279443614548E+00
  0.299803408849E+00
  0.284507527155E+00
  0.305397897421E+00
  0.319243554689E+00
  0.266342642463E+00
  0.235260858114E+00
  0.245023971062E+00
  0.231755986420E+00
  0.237818994743E+00
  0.232766826233E+00
  0.197079044256E+00
  0.399477427448E+00
  0.369148147868E+00
  0.359526887939E+00
  0.357878237164E+00
  0.360972516035E+00
  0.366572067683E+00
  0.373232937360E+00
  0.380426447468E+00
  0.388396828843E+00
  0.397611733607E+00
  0.407224234470E+00
  0.411800355539E+00
  0.401247928775E+00
  0.370243085365E+00
  0.322933425412E+00
  0.266342747399E+00
