# vtk DataFile Version 3.0
TriPan results file. Generated by TriPan, USU AeroLab (c) 2021.
ASCII
DATASET POLYDATA
POINTS                 144 float
  0.000000000000E+00  0.000000000000E+00  0.000000000000E+00
  0.113538098335E+01  0.000000000000E+00 -0.658124566078E+00
  0.113538098335E+01  0.000000000000E+00  0.658124566078E+00
  0.192375373840E+01  0.192375373840E+01  0.000000000000E+00
  0.305913543701E+01  0.192375373840E+01 -0.658124983311E+00
  0.305913543701E+01  0.192375373840E+01  0.658124983311E+00
  0.423028087616E+01  0.000000000000E+00 -0.108747220039E+01
  0.423028087616E+01  0.000000000000E+00  0.108747220039E+01
  0.547033166885E+01  0.547033166885E+01  0.000000000000E+00
  0.615403699875E+01  0.192375373840E+01 -0.108747279644E+01
  0.615403699875E+01  0.192375373840E+01  0.108747279644E+01
  0.660571479797E+01  0.547033166885E+01 -0.658125698566E+00
  0.660571479797E+01  0.547033166885E+01  0.658125698566E+00
  0.939508819580E+01  0.000000000000E+00 -0.980745851994E+00
  0.939508819580E+01  0.000000000000E+00  0.980745851994E+00
  0.970061969757E+01  0.547033166885E+01 -0.108747410774E+01
  0.970061969757E+01  0.547033166885E+01  0.108747410774E+01
  0.113188476562E+02  0.192375373840E+01 -0.980746448040E+00
  0.113188476562E+02  0.192375373840E+01  0.980746448040E+00
  0.113820018768E+02  0.113820018768E+02  0.000000000000E+00
  0.125173873901E+02  0.113820018768E+02 -0.658127009869E+00
  0.125173873901E+02  0.113820018768E+02  0.658127009869E+00
  0.145402030945E+02  0.000000000000E+00 -0.479613035917E+00
  0.145402030945E+02  0.000000000000E+00  0.479613035917E+00
  0.148654365540E+02  0.547033166885E+01 -0.980747580528E+00
  0.148654365540E+02  0.547033166885E+01  0.980747580528E+00
  0.156122989655E+02  0.113820018768E+02 -0.108747613430E+01
  0.156122989655E+02  0.113820018768E+02  0.108747613430E+01
  0.164639663696E+02  0.192375373840E+01 -0.479613333941E+00
  0.164639663696E+02  0.192375373840E+01  0.479613333941E+00
  0.176505107880E+02  0.000000000000E+00 -0.144198849797E+00
  0.176505107880E+02  0.000000000000E+00  0.144198849797E+00
  0.190000000000E+02  0.000000000000E+00  0.000000000000E+00
  0.195742740631E+02  0.192375373840E+01 -0.144198939204E+00
  0.195742740631E+02  0.192375373840E+01  0.144198939204E+00
  0.197561950684E+02  0.197561950684E+02  0.000000000000E+00
  0.200105609894E+02  0.547033166885E+01 -0.479613870382E+00
  0.200105609894E+02  0.547033166885E+01  0.479613870382E+00
  0.207771244049E+02  0.113820018768E+02 -0.980749428272E+00
  0.207771244049E+02  0.113820018768E+02  0.980749428272E+00
  0.208915824890E+02  0.197561950684E+02 -0.658128738403E+00
  0.208915824890E+02  0.197561950684E+02  0.658128738403E+00
  0.209237651825E+02  0.192375373840E+01  0.000000000000E+00
  0.231208724976E+02  0.547033166885E+01 -0.144199103117E+00
  0.231208724976E+02  0.547033166885E+01  0.144199103117E+00
  0.239865016937E+02  0.197561950684E+02 -0.108747911453E+01
  0.239865016937E+02  0.197561950684E+02  0.108747911453E+01
  0.244703655243E+02  0.547033166885E+01  0.000000000000E+00
  0.259222583771E+02  0.113820018768E+02 -0.479614794254E+00
  0.259222583771E+02  0.113820018768E+02  0.479614794254E+00
  0.290325775146E+02  0.113820018768E+02 -0.144199386239E+00
  0.290325775146E+02  0.113820018768E+02  0.144199386239E+00
  0.291513423920E+02  0.197561950684E+02 -0.980752110481E+00
  0.291513423920E+02  0.197561950684E+02  0.980752110481E+00
  0.292438049316E+02  0.292438049316E+02  0.000000000000E+00
  0.303791980743E+02  0.292438049316E+02 -0.658130764961E+00
  0.303791980743E+02  0.292438049316E+02  0.658130764961E+00
  0.303820724487E+02  0.113820018768E+02  0.000000000000E+00
  0.334741249084E+02  0.292438049316E+02 -0.108748245239E+01
  0.334741249084E+02  0.292438049316E+02  0.108748245239E+01
  0.342964897156E+02  0.197561950684E+02 -0.479616105556E+00
  0.342964897156E+02  0.197561950684E+02  0.479616105556E+00
  0.374068183899E+02  0.197561950684E+02 -0.144199773669E+00
  0.374068183899E+02  0.197561950684E+02  0.144199773669E+00
  0.376179962158E+02  0.376179962158E+02  0.000000000000E+00
  0.386389808655E+02  0.292438049316E+02 -0.980755090714E+00
  0.386389808655E+02  0.292438049316E+02  0.980755090714E+00
  0.387533912659E+02  0.376179962158E+02 -0.658132553101E+00
  0.387533912659E+02  0.376179962158E+02  0.658132553101E+00
  0.387563171387E+02  0.197561950684E+02  0.000000000000E+00
  0.418483314514E+02  0.376179962158E+02 -0.108748543262E+01
  0.418483314514E+02  0.376179962158E+02  0.108748543262E+01
  0.435296669006E+02  0.435296669006E+02  0.000000000000E+00
  0.437841453552E+02  0.292438049316E+02 -0.479617565870E+00
  0.437841453552E+02  0.292438049316E+02  0.479617565870E+00
  0.446650657654E+02  0.435296669006E+02 -0.658133804798E+00
  0.446650657654E+02  0.435296669006E+02  0.658133804798E+00
  0.468944816589E+02  0.292438049316E+02 -0.144200220704E+00
  0.468944816589E+02  0.292438049316E+02  0.144200220704E+00
  0.470131988525E+02  0.376179962158E+02 -0.980757772923E+00
  0.470131988525E+02  0.376179962158E+02  0.980757772923E+00
  0.470762481689E+02  0.470762481689E+02  0.000000000000E+00
  0.477600097656E+02  0.435296669006E+02 -0.108748745918E+01
  0.477600097656E+02  0.435296669006E+02  0.108748745918E+01
  0.482116432190E+02  0.470762481689E+02 -0.658134579659E+00
  0.482116432190E+02  0.470762481689E+02  0.658134579659E+00
  0.482439842224E+02  0.292438049316E+02  0.000000000000E+00
  0.490000000000E+02  0.490000000000E+02  0.000000000000E+00
  0.501353988647E+02  0.490000000000E+02 -0.658134996891E+00
  0.501353988647E+02  0.490000000000E+02  0.658134996891E+00
  0.506007728577E+02  0.494653701782E+02 -0.465371757746E+00
  0.506007728577E+02  0.494653701782E+02  0.465371757746E+00
  0.507935333252E+02  0.496581344604E+02 -0.771266485397E-15
  0.513065910339E+02  0.470762481689E+02 -0.108748877048E+01
  0.513065910339E+02  0.470762481689E+02  0.108748877048E+01
  0.521583786011E+02  0.376179962158E+02 -0.479618877172E+00
  0.521583786011E+02  0.376179962158E+02  0.479618877172E+00
  0.529248886108E+02  0.435296669006E+02 -0.980759620667E+00
  0.529248886108E+02  0.435296669006E+02  0.980759620667E+00
  0.532303466797E+02  0.490000000000E+02 -0.108748936653E+01
  0.532303466797E+02  0.490000000000E+02  0.108748936653E+01
  0.539993209839E+02  0.497689704895E+02 -0.768971264362E+00
  0.539993209839E+02  0.497689704895E+02  0.768971264362E+00
  0.543178405762E+02  0.500874900818E+02 -0.157378642191E-15
  0.552687225342E+02  0.376179962158E+02 -0.144200608134E+00
  0.552687225342E+02  0.376179962158E+02  0.144200608134E+00
  0.564714775085E+02  0.470762481689E+02 -0.980760753155E+00
  0.564714775085E+02  0.470762481689E+02  0.980760753155E+00
  0.566182289124E+02  0.376179962158E+02  0.000000000000E+00
  0.580700759888E+02  0.435296669006E+02 -0.479619771242E+00
  0.580700759888E+02  0.435296669006E+02  0.479619771242E+00
  0.583952369690E+02  0.490000000000E+02 -0.980761349201E+00
  0.583952369690E+02  0.490000000000E+02  0.980761349201E+00
  0.590887413025E+02  0.496935043335E+02 -0.693503141403E+00
  0.590887413025E+02  0.496935043335E+02  0.693503141403E+00
  0.593759994507E+02  0.499807624817E+02  0.000000000000E+00
  0.611804275513E+02  0.435296669006E+02 -0.144200876355E+00
  0.611804275513E+02  0.435296669006E+02  0.144200876355E+00
  0.616166725159E+02  0.470762481689E+02 -0.479620337486E+00
  0.616166725159E+02  0.470762481689E+02  0.479620337486E+00
  0.625299339294E+02  0.435296669006E+02  0.000000000000E+00
  0.635404319763E+02  0.490000000000E+02 -0.479620635509E+00
  0.635404319763E+02  0.490000000000E+02  0.479620635509E+00
  0.638795776367E+02  0.493391418457E+02 -0.339143037796E+00
  0.638795776367E+02  0.493391418457E+02  0.339143037796E+00
  0.640200576782E+02  0.494796218872E+02  0.296956834055E-15
  0.647270278931E+02  0.470762481689E+02 -0.144201040268E+00
  0.647270278931E+02  0.470762481689E+02  0.144201040268E+00
  0.660765380859E+02  0.470762481689E+02  0.000000000000E+00
  0.666507873535E+02  0.490000000000E+02 -0.144201144576E+00
  0.666507873535E+02  0.490000000000E+02  0.144201144576E+00
  0.667527542114E+02  0.491019668579E+02 -0.101965606213E+00
  0.667527542114E+02  0.491019668579E+02  0.101965606213E+00
  0.667949905396E+02  0.491441993713E+02 -0.260488604752E-16
  0.680002975464E+02  0.490000000000E+02  0.000000000000E+00
  0.190000000000E+02  0.000000000000E+00  0.000000000000E+00
  0.209237651825E+02  0.192375373840E+01  0.000000000000E+00
  0.244703655243E+02  0.547033166885E+01  0.000000000000E+00
  0.303820724487E+02  0.113820018768E+02  0.000000000000E+00
  0.387563171387E+02  0.197561950684E+02  0.000000000000E+00
  0.482439842224E+02  0.292438049316E+02  0.000000000000E+00
  0.566182289124E+02  0.376179962158E+02  0.000000000000E+00
  0.625299339294E+02  0.435296669006E+02  0.000000000000E+00
  0.660765380859E+02  0.470762481689E+02  0.000000000000E+00
POLYGONS                 256                1024
3                 135                  33                 136
3                  32                  30                  33
3                  30                  28                  33
3                  30                  22                  28
3                  22                  17                  28
3                  22                  13                  17
3                  13                   6                  17
3                  17                   6                   9
3                   6                   1                   9
3                   9                   1                   4
3                   1                   0                   4
3                   4                   0                   3
3                   0                   5                   3
3                   0                   2                   5
3                   2                  10                   5
3                   2                   7                  10
[...]
CELL_DATA                 256
SCALARS sigma float 1
LOOKUP_TABLE default
  0.000000000000E+00
  0.000000000000E+00
  0.000000000000E+00
  0.000000000000E+00
  0.000000000000E+00
  0.000000000000E+00
  0.000000000000E+00
  0.000000000000E+00
  0.000000000000E+00
  0.000000000000E+00
  0.000000000000E+00
  0.000000000000E+00
  0.000000000000E+00
  0.000000000000E+00
  0.000000000000E+00
  0.000000000000E+00
  0.000000000000E+00
  0.000000000000E+00
  0.000000000000E+00
  0.000000000000E+00
  0.000000000000E+00
  0.000000000000E+00
  0.000000000000E+00
  0.000000000000E+00
  0.000000000000E+00
  0.000000000000E+00
  0.000000000000E+00
  0.000000000000E+00
  0.000000000000E+00
  0.000000000000E+00
  0.000000000000E+00
  0.000000000000E+00
  0.000000000000E+00
  0.000000000000E+00
  0.000000000000E+00
  0.000000000000E+00
  0.000000000000E+00
  0.000000000000E+00
  0.000000000000E+00
  0.000000000000E+00
  0.000000000000E+00
  0.000000000000E+00
  0.000000000000E+00
  0.000000000000E+00
  0.000000000000E+00
  0.000000000000E+00
  0.000000000000E+00
  0.000000000000E+00
  0.000000000000E+00
  0.000000000000E+00
  0.000000000000E+00
  0.000000000000E+00
  0.000000000000E+00
  0.000000000000E+00
  0.000000000000E+00
  0.000000000000E+00
  0.000000000000E+00
  0.000000000000E+00
  0.000000000000E+00
  0.000000000000E+00
  0.000000000000E+00
  0.000000000000E+00
  0.000000000000E+00
  0.000000000000E+00
  0.000000000000E+00
  0.000000000000E+00
  0.000000000000E+00
  0.000000000000E+00
  0.000000000000E+00
  0.000000000000E+00
  0.000000000000E+00
  0.000000000000E+00
  0.000000000000E+00
  0.000000000000E+00
  0.000000000000E+00
  0.000000000000E+00
  0.000000000000E+00
  0.000000000000E+00
  0.000000000000E+00
  0.000000000000E+00
  0.000000000000E+00
  0.000000000000E+00
  0.000000000000E+00
  0.000000000000E+00
  0.000000000000E+00
  0.000000000000E+00
  0.000000000000E+00
  0.000000000000E+00
  0.000000000000E+00
  0.000000000000E+00
  0.000000000000E+00
  0.000000000000E+00
  0.000000000000E+00
  0.000000000000E+00
  0.000000000000E+00
  0.000000000000E+00
  0.000000000000E+00
  0.000000000000E+00
  0.000000000000E+00
  0.000000000000E+00
  0.000000000000E+00
  0.000000000000E+00
  0.000000000000E+00
  0.000000000000E+00
  0.000000000000E+00
  0.000000000000E+00
  0.000000000000E+00
  0.000000000000E+00
  0.000000000000E+00
  0.000000000000E+00
  0.000000000000E+00
  0.000000000000E+00
  0.000000000000E+00
  0.000000000000E+00
  0.000000000000E+00
  0.000000000000E+00
  0.000000000000E+00
  0.000000000000E+00
  0.000000000000E+00
  0.000000000000E+00
  0.000000000000E+00
  0.000000000000E+00
  0.000000000000E+00
  0.000000000000E+00
  0.000000000000E+00
  0.000000000000E+00
  0.000000000000E+00
  0.000000000000E+00
  0.000000000000E+00
  0.000000000000E+00
  0.000000000000E+00
  0.000000000000E+00
  0.000000000000E+00
  0.000000000000E+00
  0.000000000000E+00
  0.000000000000E+00
  0.000000000000E+00
  0.000000000000E+00
  0.000000000000E+00
  0.000000000000E+00
  0.000000000000E+00
  0.000000000000E+00
  0.000000000000E+00
  0.000000000000E+00
  0.000000000000E+00
  0.000000000000E+00
  0.000000000000E+00
  0.000000000000E+00
  0.000000000000E+00
  0.000000000000E+00
  0.000000000000E+00
  0.000000000000E+00
  0.000000000000E+00
  0.000000000000E+00
  0.000000000000E+00
  0.000000000000E+00
  0.000000000000E+00
  0.000000000000E+00
  0.000000000000E+00
  0.000000000000E+00
  0.000000000000E+00
  0.000000000000E+00
  0.000000000000E+00
  0.000000000000E+00
  0.000000000000E+00
  0.000000000000E+00
  0.000000000000E+00
  0.000000000000E+00
  0.000000000000E+00
  0.000000000000E+00
  0.000000000000E+00
  0.000000000000E+00
  0.000000000000E+00
  0.000000000000E+00
  0.000000000000E+00
  0.000000000000E+00
  0.000000000000E+00
  0.000000000000E+00
  0.000000000000E+00
  0.000000000000E+00
  0.000000000000E+00
  0.000000000000E+00
  0.000000000000E+00
  0.000000000000E+00
  0.000000000000E+00
  0.000000000000E+00
  0.000000000000E+00
  0.000000000000E+00
  0.000000000000E+00
  0.000000000000E+00
  0.000000000000E+00
  0.000000000000E+00
  0.000000000000E+00
  0.000000000000E+00
  0.000000000000E+00
  0.000000000000E+00
  0.000000000000E+00
  0.000000000000E+00
  0.000000000000E+00
  0.000000000000E+00
  0.000000000000E+00
  0.000000000000E+00
  0.000000000000E+00
  0.000000000000E+00
  0.000000000000E+00
  0.000000000000E+00
  0.000000000000E+00
  0.000000000000E+00
  0.000000000000E+00
  0.000000000000E+00
  0.000000000000E+00
  0.000000000000E+00
  0.000000000000E+00
  0.000000000000E+00
  0.000000000000E+00
  0.000000000000E+00
  0.000000000000E+00
  0.000000000000E+00
  0.000000000000E+00
  0.000000000000E+00
  0.000000000000E+00
  0.000000000000E+00
  0.000000000000E+00
  0.000000000000E+00
  0.000000000000E+00
  0.000000000000E+00
  0.000000000000E+00
  0.000000000000E+00
  0.000000000000E+00
  0.000000000000E+00
  0.000000000000E+00
  0.000000000000E+00
  0.000000000000E+00
  0.000000000000E+00
  0.000000000000E+00
  0.000000000000E+00
  0.000000000000E+00
  0.000000000000E+00
  0.000000000000E+00
  0.000000000000E+00
  0.000000000000E+00
  0.000000000000E+00
  0.000000000000E+00
  0.000000000000E+00
  0.000000000000E+00
  0.000000000000E+00
  0.000000000000E+00
  0.000000000000E+00
  0.000000000000E+00
  0.000000000000E+00
  0.000000000000E+00
  0.000000000000E+00
  0.000000000000E+00
  0.000000000000E+00
  0.000000000000E+00
  0.000000000000E+00
SCALARS C_p_inc float 1
LOOKUP_TABLE default
 -0.454915203922E+00
 -0.900461207146E+00
 -0.246336720853E+00
 -0.217276340719E+00
 -0.172102785235E+00
 -0.167623682940E+00
 -0.101414997013E+00
 -0.135508137286E+00
  0.105136595022E+00
  0.429550781500E-02
  0.521569026182E+00
  0.505783075959E+00
 -0.166104477308E+00
  0.170536993140E+00
 -0.438555815456E+00
 -0.291596357267E+00
 -0.301212995067E+00
 -0.321591410004E+00
 -0.166304545387E+00
 -0.903547442939E-01
  0.959389038192E-01
  0.209229438024E+00
  0.560940616975E+00
  0.439083208080E+00
 -0.348251802905E+00
 -0.440191362644E+00
 -0.192254676246E+00
 -0.252247357877E+00
 -0.175077349504E+00
 -0.174328473543E+00
 -0.134560196946E+00
 -0.163144977746E+00
  0.700710070131E-02
 -0.286646737493E-01
  0.438415843473E+00
  0.439571460208E+00
 -0.302896637717E+00
 -0.170165886156E+00
 -0.500988671976E+00
 -0.433865757556E+00
 -0.282662871154E+00
 -0.314134777840E+00
 -0.881931859349E-01
 -0.276123636612E-01
  0.200425484459E+00
  0.196906960929E+00
  0.431539136865E+00
  0.402554428395E+00
 -0.317143914034E+00
 -0.346126278399E+00
 -0.169685646438E+00
 -0.192588573164E+00
 -0.162812478848E+00
 -0.177440732825E+00
 -0.163430329385E+00
 -0.167706876542E+00
 -0.285716348966E-01
 -0.406604683055E-01
  0.433848723357E+00
  0.434404769045E+00
 -0.336970495429E+00
 -0.303151678149E+00
 -0.507520555951E+00
 -0.505097811216E+00
 -0.260495947672E+00
 -0.291754607389E+00
 -0.268513771627E-01
 -0.127137053985E-01
  0.194752826819E+00
  0.190493924636E+00
  0.401459267200E+00
  0.394004576214E+00
 -0.304774504220E+00
 -0.316462310737E+00
 -0.161771228778E+00
 -0.169683619324E+00
 -0.157062648096E+00
 -0.163321615138E+00
 -0.168907202300E+00
 -0.166027906583E+00
 -0.407320656353E-01
 -0.415803757429E-01
  0.437701783806E+00
  0.436840300324E+00
 -0.329034531248E+00
 -0.336963287438E+00
 -0.500074202304E+00
 -0.511447255730E+00
 -0.254370432982E+00
 -0.263416088835E+00
 -0.126534265477E-01
 -0.103612205759E-01
  0.190163211470E+00
  0.189179641233E+00
  0.393906661588E+00
  0.391311752004E+00
 -0.290478248551E+00
 -0.304067748670E+00
 -0.155644280335E+00
 -0.161562778482E+00
 -0.154686209682E+00
 -0.156964996527E+00
 -0.166308812332E+00
 -0.166267344169E+00
 -0.416198484055E-01
 -0.431027553305E-01
  0.438001868136E+00
  0.436766053693E+00
 -0.321166407009E+00
 -0.329032625839E+00
 -0.495270718510E+00
 -0.501059370500E+00
 -0.251647974688E+00
 -0.254777334829E+00
 -0.103490451708E-01
 -0.905640847453E-02
  0.189069107102E+00
  0.188834094856E+00
  0.391223899516E+00
  0.388454219482E+00
 -0.242640122679E+00
 -0.289129992438E+00
 -0.137093006938E+00
 -0.154803095144E+00
 -0.153121078126E+00
 -0.153927227906E+00
 -0.165483380852E+00
 -0.172271739643E+00
 -0.430157366356E-01
 -0.503636374127E-01
  0.434890991966E+00
  0.432130250931E+00
 -0.313063996128E+00
 -0.321173158651E+00
 -0.490495120612E+00
 -0.494810660967E+00
 -0.248878169888E+00
 -0.251360339838E+00
 -0.904027597129E-02
 -0.642034181299E-02
  0.188539742535E+00
  0.191341407595E+00
  0.388256436593E+00
  0.384070172224E+00
  0.884459014649E-02
 -0.237878807452E+00
 -0.996759692777E-01
 -0.134499561734E+00
 -0.159914635168E+00
 -0.150714674151E+00
 -0.169021190626E+00
 -0.197300085357E+00
 -0.501350108181E-01
 -0.755297129307E-01
  0.424940232208E+00
  0.418203362445E+00
 -0.301740277997E+00
 -0.313164749400E+00
 -0.487388301055E+00
 -0.488084147256E+00
 -0.249720763499E+00
 -0.247170721470E+00
 -0.646741949220E-02
 -0.107645014194E-01
  0.188707179340E+00
  0.187679244261E+00
  0.378112056856E+00
  0.435031947699E+00
 -0.239131730137E+02
 -0.663535247568E+00
  0.808144723504E+00
 -0.156159249430E+00
 -0.468371700822E+00
 -0.158485076249E+00
 -0.191542326089E+00
 -0.237655225995E+00
 -0.762536478134E-01
 -0.135245424633E+00
  0.397314628754E+00
  0.384342364781E+00
 -0.288024154779E+00
 -0.302401311033E+00
 -0.483610394161E+00
 -0.481292250049E+00
 -0.251536215629E+00
 -0.245722478552E+00
 -0.113229759678E-01
 -0.306404636830E+00
  0.922370066656E-01
  0.662039459386E+00
  0.235058047447E+00
 -0.209725958392E+02
 -0.407647994904E+08
 -0.212095589012E+05
 -0.119429718428E+05
  0.946231546586E+00
 -0.176674567277E+00
 -0.463088318598E+00
 -0.249955277455E+00
 -0.303641886649E+00
 -0.143968535890E+00
 -0.154625324110E+00
  0.291903592153E+00
  0.271493397658E+00
 -0.276473069763E+00
 -0.294106599161E+00
 -0.370420488437E+00
 -0.485183762797E+00
 -0.297799589638E+00
 -0.245323123236E+00
 -0.303518665992E+00
 -0.248679692659E+00
  0.879819125600E+00
 -0.119256113974E+05
 -0.212433546893E+05
 -0.407661282402E+08
 -0.849010799654E+08
 -0.481129094492E+06
 -0.180827164192E+05
 -0.292166350300E+02
 -0.363938977662E-01
 -0.408757108588E+00
 -0.378248236418E+00
 -0.217957488766E+00
 -0.226885025433E+00
 -0.193259852024E-01
 -0.306448073374E+00
 -0.310641643403E+00
 -0.391447363060E+00
 -0.394220034929E+00
 -0.289296824746E+00
  0.445202715881E+00
 -0.336292759813E+02
 -0.181385425525E+05
 -0.480638586815E+06
 -0.848973266498E+08
 -0.580258016483E+08
 -0.575460543973E+06
 -0.216083427455E+05
 -0.443838177055E+02
  0.353904446628E+00
 -0.500917715294E+00
 -0.462363582768E+00
 -0.287809689990E+00
 -0.297447152608E+00
 -0.171372675884E+00
 -0.268150891459E+00
 -0.328944030265E+00
 -0.333577119457E+00
 -0.483994653752E+00
 -0.382068717771E+00
  0.941457057848E+00
 -0.529462673064E+02
 -0.216719900883E+05
 -0.574572244905E+06
 -0.580220925028E+08
SCALARS inclination float 1
LOOKUP_TABLE default
  0.100000000000E+01
  0.100000000000E+01
  0.100000000000E+01
  0.100000000000E+01
  0.100000000000E+01
  0.100000000000E+01
  0.100000000000E+01
  0.100000000000E+01
  0.100000000000E+01
  0.100000000000E+01
  0.100000000000E+01
  0.100000000000E+01
  0.100000000000E+01
  0.100000000000E+01
  0.100000000000E+01
  0.100000000000E+01
  0.100000000000E+01
  0.100000000000E+01
  0.100000000000E+01
  0.100000000000E+01
  0.100000000000E+01
  0.100000000000E+01
  0.100000000000E+01
  0.100000000000E+01
  0.100000000000E+01
  0.100000000000E+01
  0.100000000000E+01
  0.100000000000E+01
  0.100000000000E+01
  0.100000000000E+01
  0.100000000000E+01
  0.100000000000E+01
  0.100000000000E+01
  0.100000000000E+01
  0.100000000000E+01
  0.100000000000E+01
  0.100000000000E+01
  0.100000000000E+01
  0.100000000000E+01
  0.100000000000E+01
  0.100000000000E+01
  0.100000000000E+01
  0.100000000000E+01
  0.100000000000E+01
  0.100000000000E+01
  0.100000000000E+01
  0.100000000000E+01
  0.100000000000E+01
  0.100000000000E+01
  0.100000000000E+01
  0.100000000000E+01
  0.100000000000E+01
  0.100000000000E+01
  0.100000000000E+01
  0.100000000000E+01
  0.100000000000E+01
  0.100000000000E+01
  0.100000000000E+01
  0.100000000000E+01
  0.100000000000E+01
  0.100000000000E+01
  0.100000000000E+01
  0.100000000000E+01
  0.100000000000E+01
  0.100000000000E+01
  0.100000000000E+01
  0.100000000000E+01
  0.100000000000E+01
  0.100000000000E+01
  0.100000000000E+01
  0.100000000000E+01
  0.100000000000E+01
  0.100000000000E+01
  0.100000000000E+01
  0.100000000000E+01
  0.100000000000E+01
  0.100000000000E+01
  0.100000000000E+01
  0.100000000000E+01
  0.100000000000E+01
  0.100000000000E+01
  0.100000000000E+01
  0.100000000000E+01
  0.100000000000E+01
  0.100000000000E+01
  0.100000000000E+01
  0.100000000000E+01
  0.100000000000E+01
  0.100000000000E+01
  0.100000000000E+01
  0.100000000000E+01
  0.100000000000E+01
  0.100000000000E+01
  0.100000000000E+01
  0.100000000000E+01
  0.100000000000E+01
  0.100000000000E+01
  0.100000000000E+01
  0.100000000000E+01
  0.100000000000E+01
  0.100000000000E+01
  0.100000000000E+01
  0.100000000000E+01
  0.100000000000E+01
  0.100000000000E+01
  0.100000000000E+01
  0.100000000000E+01
  0.100000000000E+01
  0.100000000000E+01
  0.100000000000E+01
  0.100000000000E+01
  0.100000000000E+01
  0.100000000000E+01
  0.100000000000E+01
  0.100000000000E+01
  0.100000000000E+01
  0.100000000000E+01
  0.100000000000E+01
  0.100000000000E+01
  0.100000000000E+01
  0.100000000000E+01
  0.100000000000E+01
  0.100000000000E+01
  0.100000000000E+01
  0.100000000000E+01
  0.100000000000E+01
  0.100000000000E+01
  0.100000000000E+01
  0.100000000000E+01
  0.100000000000E+01
  0.100000000000E+01
  0.100000000000E+01
  0.100000000000E+01
  0.100000000000E+01
  0.100000000000E+01
  0.100000000000E+01
  0.100000000000E+01
  0.100000000000E+01
  0.100000000000E+01
  0.100000000000E+01
  0.100000000000E+01
  0.100000000000E+01
  0.100000000000E+01
  0.100000000000E+01
  0.100000000000E+01
  0.100000000000E+01
  0.100000000000E+01
  0.100000000000E+01
  0.100000000000E+01
  0.100000000000E+01
  0.100000000000E+01
  0.100000000000E+01
  0.100000000000E+01
  0.100000000000E+01
  0.100000000000E+01
  0.100000000000E+01
  0.100000000000E+01
  0.100000000000E+01
  0.100000000000E+01
  0.100000000000E+01
  0.100000000000E+01
  0.100000000000E+01
  0.100000000000E+01
  0.100000000000E+01
  0.100000000000E+01
  0.100000000000E+01
  0.100000000000E+01
  0.100000000000E+01
  0.100000000000E+01
  0.100000000000E+01
  0.100000000000E+01
  0.100000000000E+01
  0.100000000000E+01
  0.100000000000E+01
  0.100000000000E+01
  0.100000000000E+01
  0.100000000000E+01
  0.100000000000E+01
  0.100000000000E+01
  0.100000000000E+01
  0.100000000000E+01
  0.100000000000E+01
  0.100000000000E+01
  0.100000000000E+01
  0.100000000000E+01
  0.100000000000E+01
  0.100000000000E+01
  0.100000000000E+01
  0.100000000000E+01
  0.100000000000E+01
  0.100000000000E+01
  0.100000000000E+01
  0.100000000000E+01
  0.100000000000E+01
  0.100000000000E+01
  0.100000000000E+01
  0.100000000000E+01
  0.100000000000E+01
  0.100000000000E+01
  0.100000000000E+01
  0.100000000000E+01
  0.100000000000E+01
  0.100000000000E+01
  0.100000000000E+01
  0.100000000000E+01
  0.100000000000E+01
  0.100000000000E+01
  0.100000000000E+01
  0.100000000000E+01
  0.100000000000E+01
  0.100000000000E+01
  0.100000000000E+01
  0.100000000000E+01
  0.100000000000E+01
  0.100000000000E+01
  0.100000000000E+01
  0.100000000000E+01
  0.100000000000E+01
  0.100000000000E+01
  0.100000000000E+01
  0.100000000000E+01
  0.100000000000E+01
  0.100000000000E+01
  0.100000000000E+01
  0.100000000000E+01
  0.100000000000E+01
  0.100000000000E+01
  0.100000000000E+01
  0.100000000000E+01
  0.100000000000E+01
  0.100000000000E+01
  0.100000000000E+01
  0.100000000000E+01
  0.100000000000E+01
  0.100000000000E+01
  0.100000000000E+01
  0.100000000000E+01
  0.100000000000E+01
  0.100000000000E+01
  0.100000000000E+01
  0.100000000000E+01
  0.100000000000E+01
  0.100000000000E+01
  0.100000000000E+01
  0.100000000000E+01
  0.100000000000E+01
  0.100000000000E+01
  0.100000000000E+01
  0.100000000000E+01
  0.100000000000E+01
  0.100000000000E+01
  0.100000000000E+01
  0.100000000000E+01
  0.100000000000E+01
  0.100000000000E+01
  0.100000000000E+01
VECTORS v float
  0.192047374042E+03 -0.344621099485E+02  0.242035359876E+02
  0.218941846762E+03 -0.421816084296E+02  0.279022124501E+02
  0.180830756551E+03 -0.407032965962E+01  0.199396649417E+02
  0.178656897343E+03 -0.542651174893E+01  0.198514759827E+02
  0.175600412859E+03 -0.237001250323E+01  0.173342708350E+02
  0.175250198542E+03 -0.295060580387E+01  0.173567124873E+02
  0.171025045714E+03  0.127455530022E+01  0.350774896621E+01
  0.173478459386E+03 -0.777887161182E+01  0.374552869760E+01
  0.152402112129E+03  0.132974946257E+02 -0.192976335878E+02
  0.160668540319E+03 -0.922096908161E+01 -0.235683375262E+02
  0.950055529726E+02  0.564420429423E+02 -0.223533719210E+02
  0.100600233011E+03  0.439609955643E+02 -0.328309829591E+02
  0.150641085159E+03 -0.607985658440E+01  0.908434293911E+02
  0.132698906972E+03  0.339469501039E+02  0.572416570023E+02
  0.191567084325E+03 -0.249212432355E+02  0.300328703198E+02
  0.183418080054E+03 -0.272265270857E+01  0.258228326817E+02
  0.185822684020E+03 -0.512725043143E+01 -0.394581708139E+01
  0.187085584998E+03 -0.978752537668E+01 -0.406821893571E+01
  0.175210888002E+03  0.208721090364E+01 -0.168621986299E+02
  0.169140180510E+03 -0.797695812294E+01 -0.172511645236E+02
  0.154006474079E+03  0.715682311119E+01 -0.158361955365E+02
  0.144120637994E+03  0.989464186484E+00 -0.154352105879E+02
  0.961293315339E+02  0.489810080728E+02 -0.503797723375E+01
  0.113655862447E+03  0.439298679858E+02 -0.745049493688E+01
  0.186273999122E+03 -0.247994215909E+02  0.225541147335E+02
  0.192106005236E+03 -0.283675993836E+02  0.235585732059E+02
  0.176358785799E+03 -0.126202890527E+02  0.203794374065E+02
  0.180726860328E+03 -0.131081086792E+02  0.209030977226E+02
  0.175604940315E+03 -0.798616502115E+01  0.178817282206E+02
  0.175547386617E+03 -0.801253523531E+01  0.178786896798E+02
  0.173479242394E+03 -0.594438914203E+01  0.370763655166E+01
  0.175424463739E+03 -0.107265869793E+02  0.384665666861E+01
  0.160914094850E+03  0.378379193658E+01 -0.217982875164E+02
  0.163713541065E+03 -0.159594414634E+01 -0.229329708278E+02
  0.104128281737E+03  0.579893384470E+02 -0.267444765092E+02
  0.103825962653E+03  0.584729819629E+02 -0.262888899204E+02
  0.161233002085E+03  0.106594253093E+01  0.928409584861E+02
  0.154961467544E+03  0.110989926587E+02  0.833900076019E+02
  0.195112042467E+03 -0.290515879127E+02  0.310976550551E+02
  0.191615953374E+03 -0.223331029668E+02  0.296806037170E+02
  0.183973886476E+03 -0.146910133024E+02 -0.410524624281E+01
  0.185816668192E+03 -0.192213699748E+02 -0.423694121470E+01
  0.169190754318E+03 -0.259540069774E+01 -0.167319247434E+02
  0.164341007126E+03 -0.481746445705E+01 -0.164759917163E+02
  0.144284449479E+03  0.152391871846E+02 -0.139161818022E+02
  0.144608108309E+03  0.152030412981E+02 -0.139549812466E+02
  0.113680706920E+03  0.461306211784E+02 -0.721798701180E+01
  0.117974022850E+03  0.435009862788E+02 -0.795773318473E+01
  0.184412802367E+03 -0.223392530119E+02  0.220923685914E+02
  0.186271140531E+03 -0.237614723223E+02  0.224428993040E+02
  0.174706522693E+03 -0.121967864989E+02  0.201555765971E+02
  0.176354844853E+03 -0.129631084066E+02  0.204159819220E+02
  0.174484930054E+03 -0.110931853767E+02  0.180752641116E+02
  0.175574508726E+03 -0.112243909326E+02  0.181941684113E+02
  0.175424315371E+03 -0.110742016110E+02  0.385383664231E+01
  0.175712603847E+03 -0.116146675522E+02  0.387096240214E+01
  0.163750240867E+03  0.347704662163E+00 -0.226684248437E+02
  0.164679253776E+03 -0.109153112444E+01 -0.229969545362E+02
  0.104084954270E+03  0.595027921880E+02 -0.258420836137E+02
  0.103959683224E+03  0.596710654070E+02 -0.256719284102E+02