# vtk DataFile Version 3.0
TriPan results file. Generated by TriPan, USU AeroLab (c) 2021.
ASCII
DATASET POLYDATA
POINTS                 144 float
  0.000000000000E+00  0.000000000000E+00  0.000000000000E+00
  0.113538098335E+01  0.000000000000E+00 -0.658124566078E+00
  0.113538098335E+01  0.000000000000E+00  0.658124566078E+00
  0.192375373840E+01  0.192375373840E+01  0.000000000000E+00
  0.305913543701E+01  0.192375373840E+01 -0.658124983311E+00
  0.305913543701E+01  0.192375373840E+01  0.658124983311E+00
  0.423028087616E+01  0.000000000000E+00 -0.108747220039E+01
  0.423028087616E+01  0.000000000000E+00  0.108747220039E+01
  0.547033166885E+01  0.547033166885E+01  0.000000000000E+00
  0.615403699875E+01  0.192375373840E+01 -0.108747279644E+01
  0.615403699875E+01  0.192375373840E+01  0.108747279644E+01
  0.660571479797E+01  0.547033166885E+01 -0.658125698566E+00
  0.660571479797E+01  0.547033166885E+01  0.658125698566E+00
  0.939508819580E+01  0.000000000000E+00 -0.980745851994E+00
  0.939508819580E+01  0.000000000000E+00  0.980745851994E+00
  0.970061969757E+01  0.547033166885E+01 -0.108747410774E+01
  0.970061969757E+01  0.547033166885E+01  0.108747410774E+01
  0.113188476562E+02  0.192375373840E+01 -0.980746448040E+00
  0.113188476562E+02  0.192375373840E+01  0.980746448040E+00
  0.113820018768E+02  0.113820018768E+02  0.000000000000E+00
  0.125173873901E+02  0.113820018768E+02 -0.658127009869E+00
  0.125173873901E+02  0.113820018768E+02  0.658127009869E+00
  0.145402030945E+02  0.000000000000E+00 -0.479613035917E+00
  0.145402030945E+02  0.000000000000E+00  0.479613035917E+00
  0.148654365540E+02  0.547033166885E+01 -0.980747580528E+00
  0.148654365540E+02  0.547033166885E+01  0.980747580528E+00
  0.156122989655E+02  0.113820018768E+02 -0.108747613430E+01
  0.156122989655E+02  0.113820018768E+02  0.108747613430E+01
  0.164639663696E+02  0.192375373840E+01 -0.479613333941E+00
  0.164639663696E+02  0.192375373840E+01  0.479613333941E+00
  0.176505107880E+02  0.000000000000E+00 -0.144198849797E+00
  0.176505107880E+02  0.000000000000E+00  0.144198849797E+00
  0.190000000000E+02  0.000000000000E+00  0.000000000000E+00
  0.195742740631E+02  0.192375373840E+01 -0.144198939204E+00
  0.195742740631E+02  0.192375373840E+01  0.144198939204E+00
  0.197561950684E+02  0.197561950684E+02  0.000000000000E+00
  0.200105609894E+02  0.547033166885E+01 -0.479613870382E+00
  0.200105609894E+02  0.547033166885E+01  0.479613870382E+00
  0.207771244049E+02  0.113820018768E+02 -0.980749428272E+00
  0.207771244049E+02  0.113820018768E+02  0.980749428272E+00
  0.208915824890E+02  0.197561950684E+02 -0.658128738403E+00
  0.208915824890E+02  0.197561950684E+02  0.658128738403E+00
  0.209237651825E+02  0.192375373840E+01  0.000000000000E+00
  0.231208724976E+02  0.547033166885E+01 -0.144199103117E+00
  0.231208724976E+02  0.547033166885E+01  0.144199103117E+00
  0.239865016937E+02  0.197561950684E+02 -0.108747911453E+01
  0.239865016937E+02  0.197561950684E+02  0.108747911453E+01
  0.244703655243E+02  0.547033166885E+01  0.000000000000E+00
  0.259222583771E+02  0.113820018768E+02 -0.479614794254E+00
  0.259222583771E+02  0.113820018768E+02  0.479614794254E+00
  0.290325775146E+02  0.113820018768E+02 -0.144199386239E+00
  0.290325775146E+02  0.113820018768E+02  0.144199386239E+00
  0.291513423920E+02  0.197561950684E+02 -0.980752110481E+00
  0.291513423920E+02  0.197561950684E+02  0.980752110481E+00
  0.292438049316E+02  0.292438049316E+02  0.000000000000E+00
  0.303791980743E+02  0.292438049316E+02 -0.658130764961E+00
  0.303791980743E+02  0.292438049316E+02  0.658130764961E+00
  0.303820724487E+02  0.113820018768E+02  0.000000000000E+00
  0.334741249084E+02  0.292438049316E+02 -0.108748245239E+01
  0.334741249084E+02  0.292438049316E+02  0.108748245239E+01
  0.342964897156E+02  0.197561950684E+02 -0.479616105556E+00
  0.342964897156E+02  0.197561950684E+02  0.479616105556E+00
  0.374068183899E+02  0.197561950684E+02 -0.144199773669E+00
  0.374068183899E+02  0.197561950684E+02  0.144199773669E+00
  0.376179962158E+02  0.376179962158E+02  0.000000000000E+00
  0.386389808655E+02  0.292438049316E+02 -0.980755090714E+00
  0.386389808655E+02  0.292438049316E+02  0.980755090714E+00
  0.387533912659E+02  0.376179962158E+02 -0.658132553101E+00
  0.387533912659E+02  0.376179962158E+02  0.658132553101E+00
  0.387563171387E+02  0.197561950684E+02  0.000000000000E+00
  0.418483314514E+02  0.376179962158E+02 -0.108748543262E+01
  0.418483314514E+02  0.376179962158E+02  0.108748543262E+01
  0.435296669006E+02  0.435296669006E+02  0.000000000000E+00
  0.437841453552E+02  0.292438049316E+02 -0.479617565870E+00
  0.437841453552E+02  0.292438049316E+02  0.479617565870E+00
  0.446650657654E+02  0.435296669006E+02 -0.658133804798E+00
  0.446650657654E+02  0.435296669006E+02  0.658133804798E+00
  0.468944816589E+02  0.292438049316E+02 -0.144200220704E+00
  0.468944816589E+02  0.292438049316E+02  0.144200220704E+00
  0.470131988525E+02  0.376179962158E+02 -0.980757772923E+00
  0.470131988525E+02  0.376179962158E+02  0.980757772923E+00
  0.470762481689E+02  0.470762481689E+02  0.000000000000E+00
  0.477600097656E+02  0.435296669006E+02 -0.108748745918E+01
  0.477600097656E+02  0.435296669006E+02  0.108748745918E+01
  0.482116432190E+02  0.470762481689E+02 -0.658134579659E+00
  0.482116432190E+02  0.470762481689E+02  0.658134579659E+00
  0.482439842224E+02  0.292438049316E+02  0.000000000000E+00
  0.490000000000E+02  0.490000000000E+02  0.000000000000E+00
  0.501353988647E+02  0.490000000000E+02 -0.658134996891E+00
  0.501353988647E+02  0.490000000000E+02  0.658134996891E+00
  0.506007728577E+02  0.494653701782E+02 -0.465371757746E+00
  0.506007728577E+02  0.494653701782E+02  0.465371757746E+00
  0.507935333252E+02  0.496581344604E+02 -0.771266485397E-15
  0.513065910339E+02  0.470762481689E+02 -0.108748877048E+01
  0.513065910339E+02  0.470762481689E+02  0.108748877048E+01
  0.521583786011E+02  0.376179962158E+02 -0.479618877172E+00
  0.521583786011E+02  0.376179962158E+02  0.479618877172E+00
  0.529248886108E+02  0.435296669006E+02 -0.980759620667E+00
  0.529248886108E+02  0.435296669006E+02  0.980759620667E+00
  0.532303466797E+02  0.490000000000E+02 -0.108748936653E+01
  0.532303466797E+02  0.490000000000E+02  0.108748936653E+01
  0.539993209839E+02  0.497689704895E+02 -0.768971264362E+00
  0.539993209839E+02  0.497689704895E+02  0.768971264362E+00
  0.543178405762E+02  0.500874900818E+02 -0.157378642191E-15
  0.552687225342E+02  0.376179962158E+02 -0.144200608134E+00
  0.552687225342E+02  0.376179962158E+02  0.144200608134E+00
  0.564714775085E+02  0.470762481689E+02 -0.980760753155E+00
  0.564714775085E+02  0.470762481689E+02  0.980760753155E+00
  0.566182289124E+02  0.376179962158E+02  0.000000000000E+00
  0.580700759888E+02  0.435296669006E+02 -0.479619771242E+00
  0.580700759888E+02  0.435296669006E+02  0.479619771242E+00
  0.583952369690E+02  0.490000000000E+02 -0.980761349201E+00
  0.583952369690E+02  0.490000000000E+02  0.980761349201E+00
  0.590887413025E+02  0.496935043335E+02 -0.693503141403E+00
  0.590887413025E+02  0.496935043335E+02  0.693503141403E+00
  0.593759994507E+02  0.499807624817E+02  0.000000000000E+00
  0.611804275513E+02  0.435296669006E+02 -0.144200876355E+00
  0.611804275513E+02  0.435296669006E+02  0.144200876355E+00
  0.616166725159E+02  0.470762481689E+02 -0.479620337486E+00
  0.616166725159E+02  0.470762481689E+02  0.479620337486E+00
  0.625299339294E+02  0.435296669006E+02  0.000000000000E+00
  0.635404319763E+02  0.490000000000E+02 -0.479620635509E+00
  0.635404319763E+02  0.490000000000E+02  0.479620635509E+00
  0.638795776367E+02  0.493391418457E+02 -0.339143037796E+00
  0.638795776367E+02  0.493391418457E+02  0.339143037796E+00
  0.640200576782E+02  0.494796218872E+02  0.296956834055E-15
  0.647270278931E+02  0.470762481689E+02 -0.144201040268E+00
  0.647270278931E+02  0.470762481689E+02  0.144201040268E+00
  0.660765380859E+02  0.470762481689E+02  0.000000000000E+00
  0.666507873535E+02  0.490000000000E+02 -0.144201144576E+00
  0.666507873535E+02  0.490000000000E+02  0.144201144576E+00
  0.667527542114E+02  0.491019668579E+02 -0.101965606213E+00
  0.667527542114E+02  0.491019668579E+02  0.101965606213E+00
  0.667949905396E+02  0.491441993713E+02 -0.260488604752E-16
  0.680002975464E+02  0.490000000000E+02  0.000000000000E+00
  0.190000000000E+02  0.000000000000E+00  0.000000000000E+00
  0.209237651825E+02  0.192375373840E+01  0.000000000000E+00
  0.244703655243E+02  0.547033166885E+01  0.000000000000E+00
  0.303820724487E+02  0.113820018768E+02  0.000000000000E+00
  0.387563171387E+02  0.197561950684E+02  0.000000000000E+00
  0.482439842224E+02  0.292438049316E+02  0.000000000000E+00
  0.566182289124E+02  0.376179962158E+02  0.000000000000E+00
  0.625299339294E+02  0.435296669006E+02  0.000000000000E+00
  0.660765380859E+02  0.470762481689E+02  0.000000000000E+00
POLYGONS                 256                1024
3                 135                  33                 136
3                  32                  30                  33
3                  30                  28                  33
3                  30                  22                  28
3                  22                  17                  28
3                  22                  13                  17
3                  13                   6                  17
3                  17                   6                   9
3                   6                   1                   9
3                   9                   1                   4
3                   1                   0                   4
3                   4                   0                   3
3                   0                   5                   3
3                   0                   2                   5
3                   2                  10                   5
3                   2                   7                  10
[...]
CELL_DATA                 256
SCALARS sigma float 1
LOOKUP_TABLE default
  0.348572633760E-02
  0.348564297752E-02
  0.251683975288E-02
  0.251690566539E-02
  0.128019157568E-01
  0.128019016968E-01
  0.891568905524E-01
  0.891569039349E-01
  0.242991708117E+00
  0.242991693500E+00
  0.530437482666E+00
  0.530437483343E+00
  0.360708673113E+00
  0.360708672082E+00
  0.276286603430E-01
  0.276286767277E-01
 -0.130218062181E+00
 -0.130218075280E+00
 -0.204613839989E+00
 -0.204613825729E+00
 -0.214443095594E+00
 -0.214443160919E+00
 -0.213519220545E+00
 -0.213519139681E+00
  0.348575539579E-02
  0.348572632728E-02
  0.251685200867E-02
  0.251683973229E-02
  0.128019083616E-01
  0.128019157779E-01
  0.891569038470E-01
  0.891568940286E-01
  0.242991694082E+00
  0.242991731988E+00
  0.530437477435E+00
  0.530437443111E+00
  0.360708621070E+00
  0.360708669095E+00
  0.276287018663E-01
  0.276286604091E-01
 -0.130218071717E+00
 -0.130218062052E+00
 -0.204613826066E+00
 -0.204613833397E+00
 -0.214443159164E+00
 -0.214443147208E+00
 -0.213519139049E+00
 -0.213519111066E+00
  0.348569759910E-02
  0.348575539512E-02
  0.251690952999E-02
  0.251685201334E-02
  0.128019093294E-01
  0.128019083694E-01
  0.891568940714E-01
  0.891568937898E-01
  0.242991731484E+00
  0.242991670612E+00
  0.530437440912E+00
  0.530437418150E+00
  0.360708588782E+00
  0.360708619574E+00
  0.276286359907E-01
  0.276287018090E-01
 -0.130218072058E+00
 -0.130218071780E+00
 -0.204613833521E+00
 -0.204613832584E+00
 -0.214443147606E+00
 -0.214443092061E+00
 -0.213519111025E+00
 -0.213519166461E+00
  0.348571231418E-02
  0.348569760236E-02
  0.251694258974E-02
  0.251690953928E-02
  0.128018958115E-01
  0.128019093238E-01
  0.891568937769E-01
  0.891568971193E-01
  0.242991671651E+00
  0.242991727767E+00
  0.530437431830E+00
  0.530437638119E+00
  0.360708873323E+00
  0.360708598085E+00
  0.276286964823E-01
  0.276286361089E-01
 -0.130218068736E+00
 -0.130218072039E+00
 -0.204613832494E+00
 -0.204613845612E+00
 -0.214443092853E+00
 -0.214443061055E+00
 -0.213519166660E+00
 -0.213519152572E+00
  0.348568359069E-02
  0.348571231728E-02
  0.251688236830E-02
  0.251694258605E-02
  0.128019249547E-01
  0.128018958023E-01
  0.891568971248E-01
  0.891568889461E-01
  0.242991727175E+00
  0.242991800705E+00
  0.530437613111E+00
  0.530437182530E+00
  0.360708283996E+00
  0.360708856316E+00
  0.276287754132E-01
  0.276286964150E-01
 -0.130218076828E+00
 -0.130218068744E+00
 -0.204613845464E+00
 -0.204613817207E+00
 -0.214443060740E+00
 -0.214443118616E+00
 -0.213519152762E+00
 -0.213519180258E+00
  0.348569828988E-02
  0.348568357810E-02
  0.251685039749E-02
  0.251688235694E-02
  0.128019470508E-01
  0.128019249461E-01
  0.891568889363E-01
  0.891568770408E-01
  0.242991799834E+00
  0.242991608205E+00
  0.530437197518E+00
  0.530437423524E+00
  0.360708595734E+00
  0.360708294188E+00
  0.276285691443E-01
  0.276287753142E-01
 -0.130218088569E+00
 -0.130218076814E+00
 -0.204613817069E+00
 -0.204613795610E+00
 -0.214443117648E+00
 -0.214443148397E+00
 -0.213519179487E+00
 -0.213519165398E+00
  0.348550282266E-02
  0.348569829553E-02
  0.251691263858E-02
  0.251685040984E-02
  0.128019067175E-01
  0.128019470726E-01
  0.891568770671E-01
  0.891568882192E-01
  0.242991607615E+00
  0.242991678532E+00
  0.530437393677E+00
  0.530437084729E+00
  0.360708157487E+00
  0.360708575437E+00
  0.276286457573E-01
  0.276285690772E-01
 -0.130218077600E+00
 -0.130218088607E+00
 -0.204613795959E+00
 -0.204613835353E+00
 -0.214443149449E+00
 -0.214443089354E+00
 -0.213519165745E+00
 -0.213519353234E+00
  0.348568041116E-02
  0.348550282255E-02
  0.251691550946E-02
  0.251691265132E-02
  0.128019406630E-01
  0.128019067938E-01
  0.891568882297E-01
  0.891568841338E-01
  0.242991686567E+00
  0.242991688629E+00
  0.530437239559E+00
  0.530438139095E+00
  0.360709521358E+00
  0.360708262774E+00
  0.276286489263E-01
  0.276286466708E-01
 -0.130218081647E+00
 -0.130218077616E+00
 -0.204613836572E+00
 -0.204613803096E+00
 -0.214443090439E+00
 -0.214443087655E+00
 -0.213519353227E+00
 -0.213519182268E+00
  0.348560449546E-02
  0.348568048822E-02
  0.251685431774E-02
  0.251691552102E-02
  0.128018835311E-01
  0.128019405194E-01
  0.891568840932E-01
  0.891568993876E-01
  0.242991677822E+00
  0.242991727404E+00
  0.530437967612E+00
  0.530437505674E+00
  0.360708701998E+00
  0.360709404746E+00
  0.276287032777E-01
  0.276286476974E-01
 -0.130218066618E+00
 -0.130218081588E+00
 -0.204613800799E+00
 -0.204613858600E+00
 -0.214443088640E+00
 -0.214443149298E+00
 -0.213519186989E+00
 -0.213519260706E+00
  0.335217135037E-02
  0.242196990811E-02
  0.242143353989E-02
  0.122663733297E-01
  0.122665320040E-01
  0.829834632257E-01
  0.829835575261E-01
  0.215122818082E+00
  0.215122974292E+00
  0.449939566118E+00
  0.305968403697E+00
  0.244602703077E-01
  0.244599459108E-01
 -0.121201282994E+00
 -0.121201457394E+00
 -0.196057278516E+00
 -0.196057371556E+00
 -0.206313027516E+00
 -0.206312769211E+00
 -0.205345485818E+00
 -0.613530608024E-01
 -0.623932095199E-01
 -0.623875928094E-01
 -0.514666507602E-01
 -0.514681364311E-01
  0.234261204367E-01
  0.234260364896E-01
  0.150326203416E+00
  0.150326114522E+00
  0.358711830574E+00
  0.306250924686E+00
  0.757896995323E-01
  0.757900611874E-01
 -0.620507049411E-01
 -0.620502458690E-01
 -0.142568919111E+00
 -0.142568751093E+00
 -0.154258429846E+00
 -0.154258146793E+00
 -0.153145344085E+00
SCALARS C_p_inc float 1
LOOKUP_TABLE default
 -0.455429279067E+00
 -0.901009146324E+00
 -0.246777581117E+00
 -0.217667085713E+00
 -0.172430996602E+00
 -0.167906345871E+00
 -0.101570108255E+00
 -0.135712228655E+00
  0.105067482189E+00
  0.418694884502E-02
  0.521548959969E+00
  0.505756572626E+00
 -0.166163154911E+00
  0.170509142383E+00
 -0.438691052169E+00
 -0.291677463516E+00
 -0.301429528384E+00
 -0.321757654667E+00
 -0.166585069925E+00
 -0.906707347143E-01
  0.956058753517E-01
  0.208877995876E+00
  0.560715162152E+00
  0.438786768539E+00
 -0.348871243717E+00
 -0.440714402606E+00
 -0.192793498015E+00
 -0.252697085126E+00
 -0.175499915565E+00
 -0.174663886054E+00
 -0.134760626439E+00
 -0.163434391860E+00
  0.690358360282E-02
 -0.288318527681E-01
  0.438396254978E+00
  0.439545025417E+00
 -0.302999969844E+00
 -0.170220730449E+00
 -0.501214092429E+00
 -0.433996790101E+00
 -0.282970523077E+00
 -0.314351642680E+00
 -0.885118694124E-01
 -0.280062019386E-01
  0.200084736243E+00
  0.196485470121E+00
  0.431258532045E+00
  0.402209685535E+00
 -0.317974899101E+00
 -0.346763739896E+00
 -0.170416308988E+00
 -0.193142175709E+00
 -0.163401033536E+00
 -0.177880846604E+00
 -0.163720385573E+00
 -0.168129840157E+00
 -0.287368540664E-01
 -0.409231064757E-01
  0.433852547129E+00
  0.434395786570E+00
 -0.337139965541E+00
 -0.303252936499E+00
 -0.507894845651E+00
 -0.505333804438E+00
 -0.260948629778E+00
 -0.292070878730E+00
 -0.272457165055E-01
 -0.132455354678E-01
  0.194351637987E+00
  0.189951717298E+00
  0.401149770493E+00
  0.393603697641E+00
 -0.306102490222E+00
 -0.317335663713E+00
 -0.162902617534E+00
 -0.170445821170E+00
 -0.157922803594E+00
 -0.163945021809E+00
 -0.169353280746E+00
 -0.166617955663E+00
 -0.409991136671E-01
 -0.419408663465E-01
  0.437799633164E+00
  0.436926773845E+00
 -0.329248717560E+00
 -0.337134209510E+00
 -0.500635301122E+00
 -0.511880307114E+00
 -0.255011621315E+00
 -0.263904494312E+00
 -0.131871785109E-01
 -0.111130338521E-01
  0.189665368039E+00
  0.188404556590E+00
  0.393593553868E+00
  0.390804688056E+00
 -0.293737568955E+00
 -0.305513675191E+00
 -0.158104998624E+00
 -0.162780910426E+00
 -0.156043615359E+00
 -0.157916507982E+00
 -0.166987557055E+00
 -0.166872776858E+00
 -0.419953711912E-01
 -0.433275036284E-01
  0.438436679982E+00
  0.437245177287E+00
 -0.321179670467E+00
 -0.329248850463E+00
 -0.495816500503E+00
 -0.501825620385E+00
 -0.252337287437E+00
 -0.255549940407E+00
 -0.111073660575E-01
 -0.101855487938E-01
  0.188421710117E+00
  0.187264659428E+00
  0.390956326936E+00
  0.387414097455E+00
 -0.257359030216E+00
 -0.292884647883E+00
 -0.145507900990E+00
 -0.157627861675E+00
 -0.154072589979E+00
 -0.155603328499E+00
 -0.166448008042E+00
 -0.170879411748E+00
 -0.432787700155E-01
 -0.488340143666E-01
  0.436468915718E+00
  0.434052401276E+00
 -0.311563648228E+00
 -0.321178848959E+00
 -0.489196552535E+00
 -0.496073696682E+00
 -0.247558783299E+00
 -0.252615648287E+00
 -0.101886272768E-01
 -0.690086016860E-02
  0.187570790227E+00
  0.186136694880E+00
  0.388270466479E+00
  0.379103781217E+00
 -0.172551271409E+00
 -0.256714974324E+00
 -0.108362382683E+00
 -0.144508492579E+00
 -0.139466697551E+00
 -0.152642907195E+00
 -0.169051055112E+00
 -0.179943138074E+00
 -0.486121589280E-01
 -0.656974058076E-01
  0.429905777641E+00
  0.424405853678E+00
 -0.294513345796E+00
 -0.311583361215E+00
 -0.476463806727E+00
 -0.489124215759E+00
 -0.232048778580E+00
 -0.248596286744E+00
 -0.693000410925E-02
  0.956646073858E-02
  0.188011543147E+00
  0.187596803053E+00
  0.384469876713E+00
  0.361134027607E+00
 -0.824471018473E-01
 -0.172835790592E+00
 -0.510090465719E-01
 -0.107257991643E+00
 -0.105924746209E+00
 -0.137263043625E+00
 -0.176769096189E+00
 -0.166937472173E+00
 -0.655523968908E-01
 -0.106043604717E+00
  0.409751666557E+00
  0.398869042701E+00
 -0.269345174092E+00
 -0.294739371176E+00
 -0.450614691416E+00
 -0.475869696125E+00
 -0.179771096266E+00
 -0.238808170351E+00
  0.914022622987E-02
  0.358716182813E-01
  0.192791943346E+00
  0.188250113965E+00
  0.376473346961E+00
  0.306440770916E+00
 -0.320685173581E+03
 -0.224741780386E+00
 -0.649221739586E+00
 -0.500510960334E-01
 -0.682076791794E-01
 -0.104737905105E+00
 -0.165743843857E+00
 -0.126192986537E+00
 -0.110004820257E+00
 -0.101101325100E+00
  0.318167132169E+00
  0.298882505349E+00
 -0.241752487777E+00
 -0.273271310042E+00
 -0.311875606788E+00
 -0.463276256003E+00
 -0.112061708166E+00
 -0.210348895281E+00
  0.290742913261E-01
  0.517908120708E-01
  0.189682682420E+00
 -0.429250989481E+00
  0.767310043244E-01
 -0.324458222301E+03
 -0.708802366243E+03
 -0.542958216582E+01
 -0.670857489412E+00
 -0.513831949658E-01
 -0.775687349187E-01
 -0.133302712924E+00
 -0.132920773127E+00
 -0.147244004665E+00
 -0.157078250756E+00
  0.278946352584E-01
 -0.265749176175E+00
 -0.238260127059E+00
 -0.345608119071E+00
 -0.115464613858E+00
 -0.194605305940E+00
  0.202290356653E-02
 -0.230054977431E-01
 -0.743117510989E+00
 -0.391553636526E+01
 -0.697637478002E+03
 -0.473950204895E+03
 -0.735619126594E+01
 -0.908426315498E+00
 -0.729910120803E-01
 -0.910171748684E-01
 -0.161974162761E+00
 -0.166614464388E+00
 -0.208444789273E+00
 -0.220733040049E+00
 -0.122525427294E+00
 -0.223757674727E+00
 -0.251428927069E+00
 -0.268022392139E+00
 -0.158985310971E+00
 -0.187939430086E+00
 -0.610902668425E-01
 -0.887536914189E-01
 -0.106734718325E+01
 -0.472259707102E+01
 -0.462971890180E+03
SCALARS inclination float 1
LOOKUP_TABLE default
  0.100000000000E+01
  0.100000000000E+01
  0.100000000000E+01
  0.100000000000E+01
  0.100000000000E+01
  0.100000000000E+01
  0.100000000000E+01
  0.100000000000E+01
  0.100000000000E+01
  0.100000000000E+01
  0.100000000000E+01
  0.100000000000E+01
  0.100000000000E+01
  0.100000000000E+01
  0.100000000000E+01
  0.100000000000E+01
  0.100000000000E+01
  0.100000000000E+01
  0.100000000000E+01
  0.100000000000E+01
  0.100000000000E+01
  0.100000000000E+01
  0.100000000000E+01
  0.100000000000E+01
  0.100000000000E+01
  0.100000000000E+01
  0.100000000000E+01
  0.100000000000E+01
  0.100000000000E+01
  0.100000000000E+01
  0.100000000000E+01
  0.100000000000E+01
  0.100000000000E+01
  0.100000000000E+01
  0.100000000000E+01
  0.100000000000E+01
  0.100000000000E+01
  0.100000000000E+01
  0.100000000000E+01
  0.100000000000E+01
  0.100000000000E+01
  0.100000000000E+01
  0.100000000000E+01
  0.100000000000E+01
  0.100000000000E+01
  0.100000000000E+01
  0.100000000000E+01
  0.100000000000E+01
  0.100000000000E+01
  0.100000000000E+01
  0.100000000000E+01
  0.100000000000E+01
  0.100000000000E+01
  0.100000000000E+01
  0.100000000000E+01
  0.100000000000E+01
  0.100000000000E+01
  0.100000000000E+01
  0.100000000000E+01
  0.100000000000E+01
  0.100000000000E+01
  0.100000000000E+01
  0.100000000000E+01
  0.100000000000E+01
  0.100000000000E+01
  0.100000000000E+01
  0.100000000000E+01
  0.100000000000E+01
  0.100000000000E+01
  0.100000000000E+01
  0.100000000000E+01
  0.100000000000E+01
  0.100000000000E+01
  0.100000000000E+01
  0.100000000000E+01
  0.100000000000E+01
  0.100000000000E+01
  0.100000000000E+01
  0.100000000000E+01
  0.100000000000E+01
  0.100000000000E+01
  0.100000000000E+01
  0.100000000000E+01
  0.100000000000E+01
  0.100000000000E+01
  0.100000000000E+01
  0.100000000000E+01
  0.100000000000E+01
  0.100000000000E+01
  0.100000000000E+01
  0.100000000000E+01
  0.100000000000E+01
  0.100000000000E+01
  0.100000000000E+01
  0.100000000000E+01
  0.100000000000E+01
  0.100000000000E+01
  0.100000000000E+01
  0.100000000000E+01
  0.100000000000E+01
  0.100000000000E+01
  0.100000000000E+01
  0.100000000000E+01
  0.100000000000E+01
  0.100000000000E+01
  0.100000000000E+01
  0.100000000000E+01
  0.100000000000E+01
  0.100000000000E+01
  0.100000000000E+01
  0.100000000000E+01
  0.100000000000E+01
  0.100000000000E+01
  0.100000000000E+01
  0.100000000000E+01
  0.100000000000E+01
  0.100000000000E+01
  0.100000000000E+01
  0.100000000000E+01
  0.100000000000E+01
  0.100000000000E+01
  0.100000000000E+01
  0.100000000000E+01
  0.100000000000E+01
  0.100000000000E+01
  0.100000000000E+01
  0.100000000000E+01
  0.100000000000E+01
  0.100000000000E+01
  0.100000000000E+01
  0.100000000000E+01
  0.100000000000E+01
  0.100000000000E+01
  0.100000000000E+01
  0.100000000000E+01
  0.100000000000E+01
  0.100000000000E+01
  0.100000000000E+01
  0.100000000000E+01
  0.100000000000E+01
  0.100000000000E+01
  0.100000000000E+01
  0.100000000000E+01
  0.100000000000E+01
  0.100000000000E+01
  0.100000000000E+01
  0.100000000000E+01
  0.100000000000E+01
  0.100000000000E+01
  0.100000000000E+01
  0.100000000000E+01
  0.100000000000E+01
  0.100000000000E+01
  0.100000000000E+01
  0.100000000000E+01
  0.100000000000E+01
  0.100000000000E+01
  0.100000000000E+01
  0.100000000000E+01
  0.100000000000E+01
  0.100000000000E+01
  0.100000000000E+01
  0.100000000000E+01
  0.100000000000E+01
  0.100000000000E+01
  0.100000000000E+01
  0.100000000000E+01
  0.100000000000E+01
  0.100000000000E+01
  0.100000000000E+01
  0.100000000000E+01
  0.100000000000E+01
  0.100000000000E+01
  0.100000000000E+01
  0.100000000000E+01
  0.100000000000E+01
  0.100000000000E+01
  0.100000000000E+01
  0.100000000000E+01
  0.100000000000E+01
  0.100000000000E+01
  0.100000000000E+01
  0.100000000000E+01
  0.100000000000E+01
  0.100000000000E+01
  0.100000000000E+01
  0.100000000000E+01
  0.100000000000E+01
  0.100000000000E+01
  0.100000000000E+01
  0.100000000000E+01
  0.100000000000E+01
  0.100000000000E+01
  0.100000000000E+01
  0.100000000000E+01
  0.100000000000E+01
  0.100000000000E+01
  0.100000000000E+01
  0.100000000000E+01
  0.100000000000E+01
  0.100000000000E+01
  0.100000000000E+01
  0.100000000000E+01
  0.100000000000E+01
  0.100000000000E+01
  0.100000000000E+01
  0.100000000000E+01
  0.100000000000E+01
  0.100000000000E+01
  0.100000000000E+01
  0.100000000000E+01
  0.100000000000E+01
  0.100000000000E+01
  0.100000000000E+01
  0.100000000000E+01
  0.100000000000E+01
  0.100000000000E+01
  0.100000000000E+01
  0.100000000000E+01
  0.100000000000E+01
  0.100000000000E+01
  0.100000000000E+01
  0.100000000000E+01
  0.100000000000E+01
  0.100000000000E+01
  0.100000000000E+01
  0.100000000000E+01
  0.100000000000E+01
  0.100000000000E+01
  0.100000000000E+01
  0.100000000000E+01
  0.100000000000E+01
  0.100000000000E+01
  0.100000000000E+01
  0.100000000000E+01
  0.100000000000E+01
  0.100000000000E+01
  0.100000000000E+01
  0.100000000000E+01
  0.100000000000E+01
  0.100000000000E+01
  0.100000000000E+01
  0.100000000000E+01
  0.100000000000E+01
  0.100000000000E+01
  0.100000000000E+01
  0.100000000000E+01
  0.100000000000E+01
  0.100000000000E+01
  0.100000000000E+01
  0.100000000000E+01
  0.100000000000E+01
  0.100000000000E+01
  0.100000000000E+01
  0.100000000000E+01
  0.100000000000E+01
VECTORS v float
  0.192082230222E+03 -0.344633092175E+02  0.242073886683E+02
  0.218974300621E+03 -0.421832977502E+02  0.279058607999E+02
  0.180862719615E+03 -0.407152818146E+01  0.199432410751E+02
  0.178685467087E+03 -0.542982722166E+01  0.198549144725E+02
  0.175625019310E+03 -0.236936466397E+01  0.173366043966E+02
  0.175271283029E+03 -0.295579676435E+01  0.173592717119E+02
  0.171037061282E+03  0.127843328498E+01  0.350791712100E+01
  0.173493714688E+03 -0.778694868345E+01  0.374601084364E+01
  0.152407939918E+03  0.132988450783E+02 -0.192982547176E+02
  0.160676911862E+03 -0.922654803475E+01 -0.235702728421E+02
  0.950078038375E+02  0.564425846699E+02 -0.223543626239E+02
  0.100603566352E+03  0.439591224197E+02 -0.328340009030E+02
  0.150644387223E+03 -0.608169845108E+01  0.908464110745E+02
  0.132701134830E+03  0.339475046578E+02  0.572426269345E+02
  0.191575435114E+03 -0.249268116154E+02  0.300348012898E+02
  0.183423887585E+03 -0.272129303326E+01  0.258234497217E+02
  0.185837930080E+03 -0.513532929578E+01 -0.394629907349E+01
  0.187097588828E+03 -0.978363997837E+01 -0.406838669475E+01
  0.175231971581E+03  0.208201652627E+01 -0.168647580990E+02
  0.169164789687E+03 -0.797630767728E+01 -0.172534980970E+02
  0.154034997370E+03  0.715355942398E+01 -0.158396234322E+02
  0.144152654157E+03  0.988379556308E+00 -0.154387801654E+02
  0.961603561439E+02  0.489809150000E+02 -0.504130229489E+01
  0.113690715902E+03  0.439286714409E+02 -0.745434703550E+01
  0.186316145394E+03 -0.248095533318E+02  0.225597008697E+02
  0.192140809336E+03 -0.283732333067E+02  0.235628941865E+02
  0.176398032887E+03 -0.126303659900E+02  0.203847564967E+02
  0.180758730797E+03 -0.131173618070E+02  0.209075324818E+02
  0.175636120769E+03 -0.799472812975E+01  0.178855992379E+02
  0.175571877704E+03 -0.802416328711E+01  0.178822076810E+02
  0.173494500121E+03 -0.594678380647E+01  0.370800132400E+01
  0.175445366551E+03 -0.107428597118E+02  0.384742487595E+01
  0.160922500446E+03  0.378001643689E+01 -0.217999773681E+02
  0.163726489211E+03 -0.160844912821E+01 -0.229365018746E+02
  0.104131410701E+03  0.579866526509E+02 -0.267478470400E+02
  0.103830989382E+03  0.584672601672E+02 -0.262951203109E+02
  0.161237990938E+03  0.106025861086E+01  0.928471449673E+02
  0.154964564520E+03  0.110963353186E+02  0.833933430965E+02
  0.195124968603E+03 -0.290640744170E+02  0.311011804854E+02
  0.191624338316E+03 -0.223368625934E+02  0.296822885014E+02
  0.183994783213E+03 -0.147072847403E+02 -0.410601429786E+01
  0.185831916681E+03 -0.192237555693E+02 -0.423730560871E+01
  0.169215248080E+03 -0.260703159264E+01 -0.167354432820E+02
  0.164372200643E+03 -0.482602564902E+01 -0.164798638192E+02
  0.144316371320E+03  0.152298976651E+02 -0.139206260257E+02
  0.144647372022E+03  0.151929318496E+02 -0.139603056356E+02
  0.113715510113E+03  0.461249722751E+02 -0.722230949630E+01
  0.118016207217E+03  0.434908164424E+02 -0.796332746226E+01
  0.184467849650E+03 -0.223698532589E+02  0.221015204217E+02
  0.186313162125E+03 -0.237820787715E+02  0.224495913923E+02
  0.174758874672E+03 -0.122277233940E+02  0.201645584527E+02
  0.176393923081E+03 -0.129878741937E+02  0.204228668516E+02
  0.174527242835E+03 -0.111211857311E+02  0.180821126085E+02
  0.175605519306E+03 -0.112510302914E+02  0.181997835156E+02
  0.175445218073E+03 -0.110907330635E+02  0.385461019332E+01
  0.175742357572E+03 -0.116477923717E+02  0.387226174597E+01
  0.163763118328E+03  0.331456131744E+00 -0.226724654173E+02
  0.164699335184E+03 -0.111894008622E+01 -0.230035427485E+02
  0.104088648168E+03  0.594917707425E+02 -0.258506133737E+02
  0.103966338931E+03  0.596560654494E+02 -0.256844811312E+02