# vtk DataFile Version 3.0
TriPan results file. Generated by TriPan, USU AeroLab (c) 2021.
ASCII
DATASET POLYDATA
POINTS                  80 float
  0.190000000000E+02  0.000000000000E+00  0.000000000000E+00
  0.996248863071E+02  0.000000000000E+00  0.890107031584E+01
  0.193396415710E+02  0.339639574289E+00  0.000000000000E+00
  0.996289761415E+02  0.339639574289E+00  0.886402505923E+01
  0.197353687286E+02  0.735364913940E+00  0.000000000000E+00
  0.996337413372E+02  0.735364913940E+00  0.882086245680E+01
  0.201952877045E+02  0.119528055191E+01  0.000000000000E+00
  0.996392795063E+02  0.119528055191E+01  0.877069834871E+01
  0.207282505035E+02  0.172824025154E+01  0.000000000000E+00
  0.996456972413E+02  0.172824025154E+01  0.871256723245E+01
  0.213437728882E+02  0.234375929832E+01  0.000000000000E+00
  0.996531091273E+02  0.234375929832E+01  0.864543120837E+01
  0.220518741608E+02  0.305185556412E+01  0.000000000000E+00
  0.996616358131E+02  0.305185556412E+01  0.856819745495E+01
  0.228628253937E+02  0.386280250549E+01  0.000000000000E+00
  0.996714009789E+02  0.386280250549E+01  0.847974568967E+01
  0.237868041992E+02  0.478677463531E+01  0.000000000000E+00
  0.996825271796E+02  0.478677463531E+01  0.837896582387E+01
  0.248334121704E+02  0.583337688446E+01  0.000000000000E+00
  0.996951300341E+02  0.583337688446E+01  0.826481059621E+01
  0.260110912323E+02  0.701104879379E+01  0.000000000000E+00
  0.997093111967E+02  0.701104879379E+01  0.813635923227E+01
  0.273264064789E+02  0.832635498047E+01  0.000000000000E+00
  0.997251497218E+02  0.832635498047E+01  0.799289566659E+01
  0.287832584381E+02  0.978319931030E+01  0.000000000000E+00
  0.997426925781E+02  0.978319931030E+01  0.783399446228E+01
  0.303820724487E+02  0.113820018768E+02  0.000000000000E+00
  0.997619448873E+02  0.113820018768E+02  0.765960922695E+01
  0.321190223694E+02  0.131189413071E+02  0.000000000000E+00
  0.997828605765E+02  0.131189413071E+02  0.747015728403E+01
  0.339854316711E+02  0.149853391647E+02  0.000000000000E+00
  0.998053351663E+02  0.149853391647E+02  0.726658499661E+01
  0.359674301147E+02  0.169673271179E+02  0.000000000000E+00
  0.998292016365E+02  0.169673271179E+02  0.705040521414E+01
  0.380459861755E+02  0.190458717346E+02  0.000000000000E+00
  0.998542308167E+02  0.190458717346E+02  0.682369373588E+01
  0.401973724365E+02  0.211972446442E+02  0.000000000000E+00
  0.998801369904E+02  0.211972446442E+02  0.658903854964E+01
  0.423940925598E+02  0.233939495087E+02  0.000000000000E+00
  0.999065890573E+02  0.233939495087E+02  0.634943872557E+01
  0.446062088013E+02  0.256060504913E+02  0.000000000000E+00
  0.999332265183E+02  0.256060504913E+02  0.610815962194E+01
  0.468029289246E+02  0.278027553558E+02  0.000000000000E+00
  0.999596785851E+02  0.278027553558E+02  0.586855979787E+01
  0.489543113708E+02  0.299541282654E+02  0.000000000000E+00
  0.999855847130E+02  0.299541282654E+02  0.563390502772E+01
  0.510328712463E+02  0.320326728821E+02  0.000000000000E+00
  0.100010613939E+03  0.320326728821E+02  0.540719313338E+01
  0.530148696899E+02  0.340146598816E+02  0.000000000000E+00
  0.100034480409E+03  0.340146598816E+02  0.519101335092E+01
  0.548812789917E+02  0.358810577393E+02  0.000000000000E+00
  0.100056954999E+03  0.358810577393E+02  0.498744106349E+01
  0.566182289124E+02  0.376179962158E+02  0.000000000000E+00
  0.100077870688E+03  0.376179962158E+02  0.479798912056E+01
  0.582170410156E+02  0.392168006897E+02  0.000000000000E+00
  0.100097122975E+03  0.392168006897E+02  0.462360409328E+01
  0.596738929749E+02  0.406736450195E+02  0.000000000000E+00
  0.100114665831E+03  0.406736450195E+02  0.446470288896E+01
  0.609892082214E+02  0.419889526367E+02  0.000000000000E+00
  0.100130504356E+03  0.419889526367E+02  0.432123932329E+01
  0.621668891907E+02  0.431666221619E+02  0.000000000000E+00
  0.100144685541E+03  0.431666221619E+02  0.419278775131E+01
  0.632134971619E+02  0.442132263184E+02  0.000000000000E+00
  0.100157288396E+03  0.442132263184E+02  0.407863252365E+01
  0.641374740601E+02  0.451371994019E+02  0.000000000000E+00
  0.100168414574E+03  0.451371994019E+02  0.397785286588E+01
  0.649484252930E+02  0.459481430054E+02  0.000000000000E+00
  0.100178179740E+03  0.459481430054E+02  0.388940110060E+01
  0.656565246582E+02  0.466562423706E+02  0.000000000000E+00
  0.100186706402E+03  0.466562423706E+02  0.381216755522E+01
  0.662720489502E+02  0.472717590332E+02  0.000000000000E+00
  0.100194118311E+03  0.472717590332E+02  0.374503132311E+01
  0.668050155640E+02  0.478047180176E+02  0.000000000000E+00
  0.100200536092E+03  0.478047180176E+02  0.368689979077E+01
  0.672649307251E+02  0.482646369934E+02  0.000000000000E+00
  0.100206074215E+03  0.482646369934E+02  0.363673609876E+01
  0.676606597900E+02  0.486603622437E+02  0.000000000000E+00
  0.100210839434E+03  0.486603622437E+02  0.359357328829E+01
  0.680002975464E+02  0.490000000000E+02  0.000000000000E+00
  0.100214929223E+03  0.490000000000E+02  0.355652844775E+01
POLYGONS                  78                 312
3                   0                   1                   3
3                   0                   3                   2
3                   2                   3                   5
3                   2                   5                   4
3                   4                   5                   7
3                   4                   7                   6
3                   6                   7                   9
3                   6                   9                   8
3                   8                   9                  11
3                   8                  11                  10
3                  10                  11                  13
3                  10                  13                  12
3                  12                  13                  15
3                  12                  15                  14
3                  14                  15                  17
3                  14                  17                  16
3                  16                  17                  19
3                  16                  19                  18
3                  18                  19                  21
3                  18                  21                  20
3                  20                  21                  23
3                  20                  23                  22
3                  22                  23                  25
3                  22                  25                  24
3                  24                  25                  27
3                  24                  27                  26
3                  26                  27                  29
3                  26                  29                  28
3                  28                  29                  31
3                  28                  31                  30
3                  30                  31                  33
3                  30                  33                  32
3                  32                  33                  35
3                  32                  35                  34
3                  34                  35                  37
3                  34                  37                  36
3                  36                  37                  39
3                  36                  39                  38
3                  38                  39                  41
3                  38                  41                  40
3                  40                  41                  43
3                  40                  43                  42
3                  42                  43                  45
3                  42                  45                  44
3                  44                  45                  47
3                  44                  47                  46
3                  46                  47                  49
3                  46                  49                  48
3                  48                  49                  51
3                  48                  51                  50
3                  50                  51                  53
3                  50                  53                  52
3                  52                  53                  55
3                  52                  55                  54
3                  54                  55                  57
3                  54                  57                  56
3                  56                  57                  59
3                  56                  59                  58
3                  58                  59                  61
3                  58                  61                  60
3                  60                  61                  63
3                  60                  63                  62
3                  62                  63                  65
3                  62                  65                  64
3                  64                  65                  67
3                  64                  67                  66
3                  66                  67                  69
3                  66                  69                  68
3                  68                  69                  71
3                  68                  71                  70
3                  70                  71                  73
3                  70                  73                  72
3                  72                  73                  75
3                  72                  75                  74
3                  74                  75                  77
3                  74                  77                  76
3                  76                  77                  79
3                  76                  79                  78
POINT_DATA                  80
SCALARS mu float 1
LOOKUP_TABLE default
 -0.203554556307E-03
 -0.203554556307E-03
 -0.326399689463E-04
 -0.326399689463E-04
 -0.371130334500E-04
 -0.371130334500E-04
 -0.377183315514E-04
 -0.377183315514E-04
 -0.398540556645E-04
 -0.398540556645E-04
 -0.436093959699E-04
 -0.436093959699E-04
 -0.482597872420E-04
 -0.482597872420E-04
 -0.519744520986E-04
 -0.519744520986E-04
 -0.575131218099E-04
 -0.575131218099E-04
 -0.630850894190E-04
 -0.630850894190E-04
 -0.709462166348E-04
 -0.709462166348E-04
 -0.745997976956E-04
 -0.745997976956E-04
 -0.826988859721E-04
 -0.826988859721E-04
 -0.896617035373E-04
 -0.896617035373E-04
 -0.959993546843E-04
 -0.959993546843E-04
 -0.100343276166E-03
 -0.100343276166E-03
 -0.104141284567E-03
 -0.104141284567E-03
 -0.106458343950E-03
 -0.106458343950E-03
 -0.109741672183E-03
 -0.109741672183E-03
 -0.109034454965E-03
 -0.109034454965E-03
 -0.108594893675E-03
 -0.108594893675E-03
 -0.106112707911E-03
 -0.106112707911E-03
 -0.102781084351E-03
 -0.102781084351E-03
 -0.988090472021E-04
 -0.988090472021E-04
 -0.911011012121E-04
 -0.911011012121E-04
 -0.854626794080E-04
 -0.854626794080E-04
 -0.773776934935E-04
 -0.773776934935E-04
 -0.702183383225E-04
 -0.702183383225E-04
 -0.614883995809E-04
 -0.614883995809E-04
 -0.548432748815E-04
 -0.548432748815E-04
 -0.449433297547E-04
 -0.449433297547E-04
 -0.387353427840E-04
 -0.387353427840E-04
 -0.310254736604E-04
 -0.310254736604E-04
 -0.235547554865E-04
 -0.235547554865E-04
 -0.205329432390E-04
 -0.205329432390E-04
 -0.351146544659E-04
 -0.351146544659E-04
 -0.136199062979E-04
 -0.136199062979E-04
 -0.782883300587E-05
 -0.782883300587E-05
  0.124730113438E-02
  0.124730113438E-02
  0.000000000000E+00
  0.000000000000E+00
