# vtk DataFile Version 3.0
PyPan mesh file. Generated by PyPan, USU AeroLab (c) 2020.
ASCII
DATASET POLYDATA
POINTS 171 float
0.0                 0.0                 0.0                 
1.06029093266       0.0                 0.656371176243      
1.19654166698       0.0                 -0.693879961967     
3.9883954525        0.0                 1.11106681824       
4.45438766479       0.0                 -1.14480006695      
5.44444465637       5.44444465637       0.0                 
6.51998472214       5.44444465637       0.654490351677      
6.64109659195       5.44444465637       -0.687831521034     
8.88720703125       0.0                 1.10334706306       
9.4856595993        5.44444465637       1.09597408772       
9.89051628113       0.0                 -1.03229236603      
9.89987468719       5.44444465637       -1.12595915794      
10.8888893127       10.8888893127       0.0                 
11.979678154        10.8888893127       0.652609586716      
12.0856513977       10.8888893127       -0.681783080101     
13.7703762054       0.0                 0.668043196201      
14.4435176849       5.44444465637       1.07917356491       
14.9829235077       10.8888893127       1.08088135719       
15.3059177399       0.0                 -0.504808366299     
15.3353471756       5.44444465637       -1.01601374149      
15.3453617096       10.8888893127       -1.10711824894      
16.3333339691       16.3333339691       0.0                 
16.7203636169       0.0                 0.352431207895      
17.4393730164       16.3333339691       0.650728821754      
17.5302066803       16.3333339691       -0.675734698772     
18.0                0.0                 0.21400000155       
18.5                0.0                 0.160500004888      
18.5796165466       0.0                 -0.151773989201     
19.0                0.0                 0.107000000775      
19.3860664368       5.44444465637       0.647843897343      
19.5                0.0                 0.0535000003874     
19.9998283386       10.8888893127       1.05500006676       
20.0                0.0                 0.0                 
20.4801864624       16.3333339691       1.06578850746       
20.7509918213       5.44444465637       -0.502746284008     
20.7801780701       10.8888893127       -0.999735236168     
20.7908496857       16.3333339691       -1.08827733994      
21.7777786255       21.7777786255       0.0                 
22.3717422485       5.44444465637       0.331026017666      
22.899066925        21.7777786255       0.648847997189      
22.9747600555       21.7777786255       -0.669686257839     
23.6666660309       5.44444465637       0.190222233534      
24.0244121552       5.44444465637       -0.152664065361     
24.1111106873       5.44444465637       0.1426666677        
24.5555553436       5.44444465637       0.0951111167669     
25.0                5.44444465637       0.0475555583835     
25.0017566681       10.8888893127       0.627644658089      
25.4444446564       5.44444465637       0.0                 
25.556137085        16.3333339691       1.0308265686        
25.9774513245       21.7777786255       1.05069577694       
26.1960678101       10.8888893127       -0.500684261322     
26.2250099182       16.3333339691       -0.983456730843     
26.2363357544       21.7777786255       -1.06943643093      
27.2222213745       27.2222213745       0.0                 
28.0231208801       10.8888893127       0.309620857239      
28.3587589264       27.2222213745       0.646967232227      
28.4193153381       27.2222213745       -0.663637816906     
29.3333320618       10.8888893127       0.166444450617      
29.4692077637       10.8888893127       -0.15355412662      
29.7222213745       10.8888893127       0.124833337963      
30.1111106873       10.8888893127       0.0832222253084     
30.5                10.8888893127       0.0416111126542     
30.6174468994       16.3333339691       0.60744535923       
30.8888893127       10.8888893127       0.0                 
31.1124477386       21.7777786255       1.00665307045       
31.4747142792       27.2222213745       1.03560304642       
31.6411418915       16.3333339691       -0.498622179031     
31.6698417664       21.7777786255       -0.967178165913     
31.6818237305       27.2222213745       -1.05059552193      
32.6666679382       32.6666679382       0.0                 
33.6744995117       16.3333339691       0.288215667009      
33.8184547424       32.6666679382       0.645086407661      
33.8638687134       32.6666679382       -0.657589375973     
34.9140014648       16.3333339691       -0.154444202781     
35.0                16.3333339691       0.1426666677        
35.3333320618       16.3333339691       0.107000000775      
35.6666679382       16.3333339691       0.0713333338499     
36.0                16.3333339691       0.035666666925      
36.2331390381       21.7777786255       0.587246119976      
36.3333320618       16.3333339691       0.0                 
36.6687583923       27.2222213745       0.982479512691      
36.9719772339       32.6666679382       1.02051019669       
37.0862159729       21.7777786255       -0.496560126543     
37.1146736145       27.2222213745       -0.950899660587     
37.1273117065       32.6666679382       -1.03175461292      
38.1111106873       38.1111106873       0.0                 
39.2781486511       38.1111106873       0.6432056427        
39.3084259033       38.1111106873       -0.65154093504      
39.3258781433       21.7777786255       0.266810506582      
40.3587989807       21.7777786255       -0.155334278941     
40.6666679382       21.7777786255       0.118888892233      
40.944442749        21.7777786255       0.0891666710377     
41.2222213745       21.7777786255       0.0594444461167     
41.5                21.7777786255       0.0297222230583     
41.7777786255       21.7777786255       0.0                 
41.8488273621       27.2222213745       0.567046821117      
42.2250671387       32.6666679382       0.958306014538      
42.4692420959       38.1111106873       1.00541746616       
42.5312919617       27.2222213745       -0.494498044252     
42.5595054626       32.6666679382       -0.934621095657     
42.5727958679       38.1111106873       -1.01291370392      
43.555557251        43.555557251        0.0                 
44.7378425598       43.555557251        0.641324877739      
44.7529792786       43.555557251        -0.645492494106     
44.9772567749       27.2222213745       0.245405331254      
45.8035926819       27.2222213745       -0.156224355102     
46.3333320618       27.2222213745       0.0951111167669     
46.555557251        27.2222213745       0.0713333338499     
46.7777786255       27.2222213745       0.0475555583835     
47.0                27.2222213745       0.0237777791917     
47.2222213745       27.2222213745       0.0                 
47.4645195007       32.6666679382       0.546847581863      
47.7813796997       38.1111106873       0.934132516384      
47.966506958        43.555557251        0.990324676037      
47.9763679504       32.6666679382       -0.492435991764     
48.0043373108       38.1111106873       -0.918342590332     
48.018283844        43.555557251        -0.994072854519     
49.0                49.0                0.0                 
50.1975364685       49.0                -0.639444053173     
50.1975364685       49.0                0.639444053173      
50.5172653198       49.3194122314       -0.451916515827     
50.5173950195       49.3192825317       0.452161312103      
50.6286354065       32.6666679382       0.224000170827      
50.6497764587       49.4516029358       0.000173076798092   
51.2483901978       32.6666679382       -0.157114431262     
52.0                32.6666679382       0.0713333338499     
52.1666679382       32.6666679382       0.0535000003874     
52.3333320618       32.6666679382       0.035666666925      
52.5                32.6666679382       0.0178333334625     
52.6666679382       32.6666679382       0.0                 
53.0802116394       38.1111106873       0.526648342609      
53.337688446        43.555557251        0.90995901823       
53.4214401245       38.1111106873       -0.490373909473     
53.4491653442       43.555557251        -0.902064025402     
53.4637718201       49.0                -0.975231945515     
53.4637718201       49.0                0.975231945515      
53.9512672424       49.4857749939       -0.688665390015     
53.9519386292       49.4850959778       0.689006686211      
54.1535377502       49.686378479        0.000241281435592   
56.2800178528       38.1111106873       0.202594995499      
56.6931838989       38.1111106873       -0.158004492521     
57.6666679382       38.1111106873       0.0475555583835     
57.7777786255       38.1111106873       0.035666666925      
57.8888893127       38.1111106873       0.0237777791917     
58.0                38.1111106873       0.0118888895959     
58.1111106873       38.1111106873       0.0                 
58.6958999634       43.555557251        0.506449043751      
58.8665161133       43.555557251        -0.488311856985     
58.8939971924       49.0                -0.885785520077     
58.8939971924       49.0                0.885785520077      
59.3374252319       49.4402313232       -0.625839233398     
59.3387298584       49.438911438        0.625218570232      
59.5218811035       49.621509552        -0.000438802439021  
61.9313964844       43.555557251        0.18118982017       
62.1379776001       43.555557251        -0.158894568682     
63.3333320618       43.555557251        0.0237777791917     
63.3888893127       43.555557251        0.0178333334625     
63.444442749        43.555557251        0.0118888895959     
63.5                43.555557251        0.00594444479793    
63.555557251        43.555557251        0.0                 
64.3115921021       49.0                -0.486249774694     
64.3115921021       49.0                0.486249774694      
64.5557250977       49.2414588928       -0.343982845545     
64.5568161011       49.2403564453       0.343188405037      
64.6575775146       49.3406524658       -0.000561671680771  
67.5827713013       49.0                -0.159784644842     
67.5827713013       49.0                0.159784644842      
67.6630935669       49.0792655945       -0.113071478903     
67.663520813        49.0788269043       0.11275088042       
67.6966552734       49.1117744446       -0.000226674528676  
69.0                49.0                0.0                 
POLYGONS 324 1296
3 28 45 44
3 28 30 45
3 30 47 45
3 30 32 47
3 32 42 47
3 32 27 42
3 27 34 42
3 27 18 34
3 18 19 34
3 18 10 19
3 10 4 19
3 19 4 11
3 4 2 11
3 11 2 7
3 2 0 7
3 7 0 5
3 0 6 5
3 0 1 6
3 1 9 6
3 1 3 9
3 3 16 9
3 3 8 16
3 8 15 16
3 16 15 29
3 15 22 29
3 29 22 38
3 22 25 38
3 38 25 41
3 25 26 41
3 41 26 43
3 26 28 43
3 43 28 44
3 44 61 60
3 44 45 61
3 45 63 61
3 45 47 63
3 47 58 63
3 47 42 58
3 42 50 58
3 42 34 50
3 34 35 50
3 34 19 35
3 19 11 35
3 35 11 20
3 11 7 20
3 20 7 14
3 7 5 14
3 14 5 12
3 5 13 12
3 5 6 13
3 6 17 13
3 6 9 17
3 9 31 17
3 9 16 31
3 16 29 31
3 31 29 46
3 29 38 46
3 46 38 54
3 38 41 54
3 54 41 57
3 41 43 57
3 57 43 59
3 43 44 59
3 59 44 60
3 60 77 76
3 60 61 77
3 61 79 77
3 61 63 79
3 63 73 79
3 63 58 73
3 58 66 73
3 58 50 66
3 50 51 66
3 50 35 51
3 35 20 51
3 51 20 36
3 20 14 36
3 36 14 24
3 14 12 24
3 24 12 21
3 12 23 21
3 12 13 23
3 13 33 23
3 13 17 33
3 17 48 33
3 17 31 48
3 31 46 48
3 48 46 62
3 46 54 62
3 62 54 70
3 54 57 70
3 70 57 74
3 57 59 74
3 74 59 75
3 59 60 75
3 75 60 76
3 76 93 92
3 76 77 93
3 77 94 93
3 77 79 94
3 79 89 94
3 79 73 89
3 73 82 89
3 73 66 82
3 66 67 82
3 66 51 67
3 51 36 67
3 67 36 52
3 36 24 52
3 52 24 40
3 24 21 40
3 40 21 37
3 21 39 37
3 21 23 39
3 23 49 39
3 23 33 49
3 33 64 49
3 33 48 64
3 48 62 64
3 64 62 78
3 62 70 78
3 78 70 88
3 70 74 88
3 88 74 90
3 74 75 90
3 90 75 91
3 75 76 91
3 91 76 92
3 92 109 108
3 92 93 109
3 93 110 109
3 93 94 110
3 94 105 110
3 94 89 105
3 89 98 105
3 89 82 98
3 82 83 98
3 82 67 83
3 67 52 83
3 83 52 68
3 52 40 68
3 68 40 56
3 40 37 56
3 56 37 53
3 37 55 53
3 37 39 55
3 39 65 55
3 39 49 65
3 49 80 65
3 49 64 80
3 64 78 80
3 80 78 95
3 78 88 95
3 95 88 104
3 88 90 104
3 104 90 106
3 90 91 106
3 106 91 107
3 91 92 107
3 107 92 108
3 108 128 127
3 108 109 128
3 109 129 128
3 109 110 129
3 110 124 129
3 110 105 124
3 105 114 124
3 105 98 114
3 98 99 114
3 98 83 99
3 83 68 99
3 99 68 84
3 68 56 84
3 84 56 72
3 56 53 72
3 72 53 69
3 53 71 69
3 53 55 71
3 55 81 71
3 55 65 81
3 65 96 81
3 65 80 96
3 80 95 96
3 96 95 111
3 95 104 111
3 111 104 122
3 104 106 122
3 122 106 125
3 106 107 125
3 125 107 126
3 107 108 126
3 126 108 127
3 127 144 143
3 127 128 144
3 128 145 144
3 128 129 145
3 129 140 145
3 129 124 140
3 124 132 140
3 124 114 132
3 114 115 132
3 114 99 115
3 99 84 115
3 115 84 100
3 84 72 100
3 100 72 87
3 72 69 87
3 87 69 85
3 69 86 85
3 69 71 86
3 71 97 86
3 71 81 97
3 81 112 97
3 81 96 112
3 96 111 112
3 112 111 130
3 111 122 130
3 130 122 139
3 122 125 139
3 139 125 141
3 125 126 141
3 141 126 142
3 126 127 142
3 142 127 143
3 143 158 157
3 143 144 158
3 144 159 158
3 144 145 159
3 145 154 159
3 145 140 154
3 140 147 154
3 140 132 147
3 132 133 147
3 132 115 133
3 115 100 133
3 133 100 116
3 100 87 116
3 116 87 103
3 87 85 103
3 103 85 101
3 85 102 101
3 85 86 102
3 86 113 102
3 86 97 113
3 97 131 113
3 97 112 131
3 112 130 131
3 131 130 146
3 130 139 146
3 146 139 153
3 139 141 153
3 153 141 155
3 141 142 155
3 155 142 156
3 142 143 156
3 156 143 157
3 157 158 170
3 158 159 170
3 159 165 170
3 159 154 165
3 154 160 165
3 154 147 160
3 147 148 160
3 147 133 148
3 133 116 148
3 148 116 134
3 116 103 134
3 134 103 118
3 103 101 118
3 118 101 117
3 101 119 117
3 101 102 119
3 102 135 119
3 102 113 135
3 113 149 135
3 113 131 149
3 131 146 149
3 149 146 161
3 146 153 161
3 161 153 166
3 153 155 166
3 166 155 170
3 155 156 170
3 156 157 170
3 170 165 167
3 165 162 167
3 165 160 162
3 160 150 162
3 160 148 150
3 148 134 150
3 150 134 136
3 134 118 136
3 136 118 120
3 118 117 120
3 117 119 121
3 119 137 121
3 119 135 137
3 135 151 137
3 135 149 151
3 149 161 151
3 151 161 163
3 161 166 163
3 163 166 168
3 166 170 168
3 170 167 169
3 167 164 169
3 167 162 164
3 162 152 164
3 162 150 152
3 150 136 152
3 152 136 138
3 136 120 138
3 138 120 123
3 120 117 123
3 117 121 123
3 121 138 123
3 121 137 138
3 137 152 138
3 137 151 152
3 151 163 152
3 152 163 164
3 163 168 164
3 164 168 169
3 168 170 169
CELL_DATA 324
SCALARS panel_area float 1
LOOKUP_TABLE default
1.22365063836       
1.37660632549       
1.22365063889       
1.37660632602       
3.91006746742       
3.91056817417       
9.01248288806       
9.01443083171       
14.8739132031       
14.8769563118       
14.8038391504       
14.8016714886       
9.04113629623       
9.03135549452       
4.21418726702       
4.1980518935        
3.86277657746       
3.83897262516       
8.25109350855       
8.16614178775       
13.4964723163       
13.3357242894       
13.3952683561       
13.5556794426       
8.12162896487       
8.21876722695       
3.52405276154       
3.56653186351       
1.3766063217        
1.22365064192       
1.3766063263        
1.22365063402       
1.07069494944       
1.22365063881       
1.07069495006       
1.22365063943       
3.90963959688       
3.91013753786       
9.01003412821       
9.01197760807       
14.8674166461       
14.870354747        
14.8017892544       
14.7996313236       
9.03418221527       
9.02474486162       
4.19968419758       
4.18363667058       
3.88965358361       
3.86554838222       
8.34095190844       
8.25522191045       
13.6573526242       
13.4964759743       
13.553759911        
13.7142216126       
8.21836340517       
8.31551051127       
3.56658135217       
3.60906235525       
1.22365064132       
1.07069494897       
1.22365063338       
1.07069494944       
0.917734131716      
1.07069495006       
0.917734128139      
1.07069494649       
3.90921490938       
3.90971006869       
9.0075990364        
9.00953293497       
14.8611110537       
14.8639570003       
14.7997458435       
14.7975976654       
9.02749249373       
9.0184002661        
4.18526026688       
4.16930283451       
3.91680248008       
3.89239856884       
8.43139428414       
8.34491547897       
13.8183147385       
13.6573167243       
13.7123436327       
13.8728589445       
8.31510997183       
8.41226555351       
3.60911209315       
3.6516000328        
1.0706949524        
0.917734128095      
1.07069494882       
0.917744396883      
0.764783570098      
0.917734128172      
0.764783573686      
0.917734131759      
3.90879346087       
3.90928584453       
9.00518808535       
9.00710201261       
14.8550045069       
14.8577504284       
14.7977089342       
14.7955757095       
9.02106853204       
9.01232103563       
4.17091730538       
4.15504584947       
3.94421260729       
3.91952048621       
8.52241594991       
8.43519623588       
13.9793583498       
13.818240204        
13.8710216691       
14.0315832606       
8.41186828061       
8.50902686949       
3.65165000236       
3.69413969665       
0.917734131803      
0.76477330748       
0.917744392194      
0.764783571182      
0.611822543303      
0.764783308758      
0.611822540893      
0.764783306348      
3.90837378758       
3.90886339492       
9.00277221527       
9.00469203655       
14.8490972835       
14.8517378258       
14.7956785518       
14.7935498906       
9.01490677352       
9.00650467032       
4.15665048018       
4.14087746133       
3.97187939537       
3.9469025554        
8.61398801721       
8.52605650332       
14.1404809078       
13.9792411698       
14.0297807947       
14.1903762371       
8.50862971818       
8.60580643846       
3.69418862449       
3.7366696913        
0.764773040135      
0.611832811791      
0.764783314586      
0.611822541135      
0.4588723538        
0.611822964752      
0.45887235621       
0.611822967162      
3.90796143118       
3.90844826148       
9.00038990463       
9.00228973936       
14.8434050044       
14.8459452869       
14.7936650243       
14.7915461332       
9.00902000778       
9.00096908869       
4.14247657398       
4.12678389518       
3.99980277864       
3.97454705695       
8.70609490898       
8.61748222394       
14.3016892262       
14.1403416469       
14.1886274655       
14.349280961        
8.60542135698       
8.7025953819        
3.73672274988       
3.77921576602       
0.61183323208       
0.458872355021      
0.611822962595      
0.45886208863       
0.305911271651      
0.458872038312      
0.305911270446      
0.458872037107      
3.90754678392       
3.90803084338       
8.99800875706       
8.9998989515        
14.8378814446       
14.8403316969       
14.7916372945       
14.7895385427       
9.00339207802       
8.99566757173       
4.12836917517       
4.11278454593       
4.02797209752       
4.00243884318       
8.79871904688       
8.70942483383       
14.4629562132       
14.301493989        
14.3475503199       
14.50823388         
8.70220130459       
8.79939287453       
3.77926385017       
3.8217481058        
0.458872038329      
0.305911271536      
0.458861773144      
0.305911270568      
0.152960873178      
0.305911482381      
0.152960874377      
0.305911483581      
3.90715107304       
3.90762205613       
8.9956436848        
8.99753456634       
14.8325992571       
14.834928265        
14.7896471721       
14.7875374467       
8.99802297339       
8.99066627311       
4.11436528835       
4.09885895568       
4.05638102024       
4.0305871831        
8.8918583139        
8.80191188114       
14.6243041453       
14.4627458748       
14.5065604819       
14.6672829911       
8.79901375022       
8.8962123664        
3.82180164047       
3.86428743901       
0.305911482277      
0.152960873725      
0.305911481298      
0.152950607466      
0.152960768403      
0.152960768403      
3.90674282551       
3.90722131914       
8.99327991803       
8.99516115217       
14.8274862225       
14.8297249901       
14.7876221047       
14.7855325188       
8.99292911588       
8.98591017884       
4.10042568211       
4.08502945652       
4.08502945652       
4.05896513358       
8.98547264298       
8.89489257403       
14.7857003417       
14.6240389609       
14.6656257311       
14.8263956784       
8.89582397601       
8.99300860037       
3.86433587238       
3.90684366888       
0.152960767751      
0.152950502699      
0.0625067372536     
0.144874077237      
0.441257885026      
0.73743600983       
1.34487824837       
1.37826207859       
1.52095391232       
0.968684473486      
0.636116736243      
0.304994555102      
0.304858046691      
0.635870581341      
0.967514345268      
1.51911482869       
1.37596674659       
1.34234417405       
0.735794808738      
0.440121695697      
0.144441780033      
0.0623070195539     
0.0773231791031     
0.180005738453      
0.547900274704      
0.923239874937      
1.68153921142       
1.74930699563       
1.92798453197       
1.25309915432       
0.822649132471      
0.394641590343      
0.394611596197      
0.822550405411      
1.25331971208       
1.92800062644       
1.75114765838       
1.68324359288       
0.92482090328       
0.54888538219       
0.180392301843      
0.0774910972258     
VECTORS panel_centroids float
22.8518517812        3.62962977091        0.0832222253084     
21.1666666667        1.81481488546        0.0693518531819     
23.3148148855        3.62962977091        0.033685186257      
21.6481482188        1.81481488546        0.0178333334625     
23.1562856038        3.62962977091        -0.050888021787     
20.8680095673        1.81481488546        -0.101479351521     
21.1183401744        3.62962977091        -0.26906144619      
18.2121753693        1.81481488546        -0.386442879836     
17.1307522456        3.62962977091        -0.674522797267     
13.5105937322        1.81481488546        -0.85103815794      
9.89341704051        1.81481488546        -1.06436872482      
9.8965365092         3.62962977091        -1.09559098879      
5.18360133966        1.81481488546        -0.988213062286     
5.91250431538        3.62962977091        -0.835890213648     
2.61254608631        1.81481488546        -0.460570494334     
4.02851374944        3.62962977091        -0.229277173678     
3.98814312617        3.62962977091        0.218163450559      
2.5267585516         1.81481488546        0.43695384264       
5.6886450847         3.62962977091        0.802278538545      
4.84478199482        1.81481488546        0.954470694065      
9.30585757891        3.62962977091        1.09540482362       
9.10637338956        1.81481488546        1.09786248207       
12.3670336405        1.81481488546        0.950187941392      
15.8666534424        3.62962977091        0.798353552818      
16.6256020864        1.81481488546        0.55610610048       
19.4927241007        3.62962977091        0.443767040968      
19.0307019552        1.81481488546        0.299152409037      
21.3461360931        3.62962977091        0.245082750916      
20.0555553436        1.81481488546        0.188240746657      
22.0925922394        3.62962977091        0.164462968707      
20.5370368958        1.81481488546        0.136722224454      
22.5555553436        3.62962977091        0.114925928414      
28.388888677         9.07407442729        0.0733148182432     
26.6851851145        7.25925954183        0.0614259292682     
28.7962964376        9.07407442729        0.0297222236792     
27.111111323         7.25925954183        0.0158518527945     
28.6008472443        9.07407442729        -0.0511847088734    
26.3126881917        7.25925954183        -0.10207273066      
26.563229243         9.07407442729        -0.268967484434     
23.6571572622        7.25925954183        -0.38536487023      
22.5757459005        9.07407442729        -0.667721927166     
18.955505689         7.25925954183        -0.839498420556     
15.3384666443        7.25925954183        -1.0472360452       
15.3418048223        9.07407442729        -1.07760421435      
10.6287776629        7.25925954183        -0.973636309306     
11.3573698997        9.07407442729        -0.825577616692     
8.05706421534        7.25925954183        -0.456538200378     
9.47299512227        9.07407442729        -0.2272610267       
9.4376707077         9.07407442729        0.217536528905      
7.9813691775         7.25925954183        0.435699979464      
11.1608621279        9.07407442729        0.795993765195      
10.3295226097        7.25925954183        0.943781932195      
14.8228038152        9.07407442729        1.07728517056       
14.6430018743        7.25925954183        1.07671590646       
17.9431374868        7.25925954183        0.927339176337      
21.4625504812        9.07407442729        0.77682954073       
22.2531884511        7.25925954183        0.535504857699      
25.1322065989        9.07407442729        0.422763844331      
24.6871763865        7.25925954183        0.276956369479      
27.0077063243        9.07407442729        0.22209584713       
25.7037029266        7.25925954183        0.166444450617      
27.7222213745        9.07407442729        0.144648152093      
26.1296291351        7.25925954183        0.120870374143      
28.1296291351        9.07407442729        0.101055560013      
33.9259262085        14.5185190837        0.0634074086944     
32.2037035624        12.7037041982        0.0535000016292     
34.2777773539        14.5185190837        0.0257592598597     
32.5740737915        12.7037041982        0.0138703708847     
34.0454076131        14.5185190837        -0.0514814009269    
31.7573661804        12.7037041982        -0.1026661098       
32.00811704          14.5185190837        -0.268873502811     
29.1021391551        12.7037041982        -0.384286855658     
28.0207398733        14.5185190837        -0.660921057065     
24.4004185994        12.7037041982        -0.827958742778     
20.783516566         12.7037041982        -1.03010340532      
20.7870737712        14.5185190837        -1.05961743991      
16.0739542643        12.7037041982        -0.959059556325     
16.8022359212        14.5185190837        -0.815265039603     
13.5015824636        12.7037041982        -0.452505926291     
14.9174766541        14.5185190837        -0.225244899591     
14.8871987661        14.5185190837        0.216909607251      
13.435980161         12.7037041982        0.434446136157      
16.6330792109        14.5185190837        0.789708971977      
15.814262708         12.7037041982        0.933093150457      
20.3397490184        14.5185190837        1.05916547775       
20.1796296438        12.7037041982        1.05556933085       
23.5192406972        12.7037041982        0.90449043115       
27.0584468842        14.5185190837        0.755305528641      
27.8807748159        12.7037041982        0.514903624852      
30.7716890971        14.5185190837        0.401760627826      
30.3436508179        12.7037041982        0.254760324955      
32.6692771912        14.5185190837        0.199108928442      
31.3518511454        12.7037041982        0.144648152093      
33.3518511454        14.5185190837        0.124833335479      
31.7222213745        12.7037041982        0.105018521349      
33.7037035624        14.5185190837        0.0871851866444     
39.4629631042        19.96296374          0.0535000010083     
37.7222226461        18.1481488546        0.0455740746111     
39.7592595418        19.96296374          0.0217962966611     
38.0370368958        18.1481488546        0.011888888975      
39.4899698893        19.96296374          -0.0517780929804    
37.2020441691        18.1481488546        -0.103259493907     
37.4530054728        19.96296374          -0.268779536088     
34.5471197764        18.1481488546        -0.383208836118     
33.4657332102        19.96296374          -0.654120157162     
29.845331192         18.1481488546        -0.816419025262     
26.2285671234        18.1481488546        -1.01297074556      
26.2323424021        19.96296374          -1.04163064559      
21.5191307068        18.1481488546        -0.944482823213     
22.2471008301        19.96296374          -0.804952462514     
18.946100235         18.1481488546        -0.448473652204     
20.36195755          19.96296374          -0.223228752613     
20.3367265066        19.96296374          0.21628266573       
18.8905913035        18.1481488546        0.433192272981      
22.1052970886        19.96296374          0.783424198627      
21.2990036011        18.1481488546        0.922404368718      
25.8566951752        19.96296374          1.04104578495       
25.7162570953        18.1481488546        1.0344227155        
29.0953439077        18.1481488546        0.881641666094      
32.6543445587        19.96296374          0.733781516552      
33.5083618164        18.1481488546        0.494302382072      
36.411172231         19.96296374          0.380757431189      
36.000125885         18.1481488546        0.23256428043       
38.3308486938        19.96296374          0.176122022172      
37.0                 18.1481488546        0.122851853569      
38.9814809163        19.96296374          0.105018521349      
37.3148142497        18.1481488546        0.0891666685541     
39.2777773539        19.96296374          0.0733148170014     
45.0                 25.4074071248        0.043592594564      
43.2407404582        23.5925928752        0.0376481494556     
45.2407404582        25.4074071248        0.0178333340834     
43.5                 23.5925928752        0.00990740768611    
44.934530894         25.4074071248        -0.0520747850339    
42.6467234294        23.5925928752        -0.103852878014     
42.8978945414        25.4074071248        -0.268685559432     
39.9921023051        23.5925928752        -0.382130816579     