# vtk DataFile Version 3.0
MachLine results file. Generated by MachLine, USU AeroLab (c) 2022.
ASCII
DATASET POLYDATA
POINTS                  36 float
  0.209237651825E+02  0.192375373840E+01  0.000000000000E+00
  0.190000000000E+02  0.000000000000E+00  0.000000000000E+00
  0.148964468816E+05  0.192375373840E+01  0.166855726154E+04
  0.148973729091E+05  0.000000000000E+00  0.166887691700E+04
  0.244703655243E+02  0.547033166885E+01  0.000000000000E+00
  0.209237651825E+02  0.192375373840E+01  0.000000000000E+00
  0.148947396829E+05  0.547033166885E+01  0.166796795356E+04
  0.148964468816E+05  0.192375373840E+01  0.166855726154E+04
  0.303820724487E+02  0.113820018768E+02  0.000000000000E+00
  0.244703655243E+02  0.547033166885E+01  0.000000000000E+00
  0.148918940118E+05  0.113820018768E+02  0.166698565622E+04
  0.148947396829E+05  0.547033166885E+01  0.166796795356E+04
  0.387563171387E+02  0.197561950684E+02  0.000000000000E+00
  0.303820724487E+02  0.113820018768E+02  0.000000000000E+00
  0.148878629685E+05  0.197561950684E+02  0.166559418022E+04
  0.148918940118E+05  0.113820018768E+02  0.166698565622E+04
  0.482439842224E+02  0.292438049316E+02  0.000000000000E+00
  0.387563171387E+02  0.197561950684E+02  0.000000000000E+00
  0.148832959659E+05  0.292438049316E+02  0.166401769643E+04
  0.148878629685E+05  0.197561950684E+02  0.166559418022E+04
  0.566182289124E+02  0.376179962158E+02  0.000000000000E+00
  0.482439842224E+02  0.292438049316E+02  0.000000000000E+00
  0.148792649226E+05  0.376179962158E+02  0.166262622043E+04
  0.148832959659E+05  0.292438049316E+02  0.166401769643E+04
  0.625299339294E+02  0.435296669006E+02  0.000000000000E+00
  0.566182289124E+02  0.376179962158E+02  0.000000000000E+00
  0.148764192524E+05  0.435296669006E+02  0.166164392341E+04
  0.148792649226E+05  0.376179962158E+02  0.166262622043E+04
  0.660765380859E+02  0.470762481689E+02  0.000000000000E+00
  0.625299339294E+02  0.435296669006E+02  0.000000000000E+00
  0.148747120518E+05  0.470762481689E+02  0.166105461479E+04
  0.148764192524E+05  0.435296669006E+02  0.166164392341E+04
  0.680002975464E+02  0.490000000000E+02  0.000000000000E+00
  0.660765380859E+02  0.470762481689E+02  0.000000000000E+00
  0.148737860271E+05  0.490000000000E+02  0.166073496028E+04
  0.148747120518E+05  0.470762481689E+02  0.166105461479E+04
POLYGONS                  18                  72
3                   0                   3                   1
3                   0                   2                   3
3                   4                   7                   5
3                   4                   6                   7
3                   8                  11                   9
3                   8                  10                  11
3                  12                  15                  13
3                  12                  14                  15
3                  16                  19                  17
3                  16                  18                  19
3                  20                  23                  21
3                  20                  22                  23
3                  24                  27                  25
3                  24                  26                  27
3                  28                  31                  29
3                  28                  30                  31
3                  32                  35                  33
3                  32                  34                  35
POINT_DATA                  36
SCALARS mu float 1
LOOKUP_TABLE default
  0.261182463084E+01
 -0.112263461220E+00
  0.261182463084E+01
 -0.112263461220E+00
 -0.570763905004E+00
  0.261182463084E+01
 -0.570763905004E+00
  0.261182463084E+01
  0.488223707818E+00
 -0.570763905004E+00
  0.488223707818E+00
 -0.570763905004E+00
  0.355961595347E+00
  0.488223707818E+00
  0.355961595347E+00
  0.488223707818E+00
  0.425403754961E+00
  0.355961595347E+00
  0.425403754961E+00
  0.355961595347E+00
  0.162443582309E+00
  0.425403754961E+00
  0.162443582309E+00
  0.425403754961E+00
  0.680774407251E+00
  0.162443582309E+00
  0.680774407251E+00
  0.162443582309E+00
 -0.169512869146E+01
  0.680774407251E+00
 -0.169512869146E+01
  0.680774407251E+00
  0.000000000000E+00
 -0.169512869146E+01
  0.000000000000E+00
 -0.169512869146E+01
