# vtk DataFile Version 3.0
MachLine results file. Generated by MachLine, USU AeroLab (c) 2022.
ASCII
DATASET POLYDATA
POINTS                3261 float
  0.000000000000E+00  0.000000000000E+00  0.000000000000E+00
  0.138131193817E-01  0.239259991795E-01  0.000000000000E+00
  0.184377916157E-01  0.000000000000E+00 -0.191644169390E-01
  0.184377916157E-01  0.000000000000E+00  0.191644169390E-01
  0.276262387633E-01  0.478519983590E-01  0.000000000000E+00
  0.320895873010E-01  0.239259991795E-01 -0.189967341721E-01
  0.320895873010E-01  0.239259991795E-01  0.189967341721E-01
  0.414393581450E-01  0.717779994011E-01  0.000000000000E+00
  0.457413829863E-01  0.478519983590E-01 -0.188290514052E-01
  0.457413829863E-01  0.478519983590E-01  0.188290514052E-01
  0.460614785552E-01  0.000000000000E+00 -0.248102936894E-01
  0.460614785552E-01  0.000000000000E+00  0.248102936894E-01
  0.552524775267E-01  0.957039967179E-01  0.000000000000E+00
  0.593931749463E-01  0.717779994011E-01 -0.186613686383E-01
  0.593931749463E-01  0.717779994011E-01  0.186613686383E-01
  0.594715774059E-01  0.239259991795E-01 -0.245932117105E-01
  0.594715774059E-01  0.239259991795E-01  0.245932117105E-01
  0.690656006336E-01  0.119630001485E+00  0.000000000000E+00
  0.728816688061E-01  0.478519983590E-01 -0.243761278689E-01
  0.728816688061E-01  0.478519983590E-01  0.243761278689E-01
  0.730449706316E-01  0.957039967179E-01 -0.184936858714E-01
  0.730449706316E-01  0.957039967179E-01  0.184936858714E-01
  0.740515887737E-01  0.000000000000E+00 -0.284879114479E-01
  0.740515887737E-01  0.000000000000E+00  0.284879114479E-01
  0.828787162900E-01  0.143555998802E+00  0.000000000000E+00
  0.862917676568E-01  0.717779994011E-01 -0.241590458900E-01
  0.862917676568E-01  0.717779994011E-01  0.241590458900E-01
  0.866967663169E-01  0.119630001485E+00 -0.183260031044E-01
  0.866967663169E-01  0.119630001485E+00  0.183260031044E-01
  0.872167795897E-01  0.239259991795E-01 -0.282386522740E-01
  0.872167795897E-01  0.239259991795E-01  0.282386522740E-01
  0.966918393970E-01  0.167482003570E+00  0.000000000000E+00
  0.997018665075E-01  0.957039967179E-01 -0.239419639111E-01
  0.997018665075E-01  0.957039967179E-01  0.239419639111E-01
  0.100348562002E+00  0.143555998802E+00 -0.181583203375E-01
  0.100348562002E+00  0.143555998802E+00  0.181583203375E-01
  0.100381970406E+00  0.478519983590E-01 -0.279893912375E-01
  0.100381970406E+00  0.478519983590E-01  0.279893912375E-01
  0.102138325572E+00  0.000000000000E+00 -0.313414372504E-01
  0.102138325572E+00  0.000000000000E+00  0.313414372504E-01
  0.110504955053E+00  0.191407993436E+00  0.000000000000E+00
  0.113111965358E+00  0.119630001485E+00 -0.237248819321E-01
  0.113111965358E+00  0.119630001485E+00  0.237248819321E-01
  0.113547168672E+00  0.717779994011E-01 -0.277401320636E-01
  0.113547168672E+00  0.717779994011E-01  0.277401320636E-01
  0.114000357687E+00  0.167482003570E+00 -0.179906394333E-01
  0.114000357687E+00  0.167482003570E+00  0.179906394333E-01
  0.115057766438E+00  0.239259991795E-01 -0.310672093183E-01
  0.115057766438E+00  0.239259991795E-01  0.310672093183E-01
  0.124318078160E+00  0.215333998203E+00  0.000000000000E+00
  0.126522064209E+00  0.143555998802E+00 -0.235077999532E-01
  0.126522064209E+00  0.143555998802E+00  0.235077999532E-01
  0.126712352037E+00  0.957039967179E-01 -0.274908710271E-01
  0.126712352037E+00  0.957039967179E-01  0.274908710271E-01
  0.127652153373E+00  0.191407993436E+00 -0.178229566664E-01
  0.127652153373E+00  0.191407993436E+00  0.178229566664E-01
  0.127977207303E+00  0.478519983590E-01 -0.307929813862E-01
  0.127977207303E+00  0.478519983590E-01  0.307929813862E-01
  0.130280584097E+00  0.000000000000E+00 -0.335864275694E-01
  0.130280584097E+00  0.000000000000E+00  0.335864275694E-01
  0.138131201267E+00  0.239260002971E+00  0.000000000000E+00
  0.139877542853E+00  0.119630001485E+00 -0.272416118532E-01
  0.139877542853E+00  0.119630001485E+00  0.272416118532E-01
  0.139932155609E+00  0.167482003570E+00 -0.232907179743E-01
  0.139932155609E+00  0.167482003570E+00  0.232907179743E-01
  0.140896648169E+00  0.717779994011E-01 -0.305187534541E-01
  0.140896648169E+00  0.717779994011E-01  0.305187534541E-01
  0.141303941607E+00  0.215333998203E+00 -0.176552738994E-01
  0.141303941607E+00  0.215333998203E+00  0.176552738994E-01
  0.142953783274E+00  0.239259991795E-01 -0.332925543189E-01
  0.142953783274E+00  0.239259991795E-01  0.332925543189E-01
  0.151944324374E+00  0.263186007738E+00  0.000000000000E+00
  0.153042748570E+00  0.143555998802E+00 -0.269923508167E-01
  0.153042748570E+00  0.143555998802E+00  0.269923508167E-01
  0.153342247009E+00  0.191407993436E+00 -0.230736359954E-01
  0.153342247009E+00  0.191407993436E+00  0.230736359954E-01
  0.153816103935E+00  0.957039967179E-01 -0.302445273846E-01
  0.153816103935E+00  0.957039967179E-01  0.302445273846E-01
  0.154955744743E+00  0.239260002971E+00 -0.174875911325E-01
  0.154955744743E+00  0.239260002971E+00  0.174875911325E-01
  0.155626997352E+00  0.478519983590E-01 -0.329986847937E-01
  0.155626997352E+00  0.478519983590E-01  0.329986847937E-01
  0.158455848694E+00  0.000000000000E+00 -0.353712737560E-01
  0.158455848694E+00  0.000000000000E+00  0.353712737560E-01
  0.165757432580E+00  0.287111997604E+00  0.000000000000E+00
  0.166207939386E+00  0.167482003570E+00 -0.267430916429E-01
  0.166207939386E+00  0.167482003570E+00  0.267430916429E-01
  0.166735544801E+00  0.119630001485E+00 -0.299702994525E-01
  0.166735544801E+00  0.119630001485E+00  0.299702994525E-01
  0.166752353311E+00  0.215333998203E+00 -0.228565540165E-01
  0.166752353311E+00  0.215333998203E+00  0.228565540165E-01
  0.168300196528E+00  0.717779994011E-01 -0.327048152685E-01
  0.168300196528E+00  0.717779994011E-01  0.327048152685E-01
  0.168607532978E+00  0.263186007738E+00 -0.173199083656E-01
  0.168607532978E+00  0.263186007738E+00  0.173199083656E-01
  0.170882523060E+00  0.239259991795E-01 -0.350617878139E-01
  0.170882523060E+00  0.239259991795E-01  0.350617878139E-01
  0.179373130202E+00  0.191407993436E+00 -0.264938306063E-01
  0.179373130202E+00  0.191407993436E+00  0.264938306063E-01
  0.179570555687E+00  0.311037987471E+00  0.000000000000E+00
  0.179654985666E+00  0.143555998802E+00 -0.296960715204E-01
  0.179654985666E+00  0.143555998802E+00  0.296960715204E-01
  0.180162444711E+00  0.239260002971E+00 -0.226394720376E-01
  0.180162444711E+00  0.239260002971E+00  0.226394720376E-01
  0.180973410606E+00  0.957039967179E-01 -0.324109420180E-01
  0.180973410606E+00  0.957039967179E-01  0.324109420180E-01
  0.182259336114E+00  0.287111997604E+00 -0.171522255987E-01
  0.182259336114E+00  0.287111997604E+00  0.171522255987E-01
  0.183309212327E+00  0.478519983590E-01 -0.347523018718E-01
  0.183309212327E+00  0.478519983590E-01  0.347523018718E-01
  0.186651825905E+00  0.000000000000E+00 -0.367915518582E-01
  0.186651825905E+00  0.000000000000E+00  0.367915518582E-01
  0.192538321018E+00  0.215333998203E+00 -0.262445714325E-01
  0.192538321018E+00  0.215333998203E+00  0.262445714325E-01
  0.192574426532E+00  0.167482003570E+00 -0.294218435884E-01
  0.192574426532E+00  0.167482003570E+00  0.294218435884E-01
  0.193383678794E+00  0.334964007139E+00  0.000000000000E+00
  0.193572536111E+00  0.263186007738E+00 -0.224223900586E-01
  0.193572536111E+00  0.263186007738E+00  0.224223900586E-01
  0.193646609783E+00  0.119630001485E+00 -0.321170724928E-01
  0.193646609783E+00  0.119630001485E+00  0.321170724928E-01
  0.195735886693E+00  0.717779994011E-01 -0.344428122044E-01
  0.195735886693E+00  0.717779994011E-01  0.344428122044E-01
  0.195911124349E+00  0.311037987471E+00 -0.169845428318E-01
  0.195911124349E+00  0.311037987471E+00  0.169845428318E-01
  0.198831796646E+00  0.239259991795E-01 -0.364696383476E-01
  0.198831796646E+00  0.239259991795E-01  0.364696383476E-01
  0.205493867397E+00  0.191407993436E+00 -0.291476156563E-01
  0.205493867397E+00  0.191407993436E+00  0.291476156563E-01
  0.205703511834E+00  0.239260002971E+00 -0.259953103960E-01
  0.205703511834E+00  0.239260002971E+00  0.259953103960E-01
  0.206319823861E+00  0.143555998802E+00 -0.318232029676E-01
  0.206319823861E+00  0.143555998802E+00  0.318232029676E-01
  0.206982642412E+00  0.287111997604E+00 -0.222053080797E-01
  0.206982642412E+00  0.287111997604E+00  0.222053080797E-01
  0.207196801901E+00  0.358889997005E+00  0.000000000000E+00
  0.208162575960E+00  0.957039967179E-01 -0.341333262622E-01
  0.208162575960E+00  0.957039967179E-01  0.341333262622E-01
  0.209562927485E+00  0.334964007139E+00 -0.168168619275E-01
  0.209562927485E+00  0.334964007139E+00  0.168168619275E-01
  0.211011782289E+00  0.478519983590E-01 -0.361477248371E-01
  0.211011782289E+00  0.478519983590E-01  0.361477248371E-01
  0.214861869812E+00  0.000000000000E+00 -0.378986261785E-01
  0.214861869812E+00  0.000000000000E+00  0.378986261785E-01
  0.218413308263E+00  0.215333998203E+00 -0.288733895868E-01
  0.218413308263E+00  0.215333998203E+00  0.288733895868E-01
  0.218868702650E+00  0.263186007738E+00 -0.257460512221E-01
  0.218868702650E+00  0.263186007738E+00  0.257460512221E-01
  0.218993023038E+00  0.167482003570E+00 -0.315293334424E-01
  0.218993023038E+00  0.167482003570E+00  0.315293334424E-01
  0.220392733812E+00  0.311037987471E+00 -0.219882261008E-01
  0.220392733812E+00  0.311037987471E+00  0.219882261008E-01
  0.220589250326E+00  0.119630001485E+00 -0.338238403201E-01
  0.220589250326E+00  0.119630001485E+00  0.338238403201E-01
  0.221009910107E+00  0.382815986872E+00  0.000000000000E+00
  0.223191753030E+00  0.717779994011E-01 -0.358258113265E-01
  0.223191753030E+00  0.717779994011E-01  0.358258113265E-01
  0.223214715719E+00  0.358889997005E+00 -0.166491791606E-01
  0.223214715719E+00  0.358889997005E+00  0.166491791606E-01
  0.226795017719E+00  0.239259991795E-01 -0.375670231879E-01
  0.226795017719E+00  0.239259991795E-01  0.375670231879E-01
[...]
CELL_DATA                6372
SCALARS C_p_inc float 1
LOOKUP_TABLE default
 -0.782184017900E+00
 -0.532978561170E+00
 -0.461063759688E+00
 -0.429426601472E+00
 -0.408132787622E+00
 -0.393128279096E+00
 -0.383063834280E+00
 -0.376650831359E+00
 -0.372407759976E+00
 -0.368753325688E+00
 -0.364116066178E+00
 -0.357137085683E+00
 -0.346824284468E+00
 -0.332674246776E+00
 -0.314726052964E+00
 -0.293513817074E+00
 -0.269948925741E+00
 -0.245139845768E+00
 -0.220150249120E+00
 -0.195794687753E+00
 -0.172360472366E+00
 -0.149325738566E+00
 -0.125182242059E+00
 -0.972929420509E-01
 -0.620140079830E-01
 -0.150079211787E-01
  0.392949606714E-01
 -0.869342919851E+00
 -0.567783253898E+00
 -0.479162737490E+00
 -0.440158019300E+00
 -0.414985306191E+00
 -0.397795943434E+00
 -0.386409833342E+00
 -0.379074155936E+00
 -0.374036451575E+00
 -0.369566177120E+00
 -0.364029481279E+00
 -0.356069572017E+00
 -0.344741370979E+00
 -0.329612750447E+00
 -0.310797682660E+00
 -0.288888540125E+00
 -0.264825355029E+00
 -0.239707092723E+00
 -0.214552166455E+00
 -0.190098763599E+00
 -0.166538350622E+00
 -0.143252369748E+00
 -0.118658124042E+00
 -0.901023090985E-01
 -0.540251839803E-01
 -0.629924807502E-02
  0.480488636777E-01
 -0.930065650808E+00
 -0.597850157879E+00
 -0.497414413168E+00
 -0.452245352637E+00
 -0.423380060812E+00
 -0.403832604113E+00
 -0.390835075887E+00
 -0.382289831380E+00
 -0.376236379461E+00
 -0.370824762153E+00
 -0.364364214672E+00
 -0.355486927798E+00
 -0.343267741514E+00
 -0.327310828982E+00
 -0.307768445104E+00
 -0.285260937769E+00
 -0.260737418790E+00
 -0.235283606630E+00
 -0.209883507470E+00
 -0.185226057697E+00
 -0.161448287536E+00
 -0.137887013296E+00
 -0.112942638317E+00
 -0.839997251544E-01
 -0.476284945757E-01
  0.145894338432E-05
  0.531896264104E-01
 -0.976547308031E+00
 -0.623106890048E+00
 -0.514091414662E+00
 -0.464038520840E+00
 -0.431986810201E+00
 -0.410236929255E+00
 -0.395628888198E+00
 -0.385823143491E+00
 -0.378707190047E+00
 -0.372340460629E+00
 -0.364985647513E+00
 -0.355260001755E+00
 -0.342245107330E+00
 -0.325562800044E+00
 -0.305384671314E+00
 -0.282343734819E+00
 -0.257389695453E+00
 -0.231596000405E+00
 -0.205922743108E+00
 -0.181029150067E+00
 -0.157024812790E+00
 -0.133232150388E+00
 -0.108065397402E+00
 -0.789680495135E-01
 -0.426365850425E-01
  0.454487586166E-02
  0.565778333494E-01
 -0.101427422740E+01
 -0.644591681891E+00
 -0.528996703278E+00
 -0.475027851076E+00
 -0.440275543802E+00
 -0.416556675985E+00
 -0.400443309212E+00
 -0.389425001088E+00
 -0.381278608833E+00
 -0.373995526981E+00
 -0.365800736507E+00
 -0.355296799941E+00
 -0.341565297517E+00
 -0.324236185487E+00
 -0.303490155061E+00
 -0.279965416562E+00
 -0.254609753887E+00
 -0.228486890590E+00
 -0.202542025283E+00
 -0.177417859749E+00
 -0.153213138087E+00
 -0.129251908744E+00
 -0.103971567239E+00
 -0.748680771421E-01
 -0.387175161639E-01
  0.802441797207E-02
  0.594169270213E-01
 -0.104608112498E+01
 -0.663170379851E+00
 -0.542282881478E+00
 -0.485095524241E+00
 -0.448044126424E+00
 -0.422588329231E+00
 -0.405106028171E+00
 -0.392962124045E+00
 -0.383851508057E+00
 -0.375713540923E+00
 -0.366742942916E+00
 -0.355528588207E+00
 -0.341149235878E+00
 -0.323237618687E+00
 -0.301978846374E+00
 -0.278013007516E+00
 -0.252285610864E+00
 -0.225854124153E+00
 -0.199655150037E+00
 -0.174323618471E+00
 -0.149955803483E+00
 -0.125883424044E+00
 -0.100565399542E+00
 -0.715319201995E-01
 -0.355924801786E-01
  0.108179832904E-01
  0.620383214099E-01
 -0.107360139767E+01
 -0.679470840530E+00
 -0.554164365291E+00
 -0.494265449070E+00
 -0.455235549164E+00
 -0.428249371651E+00
 -0.409535864652E+00
 -0.396364971940E+00
 -0.386368404299E+00
 -0.377444649106E+00
 -0.367764216205E+00
 -0.355903379644E+00
 -0.340937010293E+00
 -0.322498495989E+00
 -0.300774749322E+00
 -0.276406955964E+00
 -0.250338874239E+00
 -0.223624449971E+00
 -0.197196277761E+00
 -0.171686168202E+00
 -0.147191480291E+00
 -0.123052203132E+00
 -0.977424127453E-01
 -0.688118382107E-01
 -0.330820278940E-01
  0.130300362511E-01
  0.640088050308E-01
 -0.109785791627E+01
 -0.693944359155E+00
 -0.564843072073E+00
 -0.502610591816E+00
 -0.461856974159E+00
 -0.433517711540E+00
 -0.413700683035E+00
 -0.399599757665E+00
 -0.388796729899E+00
 -0.379156611796E+00
 -0.368829659064E+00
 -0.356381706822E+00
 -0.340883169576E+00
 -0.321966984770E+00
 -0.299821270433E+00
 -0.275088039747E+00
 -0.248710468273E+00
 -0.221740894649E+00
 -0.195110019964E+00
 -0.169449289332E+00
 -0.144857964708E+00
 -0.120682011560E+00
 -0.954056092779E-01
 -0.665903206047E-01
 -0.310692811353E-01
  0.147186275903E-01
  0.651438799027E-01
 -0.111953310015E+01
 -0.706921815715E+00
 -0.574492124681E+00
 -0.510215930417E+00
 -0.467943480550E+00
 -0.438400908039E+00
 -0.417594072356E+00
 -0.402653780952E+00
 -0.391119219406E+00
 -0.380828428230E+00
 -0.369914489583E+00
 -0.356933645417E+00
 -0.340952367681E+00
 -0.321603116498E+00
 -0.299074891120E+00
 -0.274010283215E+00
 -0.247353295923E+00
 -0.220155665916E+00
 -0.193347338289E+00
 -0.167560030851E+00
 -0.142894762383E+00
 -0.118701010596E+00
 -0.934696975469E-01
 -0.647706412091E-01
 -0.294507298510E-01
  0.160184765305E-01
  0.659283916640E-01
 -0.113910748902E+01
 -0.718651933449E+00
 -0.583255306389E+00
 -0.517164030876E+00
 -0.473539316951E+00
 -0.442920552065E+00
 -0.421223574573E+00
 -0.405525061265E+00
 -0.393328070702E+00
 -0.382447125237E+00
 -0.371000571357E+00
 -0.357536234511E+00
 -0.341117195330E+00
 -0.321375262141E+00
 -0.298500331876E+00
 -0.273136249573E+00
 -0.246227728315E+00
 -0.218826930696E+00
 -0.191863359129E+00
 -0.165968846300E+00
 -0.141245193451E+00
 -0.117044130591E+00
 -0.918598964900E-01
 -0.632678961707E-01
 -0.281246761790E-01
  0.170746647966E-01
  0.664933111038E-01
 -0.115693073671E+01
 -0.729325425122E+00
 -0.591251700663E+00
 -0.523529691365E+00
 -0.478690159228E+00
 -0.447102897022E+00
 -0.424603002035E+00
 -0.408218345423E+00
 -0.395420955680E+00
 -0.384004753182E+00
 -0.372074858653E+00
 -0.358171716567E+00
 -0.341355376568E+00
 -0.321257581608E+00
 -0.298068633584E+00
 -0.272434035729E+00
 -0.245299396069E+00
 -0.217717014785E+00
 -0.190616889899E+00
 -0.164630088883E+00
 -0.139857989726E+00
 -0.115653326326E+00
 -0.905110323116E-01
 -0.620081682075E-01
 -0.270028045180E-01
  0.180145008306E-01
  0.672686585725E-01
 -0.117326752896E+01
 -0.739091718247E+00
 -0.598579038227E+00
 -0.529378619466E+00
 -0.483439712334E+00
 -0.450975574068E+00
 -0.427747998135E+00
 -0.410741196306E+00
 -0.397398947957E+00
 -0.385496535419E+00
 -0.373127457190E+00
 -0.358825899312E+00
 -0.341649045497E+00
 -0.321228198142E+00
 -0.297754778482E+00
 -0.271875556508E+00
 -0.244537286194E+00
 -0.216792340839E+00
 -0.189570437089E+00
 -0.163501975102E+00
 -0.138687416026E+00
 -0.114478050452E+00
 -0.893679679730E-01
 -0.609322978667E-01
 -0.260240305846E-01
  0.188816110722E-01
  0.680358125296E-01
 -0.118832311143E+01
 -0.748069864741E+00
 -0.605318370134E+00
 -0.534767340608E+00
 -0.487826863056E+00
 -0.454564789280E+00
 -0.430675094154E+00
 -0.413102206467E+00
 -0.399264253862E+00
 -0.386919567764E+00
 -0.374151055347E+00
 -0.359487147035E+00
 -0.341982509616E+00
 -0.321268306981E+00
 -0.297536788958E+00
 -0.271435949934E+00
 -0.243913376387E+00
 -0.216021863986E+00
 -0.188690302865E+00
 -0.162547485628E+00
 -0.137692941730E+00
 -0.113475426517E+00
 -0.883860066510E-01
 -0.599963832720E-01
 -0.251523125367E-01
  0.196778638207E-01
  0.687281944137E-01
 -0.120225872494E+01
 -0.756355751457E+00
 -0.611536899313E+00
 -0.539744613888E+00
 -0.491886020929E+00
 -0.457893968481E+00
 -0.433399706820E+00
 -0.415310237292E+00
 -0.401019874136E+00
 -0.388271995958E+00
 -0.375139253549E+00
 -0.360145246632E+00
 -0.342342418406E+00
 -0.321361067327E+00
 -0.297394740174E+00
 -0.271092552263E+00
 -0.243402647765E+00
 -0.215377549424E+00
 -0.187945686329E+00
 -0.161734192987E+00
 -0.136840133618E+00
 -0.112609628740E+00
 -0.875301995525E-01
 -0.591685096840E-01
 -0.243611188525E-01
  0.204376841539E-01
  0.694863264725E-01
 -0.121520298103E+01
 -0.764027711479E+00
 -0.617290357103E+00
 -0.544350673982E+00
 -0.495646839460E+00
 -0.460984415781E+00
 -0.435935413799E+00
 -0.417372883656E+00
 -0.402668817873E+00
 -0.389552083741E+00
 -0.376086717455E+00
 -0.360791283225E+00
 -0.342716070334E+00
 -0.321491159835E+00
 -0.297310715841E+00
 -0.270824600781E+00
 -0.242981798014E+00
 -0.214834378655E+00
 -0.187309571721E+00
 -0.161033236126E+00
 -0.136099673916E+00
 -0.111851920074E+00
 -0.867736600514E-01
 -0.584257348315E-01
 -0.236344898455E-01
  0.211701850354E-01
  0.703183751054E-01
 -0.122726151775E+01
 -0.771149388456E+00
 -0.622624638547E+00
 -0.548620549566E+00
 -0.499134788914E+00
 -0.463853926092E+00
 -0.438294459478E+00
 -0.419296970936E+00
 -0.404212950837E+00
 -0.390758183083E+00
 -0.376988085785E+00
 -0.361416728245E+00
 -0.343092249594E+00
 -0.321644298871E+00
 -0.297267869798E+00
 -0.270613255321E+00
 -0.242629807227E+00
 -0.214369526652E+00
 -0.186758105324E+00
 -0.160419877615E+00
 -0.135446915015E+00
 -0.111178951897E+00
 -0.860959423710E-01
 -0.577538794306E-01
 -0.229710598468E-01
  0.218459392891E-01
  0.711504351973E-01
 -0.123851978814E+01
 -0.777774107327E+00
 -0.627578225023E+00
 -0.552582627054E+00
 -0.502371124160E+00
 -0.466517700611E+00
 -0.440486446342E+00
 -0.421087861534E+00
 -0.405654093828E+00
 -0.391888134421E+00
 -0.377838160216E+00
 -0.362013277323E+00
 -0.343459836565E+00
 -0.321807166110E+00
 -0.297250587386E+00
 -0.270440949744E+00
 -0.242327603553E+00
 -0.213962263378E+00
 -0.186269917803E+00
 -0.159872873565E+00
 -0.134860860986E+00
 -0.110571303522E+00
 -0.854813046557E-01
 -0.571441013294E-01
 -0.223774853899E-01
  0.223967623753E-01
  0.715213437591E-01
 -0.124904715441E+01
 -0.783943946964E+00
 -0.632182550058E+00
 -0.556260953780E+00
 -0.505373274507E+00
 -0.468987733351E+00
 -0.442519435456E+00
 -0.422749412708E+00
 -0.406992402288E+00
 -0.392939473262E+00
 -0.378631078457E+00
 -0.362572687394E+00
 -0.343808362762E+00
 -0.321966913640E+00
 -0.297244163000E+00
 -0.270291161669E+00
 -0.242057355584E+00
 -0.213594333448E+00
 -0.185826020351E+00
 -0.159373027683E+00
 -0.134323340257E+00
 -0.110012496451E+00
 -0.849157745642E-01
 -0.565850953654E-01
 -0.218413464342E-01
  0.228780262031E-01
  0.718199316261E-01
 -0.125890004397E+01
 -0.789694921457E+00
 -0.636463640750E+00
 -0.559674366583E+00
 -0.508155354647E+00
 -0.471274075843E+00
 -0.444399074497E+00
 -0.424284277059E+00
 -0.408227180650E+00
 -0.393908508970E+00
 -0.379361164101E+00
 -0.363086574005E+00
 -0.344127160896E+00
 -0.322111243908E+00
 -0.297234595438E+00
 -0.270148543573E+00
 -0.241802886790E+00
 -0.213248715356E+00
 -0.185409199516E+00
 -0.158903509527E+00
 -0.133818139256E+00
 -0.109487411001E+00
 -0.843849559984E-01
 -0.560617369531E-01
 -0.213366663925E-01
  0.233694526127E-01
  0.724580667390E-01
 -0.126812495935E+01
 -0.795055086285E+00
 -0.640442004349E+00
 -0.562838942613E+00
 -0.510728539724E+00
 -0.473383736316E+00
 -0.446129001363E+00
 -0.425693184346E+00
 -0.409357024050E+00
 -0.394790914584E+00
 -0.380021687047E+00
 -0.363546330139E+00
 -0.344405870063E+00
 -0.322228009352E+00
 -0.297208261271E+00
 -0.269998513445E+00
 -0.241548725937E+00
 -0.212909657068E+00
 -0.185003289042E+00
 -0.158448458571E+00
 -0.133330256960E+00
 -0.108981532479E+00
 -0.838749512403E-01
 -0.555603788794E-01
 -0.208543297920E-01
  0.238251705476E-01
  0.728263684532E-01
 -0.127675741872E+01
 -0.800047694824E+00
 -0.644134062180E+00
 -0.565765912326E+00
 -0.513100678062E+00
 -0.475321616611E+00
 -0.447711616879E+00
 -0.426975234285E+00
 -0.410378652376E+00
 -0.395581758041E+00
 -0.380605228806E+00
 -0.363942943682E+00
 -0.344633807559E+00
 -0.322304894645E+00
 -0.297151863896E+00
 -0.269826968598E+00
 -0.241280141760E+00
 -0.212561697641E+00
 -0.184593390854E+00
 -0.157993081037E+00
 -0.132844948858E+00
 -0.108480852160E+00
 -0.833728683813E-01
 -0.550703542766E-01
 -0.203911585788E-01
  0.242418655959E-01
  0.731887067567E-01
 -0.128482655907E+01
 -0.804689636104E+00
 -0.647552146818E+00
 -0.568464187094E+00
 -0.515277256241E+00
 -0.477090120078E+00
 -0.449146893196E+00
 -0.428128632239E+00
 -0.411287435094E+00
 -0.396274474104E+00
 -0.381104063227E+00
 -0.364266676359E+00
 -0.344799780379E+00
 -0.322329821674E+00
 -0.297052345008E+00
 -0.269619873989E+00
 -0.240982538676E+00
 -0.212190449288E+00
 -0.184164874523E+00
 -0.157522839582E+00
 -0.132348071238E+00
 -0.107971677357E+00
 -0.828655985497E-01
 -0.545799225521E-01
 -0.199355935294E-01
  0.246342843620E-01
  0.734555644616E-01
 -0.129235341963E+01
 -0.808993468946E+00
 -0.650704761119E+00
 -0.570938867355E+00
 -0.517260807910E+00
 -0.478689976346E+00
 -0.450432665160E+00
 -0.429149406787E+00
 -0.412078100444E+00
 -0.396861548732E+00
 -0.381508899145E+00
 -0.364507203225E+00
 -0.344892231118E+00
 -0.322289948290E+00
 -0.296896101312E+00
 -0.269363235121E+00
 -0.240641535095E+00
 -0.211781226339E+00
 -0.183702916184E+00
 -0.157023439348E+00
 -0.131825442770E+00
 -0.107439953867E+00
 -0.823388135916E-01
 -0.540732809665E-01
 -0.194688549028E-01
  0.250215969323E-01
  0.736266782692E-01
 -0.129935164652E+01
 -0.812968458582E+00
 -0.653596920517E+00
 -0.573192831458E+00
 -0.519052067790E+00
 -0.480119147444E+00
 -0.451565525510E+00
 -0.430031859424E+00
 -0.412743376640E+00
 -0.397334657155E+00
 -0.381809830769E+00
 -0.364653103101E+00
 -0.344898785560E+00
 -0.322172191253E+00
 -0.296669208738E+00
 -0.269042733213E+00
 -0.240242669380E+00
 -0.211319257604E+00
 -0.183192981198E+00
 -0.156480066953E+00
 -0.131262731624E+00
 -0.106870939507E+00
 -0.817769254910E-01
 -0.535315195662E-01
 -0.189606611181E-01
  0.254828136597E-01
  0.740236834167E-01
 -0.130582950549E+01
 -0.816618220569E+00
 -0.656230726535E+00
 -0.575225815511E+00
 -0.520648507818E+00
 -0.481373697170E+00
 -0.452539851871E+00
 -0.430768847497E+00
 -0.413274428511E+00
 -0.397683481446E+00
 -0.381995467898E+00
 -0.364691968213E+00
 -0.344805946850E+00
 -0.321962456988E+00
 -0.296357154855E+00
 -0.268643061379E+00
 -0.239770581556E+00
 -0.210789450801E+00
 -0.182620089258E+00
 -0.155877837505E+00
 -0.130644582695E+00
 -0.106249755303E+00
 -0.811642714928E-01
 -0.529368792769E-01
 -0.183881205860E-01
  0.260473876825E-01
  0.746620644040E-01
 -0.131178881612E+01
 -0.819943678536E+00
 -0.658604406944E+00
 -0.577034475408E+00
 -0.522045523488E+00
 -0.482447165663E+00
 -0.453347697080E+00
 -0.431351311641E+00
 -0.413660818682E+00
 -0.397896218813E+00
 -0.382052882067E+00
 -0.364609941705E+00
 -0.344599169291E+00
 -0.321645301859E+00
 -0.295944031817E+00
 -0.268148588065E+00
 -0.239209304042E+00
 -0.210175864436E+00
 -0.181968259078E+00
 -0.155201480347E+00
 -0.129956285950E+00
 -0.105561886478E+00
 -0.804870689999E-01
 -0.522780546167E-01
 -0.177504214115E-01
  0.266740879648E-01
  0.753315571943E-01
 -0.131722388112E+01
 -0.822939762796E+00
 -0.660713859519E+00
 -0.578612929628E+00
 -0.523235745571E+00
 -0.483331311846E+00
 -0.453979200817E+00
 -0.431767732779E+00
 -0.413889960588E+00
 -0.397959295552E+00
 -0.381967485910E+00
 -0.364391543187E+00
 -0.344262321634E+00
 -0.321204159580E+00
 -0.295412933381E+00
 -0.267542120297E+00
 -0.238541874751E+00
 -0.209461654500E+00
 -0.181221250209E+00
 -0.154435071419E+00
 -0.129183034528E+00
 -0.104793465847E+00
 -0.797338120774E-01
 -0.515487761345E-01
 -0.170529339260E-01
  0.273244538002E-01
  0.758665221266E-01
 -0.132212497257E+01
 -0.825600061874E+00
 -0.662550333004E+00
 -0.579952466969E+00
 -0.524209174683E+00
 -0.484014230069E+00
 -0.454421830747E+00
 -0.432004700032E+00
 -0.413946979420E+00
 -0.397856890698E+00
 -0.381722498073E+00
 -0.364019272299E+00
 -0.343777193292E+00
 -0.320620565562E+00
 -0.294745337621E+00
 -0.266804967085E+00
 -0.237749867269E+00
 -0.208628982952E+00
 -0.180361695750E+00
 -0.153562088787E+00
 -0.128309503586E+00
 -0.103931011093E+00
 -0.788933106740E-01
 -0.507396094220E-01
 -0.162836424565E-01
  0.280406811571E-01
  0.764508660701E-01
 -0.132647568140E+01
 -0.827911836534E+00
 -0.664102306607E+00
 -0.581040533198E+00
 -0.524952589799E+00
 -0.484482257519E+00
 -0.454660134924E+00
 -0.432045595433E+00
 -0.413814452236E+00
 -0.397570470742E+00
 -0.381298662991E+00
 -0.363473092538E+00
 -0.343123372950E+00
 -0.319873708753E+00
 -0.293920369560E+00
 -0.265916631643E+00
 -0.236812901707E+00
 -0.207658110471E+00
 -0.179370816938E+00
 -0.152565009198E+00
 -0.127319534108E+00
 -0.102960247706E+00
 -0.779533121267E-01
 -0.498394602949E-01
 -0.154236786681E-01
  0.288905474522E-01
  0.774450930717E-01
 -0.133025158843E+01
 -0.829859358314E+00
 -0.665354392488E+00
 -0.581861369861E+00
 -0.525449616152E+00
 -0.484717806864E+00
 -0.454675710728E+00
 -0.431870865870E+00
 -0.413471958326E+00
 -0.397078521165E+00
 -0.380673637607E+00
 -0.362730139546E+00
 -0.342277565652E+00
 -0.318940353178E+00
 -0.292914702077E+00
 -0.264854031596E+00
 -0.235708791758E+00
 -0.206527469580E+00
 -0.178228338274E+00
 -0.151424878387E+00
 -0.126195753589E+00
 -0.101866409096E+00
 -0.769026469110E-01
 -0.488436950298E-01
 -0.144871010180E-01
  0.297953408118E-01
  0.785498715340E-01
 -0.133342092956E+01
 -0.831420554304E+00
 -0.666286959490E+00
 -0.582395221657E+00
 -0.525679665961E+00
 -0.484699559008E+00
 -0.454446132155E+00
 -0.431457184680E+00
 -0.412894999970E+00
 -0.396355800307E+00
 -0.379821418575E+00
 -0.361763903498E+00
 -0.341213025608E+00
 -0.317793531411E+00
 -0.291701931124E+00
 -0.263591460226E+00
 -0.234412238505E+00
 -0.205212958596E+00
 -0.176911496851E+00
 -0.150120377850E+00
 -0.124918760575E+00
 -0.100633039579E+00
 -0.757296574787E-01
 -0.477521157153E-01
 -0.135086608488E-01
  0.305889784766E-01
  0.789132888484E-01
 -0.133594425446E+01
 -0.832568270867E+00
 -0.666874886807E+00
 -0.582617528843E+00
 -0.525617621418E+00
 -0.484401555085E+00
 -0.453944781973E+00
 -0.430776518574E+00
 -0.412054661638E+00
 -0.395372544690E+00
 -0.378711538500E+00
 -0.360543632886E+00
 -0.339898853558E+00
 -0.316402534069E+00
 -0.290251549417E+00
 -0.262099056204E+00
 -0.232894712363E+00
 -0.203687490178E+00
 -0.175393952100E+00
 -0.148626930045E+00
 -0.123466241215E+00
 -0.992391070328E-01
 -0.744154491405E-01
 -0.465460810847E-01
 -0.124610996228E-01
  0.313546095115E-01
  0.789574049968E-01
 -0.133777149543E+01
 -0.833268716373E+00
 -0.667087888511E+00
 -0.582498078221E+00
 -0.525233413426E+00
 -0.483792717522E+00
 -0.453139351051E+00
 -0.429795728940E+00
 -0.410916472768E+00
 -0.394093566781E+00
 -0.377308193149E+00
 -0.359033085743E+00
 -0.338298846938E+00
 -0.314731673107E+00
 -0.288528577748E+00
 -0.260342955872E+00
 -0.231123870242E+00
 -0.201919330004E+00
 -0.173646235686E+00
 -0.146916541030E+00
 -0.121810854351E+00
 -0.976576500185E-01
 -0.729290730413E-01
 -0.451793945147E-01
 -0.112418208667E-01
  0.324022966659E-01
  0.798460775028E-01
 -0.133884428189E+01
 -0.833480582174E+00
 -0.666888465907E+00
 -0.582000759508E+00
 -0.524489736174E+00
 -0.482835288579E+00
 -0.451990928546E+00
 -0.428474648033E+00
 -0.409439205241E+00
 -0.392476696402E+00
 -0.375568866414E+00
 -0.357189509430E+00
 -0.336370635995E+00
 -0.312739172150E+00
 -0.286492522756E+00
 -0.258283871920E+00
 -0.229061821648E+00
 -0.199872979312E+00
 -0.171633912571E+00
 -0.144956723502E+00
 -0.119920962273E+00
 -0.958567364567E-01
 -0.712354450166E-01
 -0.436078032701E-01
 -0.979065342936E-02
  0.338006817153E-01
  0.815236052648E-01
 -0.133908758270E+01
 -0.833154719386E+00
 -0.666231492768E+00
 -0.581080795206E+00
 -0.523341904023E+00
 -0.481483196291E+00
 -0.450451966770E+00
 -0.426764626371E+00
 -0.407573414315E+00
 -0.390471540509E+00
 -0.373442606753E+00
 -0.354962237957E+00
 -0.334064126399E+00
 -0.310376234495E+00
 -0.284096075427E+00
 -0.255876457230E+00
 -0.226664938030E+00
 -0.197507318020E+00
 -0.169318487261E+00
 -0.142710295841E+00
 -0.117762129594E+00
 -0.938037394241E-01
 -0.693062770710E-01
 -0.418171794643E-01
 -0.814533958871E-02
  0.353134416146E-01
  0.829843388464E-01
 -0.133840845205E+01
 -0.832227924539E+00
 -0.665061075516E+00