# vtk DataFile Version 3.0
MachLine results file. Generated by MachLine, USU AeroLab (c) 2022.
ASCII
DATASET POLYDATA
POINTS                3261 float
  0.000000000000E+00  0.000000000000E+00  0.000000000000E+00
  0.138131193817E-01  0.239259991795E-01  0.000000000000E+00
  0.184377916157E-01  0.000000000000E+00 -0.191644169390E-01
  0.184377916157E-01  0.000000000000E+00  0.191644169390E-01
  0.276262387633E-01  0.478519983590E-01  0.000000000000E+00
  0.320895873010E-01  0.239259991795E-01 -0.189967341721E-01
  0.320895873010E-01  0.239259991795E-01  0.189967341721E-01
  0.414393581450E-01  0.717779994011E-01  0.000000000000E+00
  0.457413829863E-01  0.478519983590E-01 -0.188290514052E-01
  0.457413829863E-01  0.478519983590E-01  0.188290514052E-01
  0.460614785552E-01  0.000000000000E+00 -0.248102936894E-01
  0.460614785552E-01  0.000000000000E+00  0.248102936894E-01
  0.552524775267E-01  0.957039967179E-01  0.000000000000E+00
  0.593931749463E-01  0.717779994011E-01 -0.186613686383E-01
  0.593931749463E-01  0.717779994011E-01  0.186613686383E-01
  0.594715774059E-01  0.239259991795E-01 -0.245932117105E-01
  0.594715774059E-01  0.239259991795E-01  0.245932117105E-01
  0.690656006336E-01  0.119630001485E+00  0.000000000000E+00
  0.728816688061E-01  0.478519983590E-01 -0.243761278689E-01
  0.728816688061E-01  0.478519983590E-01  0.243761278689E-01
  0.730449706316E-01  0.957039967179E-01 -0.184936858714E-01
  0.730449706316E-01  0.957039967179E-01  0.184936858714E-01
  0.740515887737E-01  0.000000000000E+00 -0.284879114479E-01
  0.740515887737E-01  0.000000000000E+00  0.284879114479E-01
  0.828787162900E-01  0.143555998802E+00  0.000000000000E+00
  0.862917676568E-01  0.717779994011E-01 -0.241590458900E-01
  0.862917676568E-01  0.717779994011E-01  0.241590458900E-01
  0.866967663169E-01  0.119630001485E+00 -0.183260031044E-01
  0.866967663169E-01  0.119630001485E+00  0.183260031044E-01
  0.872167795897E-01  0.239259991795E-01 -0.282386522740E-01
  0.872167795897E-01  0.239259991795E-01  0.282386522740E-01
  0.966918393970E-01  0.167482003570E+00  0.000000000000E+00
  0.997018665075E-01  0.957039967179E-01 -0.239419639111E-01
  0.997018665075E-01  0.957039967179E-01  0.239419639111E-01
  0.100348562002E+00  0.143555998802E+00 -0.181583203375E-01
  0.100348562002E+00  0.143555998802E+00  0.181583203375E-01
  0.100381970406E+00  0.478519983590E-01 -0.279893912375E-01
  0.100381970406E+00  0.478519983590E-01  0.279893912375E-01
  0.102138325572E+00  0.000000000000E+00 -0.313414372504E-01
  0.102138325572E+00  0.000000000000E+00  0.313414372504E-01
  0.110504955053E+00  0.191407993436E+00  0.000000000000E+00
  0.113111965358E+00  0.119630001485E+00 -0.237248819321E-01
  0.113111965358E+00  0.119630001485E+00  0.237248819321E-01
  0.113547168672E+00  0.717779994011E-01 -0.277401320636E-01
  0.113547168672E+00  0.717779994011E-01  0.277401320636E-01
  0.114000357687E+00  0.167482003570E+00 -0.179906394333E-01
  0.114000357687E+00  0.167482003570E+00  0.179906394333E-01
  0.115057766438E+00  0.239259991795E-01 -0.310672093183E-01
  0.115057766438E+00  0.239259991795E-01  0.310672093183E-01
  0.124318078160E+00  0.215333998203E+00  0.000000000000E+00
  0.126522064209E+00  0.143555998802E+00 -0.235077999532E-01
  0.126522064209E+00  0.143555998802E+00  0.235077999532E-01
  0.126712352037E+00  0.957039967179E-01 -0.274908710271E-01
  0.126712352037E+00  0.957039967179E-01  0.274908710271E-01
  0.127652153373E+00  0.191407993436E+00 -0.178229566664E-01
  0.127652153373E+00  0.191407993436E+00  0.178229566664E-01
  0.127977207303E+00  0.478519983590E-01 -0.307929813862E-01
  0.127977207303E+00  0.478519983590E-01  0.307929813862E-01
  0.130280584097E+00  0.000000000000E+00 -0.335864275694E-01
  0.130280584097E+00  0.000000000000E+00  0.335864275694E-01
  0.138131201267E+00  0.239260002971E+00  0.000000000000E+00
  0.139877542853E+00  0.119630001485E+00 -0.272416118532E-01
  0.139877542853E+00  0.119630001485E+00  0.272416118532E-01
  0.139932155609E+00  0.167482003570E+00 -0.232907179743E-01
  0.139932155609E+00  0.167482003570E+00  0.232907179743E-01
  0.140896648169E+00  0.717779994011E-01 -0.305187534541E-01
  0.140896648169E+00  0.717779994011E-01  0.305187534541E-01
  0.141303941607E+00  0.215333998203E+00 -0.176552738994E-01
  0.141303941607E+00  0.215333998203E+00  0.176552738994E-01
  0.142953783274E+00  0.239259991795E-01 -0.332925543189E-01
  0.142953783274E+00  0.239259991795E-01  0.332925543189E-01
  0.151944324374E+00  0.263186007738E+00  0.000000000000E+00
  0.153042748570E+00  0.143555998802E+00 -0.269923508167E-01
  0.153042748570E+00  0.143555998802E+00  0.269923508167E-01
  0.153342247009E+00  0.191407993436E+00 -0.230736359954E-01
  0.153342247009E+00  0.191407993436E+00  0.230736359954E-01
  0.153816103935E+00  0.957039967179E-01 -0.302445273846E-01
  0.153816103935E+00  0.957039967179E-01  0.302445273846E-01
  0.154955744743E+00  0.239260002971E+00 -0.174875911325E-01
  0.154955744743E+00  0.239260002971E+00  0.174875911325E-01
  0.155626997352E+00  0.478519983590E-01 -0.329986847937E-01
  0.155626997352E+00  0.478519983590E-01  0.329986847937E-01
  0.158455848694E+00  0.000000000000E+00 -0.353712737560E-01
  0.158455848694E+00  0.000000000000E+00  0.353712737560E-01
  0.165757432580E+00  0.287111997604E+00  0.000000000000E+00
  0.166207939386E+00  0.167482003570E+00 -0.267430916429E-01
  0.166207939386E+00  0.167482003570E+00  0.267430916429E-01
  0.166735544801E+00  0.119630001485E+00 -0.299702994525E-01
  0.166735544801E+00  0.119630001485E+00  0.299702994525E-01
  0.166752353311E+00  0.215333998203E+00 -0.228565540165E-01
  0.166752353311E+00  0.215333998203E+00  0.228565540165E-01
  0.168300196528E+00  0.717779994011E-01 -0.327048152685E-01
  0.168300196528E+00  0.717779994011E-01  0.327048152685E-01
  0.168607532978E+00  0.263186007738E+00 -0.173199083656E-01
  0.168607532978E+00  0.263186007738E+00  0.173199083656E-01
  0.170882523060E+00  0.239259991795E-01 -0.350617878139E-01
  0.170882523060E+00  0.239259991795E-01  0.350617878139E-01
  0.179373130202E+00  0.191407993436E+00 -0.264938306063E-01
  0.179373130202E+00  0.191407993436E+00  0.264938306063E-01
  0.179570555687E+00  0.311037987471E+00  0.000000000000E+00
  0.179654985666E+00  0.143555998802E+00 -0.296960715204E-01
  0.179654985666E+00  0.143555998802E+00  0.296960715204E-01
  0.180162444711E+00  0.239260002971E+00 -0.226394720376E-01
  0.180162444711E+00  0.239260002971E+00  0.226394720376E-01
  0.180973410606E+00  0.957039967179E-01 -0.324109420180E-01
  0.180973410606E+00  0.957039967179E-01  0.324109420180E-01
  0.182259336114E+00  0.287111997604E+00 -0.171522255987E-01
  0.182259336114E+00  0.287111997604E+00  0.171522255987E-01
  0.183309212327E+00  0.478519983590E-01 -0.347523018718E-01
  0.183309212327E+00  0.478519983590E-01  0.347523018718E-01
  0.186651825905E+00  0.000000000000E+00 -0.367915518582E-01
  0.186651825905E+00  0.000000000000E+00  0.367915518582E-01
  0.192538321018E+00  0.215333998203E+00 -0.262445714325E-01
  0.192538321018E+00  0.215333998203E+00  0.262445714325E-01
  0.192574426532E+00  0.167482003570E+00 -0.294218435884E-01
  0.192574426532E+00  0.167482003570E+00  0.294218435884E-01
  0.193383678794E+00  0.334964007139E+00  0.000000000000E+00
  0.193572536111E+00  0.263186007738E+00 -0.224223900586E-01
  0.193572536111E+00  0.263186007738E+00  0.224223900586E-01
  0.193646609783E+00  0.119630001485E+00 -0.321170724928E-01
  0.193646609783E+00  0.119630001485E+00  0.321170724928E-01
  0.195735886693E+00  0.717779994011E-01 -0.344428122044E-01
  0.195735886693E+00  0.717779994011E-01  0.344428122044E-01
  0.195911124349E+00  0.311037987471E+00 -0.169845428318E-01
  0.195911124349E+00  0.311037987471E+00  0.169845428318E-01
  0.198831796646E+00  0.239259991795E-01 -0.364696383476E-01
  0.198831796646E+00  0.239259991795E-01  0.364696383476E-01
  0.205493867397E+00  0.191407993436E+00 -0.291476156563E-01
  0.205493867397E+00  0.191407993436E+00  0.291476156563E-01
  0.205703511834E+00  0.239260002971E+00 -0.259953103960E-01
  0.205703511834E+00  0.239260002971E+00  0.259953103960E-01
  0.206319823861E+00  0.143555998802E+00 -0.318232029676E-01
  0.206319823861E+00  0.143555998802E+00  0.318232029676E-01
  0.206982642412E+00  0.287111997604E+00 -0.222053080797E-01
  0.206982642412E+00  0.287111997604E+00  0.222053080797E-01
  0.207196801901E+00  0.358889997005E+00  0.000000000000E+00
  0.208162575960E+00  0.957039967179E-01 -0.341333262622E-01
  0.208162575960E+00  0.957039967179E-01  0.341333262622E-01
  0.209562927485E+00  0.334964007139E+00 -0.168168619275E-01
  0.209562927485E+00  0.334964007139E+00  0.168168619275E-01
  0.211011782289E+00  0.478519983590E-01 -0.361477248371E-01
  0.211011782289E+00  0.478519983590E-01  0.361477248371E-01
  0.214861869812E+00  0.000000000000E+00 -0.378986261785E-01
  0.214861869812E+00  0.000000000000E+00  0.378986261785E-01
  0.218413308263E+00  0.215333998203E+00 -0.288733895868E-01
  0.218413308263E+00  0.215333998203E+00  0.288733895868E-01
  0.218868702650E+00  0.263186007738E+00 -0.257460512221E-01
  0.218868702650E+00  0.263186007738E+00  0.257460512221E-01
  0.218993023038E+00  0.167482003570E+00 -0.315293334424E-01
  0.218993023038E+00  0.167482003570E+00  0.315293334424E-01
  0.220392733812E+00  0.311037987471E+00 -0.219882261008E-01
  0.220392733812E+00  0.311037987471E+00  0.219882261008E-01
  0.220589250326E+00  0.119630001485E+00 -0.338238403201E-01
  0.220589250326E+00  0.119630001485E+00  0.338238403201E-01
  0.221009910107E+00  0.382815986872E+00  0.000000000000E+00
  0.223191753030E+00  0.717779994011E-01 -0.358258113265E-01
  0.223191753030E+00  0.717779994011E-01  0.358258113265E-01
  0.223214715719E+00  0.358889997005E+00 -0.166491791606E-01
  0.223214715719E+00  0.358889997005E+00  0.166491791606E-01
  0.226795017719E+00  0.239259991795E-01 -0.375670231879E-01
  0.226795017719E+00  0.239259991795E-01  0.375670231879E-01
[...]
CELL_DATA                6372
SCALARS C_p_inc float 1
LOOKUP_TABLE default
 -0.559489047110E+00
 -0.386634629442E+00
 -0.340383247476E+00
 -0.323691167813E+00
 -0.313253697852E+00
 -0.306735401483E+00
 -0.303598587897E+00
 -0.303049968582E+00
 -0.303944487630E+00
 -0.304938835894E+00
 -0.304631087807E+00
 -0.301776316490E+00
 -0.295450814308E+00
 -0.285182556349E+00
 -0.271014344393E+00
 -0.253467097612E+00
 -0.233432495560E+00
 -0.212002281838E+00
 -0.190234584230E+00
 -0.168954054481E+00
 -0.148477872176E+00
 -0.128335639602E+00
 -0.107090647241E+00
 -0.821968272071E-01
 -0.501242920771E-01
 -0.670441314437E-02
  0.432651742984E-01
 -0.627463051746E+00
 -0.416042517876E+00
 -0.356766985894E+00
 -0.334117174085E+00
 -0.320436208780E+00
 -0.312032381718E+00
 -0.307714624753E+00
 -0.306308344537E+00
 -0.306438374636E+00
 -0.306632021847E+00
 -0.305433619524E+00
 -0.301602890658E+00
 -0.294262646150E+00
 -0.283010594733E+00
 -0.267963135139E+00
 -0.249699190288E+00
 -0.229140076952E+00
 -0.207370175315E+00
 -0.185405180450E+00
 -0.163996418075E+00
 -0.143367909805E+00
 -0.122954209148E+00
 -0.101243800416E+00
 -0.756696768621E-01
 -0.427694744588E-01
  0.147343526665E-02
  0.518769282529E-01
 -0.672344268415E+00
 -0.440081336838E+00
 -0.372162265892E+00
 -0.344831377260E+00
 -0.328260238612E+00
 -0.317959224881E+00
 -0.312306315871E+00
 -0.309863210754E+00
 -0.309090793090E+00
 -0.308421231903E+00
 -0.306355093314E+00
 -0.301647780347E+00
 -0.293445152166E+00
 -0.281382636872E+00
 -0.265615815488E+00
 -0.246752655106E+00
 -0.225725080653E+00
 -0.203606185585E+00
 -0.181379419030E+00
 -0.159748840588E+00
 -0.138885368566E+00
 -0.118178879054E+00
 -0.960982573635E-01
 -0.701060212825E-01
 -0.368481206345E-01
  0.745139867416E-02
  0.571046902437E-01
 -0.705456504655E+00
 -0.459545469654E+00
 -0.385661034320E+00
 -0.354789157530E+00
 -0.335828140866E+00
 -0.323824285008E+00
 -0.316886880839E+00
 -0.313404020996E+00
 -0.311724158048E+00
 -0.310212183298E+00
 -0.307335862630E+00
 -0.301843646376E+00
 -0.292892712946E+00
 -0.280138888427E+00
 -0.263758969637E+00
 -0.244375233386E+00
 -0.222921889543E+00
 -0.200461500518E+00
 -0.177955264698E+00
 -0.156078828755E+00
 -0.134976212814E+00
 -0.114022112441E+00
 -0.916962111538E-01
 -0.655132378136E-01
 -0.322331138678E-01
  0.117250111831E-01
  0.604221457899E-01
 -0.731618826420E+00
 -0.475651946729E+00
 -0.397369928238E+00
 -0.363759636368E+00
 -0.342836516661E+00
 -0.329352621318E+00
 -0.321245538699E+00
 -0.316788004036E+00
 -0.314251459176E+00
 -0.311953482179E+00
 -0.308337029455E+00
 -0.302143815968E+00
 -0.292535966848E+00
 -0.279180598514E+00
 -0.262265849132E+00
 -0.242421004185E+00
 -0.220579977063E+00
 -0.197797118233E+00
 -0.175020013159E+00
 -0.152908671044E+00
 -0.131596484884E+00
 -0.110459070373E+00
 -0.879975088390E-01
 -0.617769874045E-01
 -0.286392533281E-01
  0.149017108067E-01
  0.628746363473E-01
 -0.753221519154E+00
 -0.489274355349E+00
 -0.407559432316E+00
 -0.371761343069E+00
 -0.349208721287E+00
 -0.334447486866E+00
 -0.325298029560E+00
 -0.319953753764E+00
 -0.316632324014E+00
 -0.313617220878E+00
 -0.309332689888E+00
 -0.302514165473E+00
 -0.292325740005E+00
 -0.278440488484E+00
 -0.261053210813E+00
 -0.240796824379E+00
 -0.218604453399E+00
 -0.195525465422E+00
 -0.172499878837E+00
 -0.150180610613E+00
 -0.128698796031E+00
 -0.107437510209E+00
 -0.849192360490E-01
 -0.587454902291E-01
 -0.258028387970E-01
  0.173701032919E-01
  0.648975271712E-01
 -0.771598603603E+00
 -0.501004697790E+00
 -0.416487455027E+00
 -0.378886592821E+00
 -0.354959274028E+00
 -0.339092499333E+00
 -0.329021194963E+00
 -0.322881471736E+00
 -0.318851620086E+00
 -0.315189696423E+00
 -0.310305876455E+00
 -0.302929683260E+00
 -0.292225723300E+00
 -0.277870690930E+00
 -0.260063289809E+00
 -0.239439119341E+00
 -0.216930865972E+00
 -0.193585444709E+00
 -0.170339713034E+00
 -0.147844058844E+00
 -0.126231020521E+00
 -0.104892119842E+00
 -0.823656396797E-01
 -0.562753175449E-01
 -0.235283682058E-01
  0.193287720904E-01
  0.664430233442E-01
 -0.787564663937E+00
 -0.511251038386E+00
 -0.424368060455E+00
 -0.385242630390E+00
 -0.360136910343E+00
 -0.343307341189E+00
 -0.332421811564E+00
 -0.325572395490E+00
 -0.320907792901E+00
 -0.316665981032E+00
 -0.311245789109E+00
 -0.303372213720E+00
 -0.292209368361E+00
 -0.277436176165E+00
 -0.259254417034E+00
 -0.238301912215E+00
 -0.215511876728E+00
 -0.191930532061E+00
 -0.168493567338E+00
 -0.145851525932E+00
 -0.124139177962E+00
 -0.102754183844E+00
 -0.802450364625E-01
 -0.542471292804E-01
 -0.216762724923E-01
  0.209200863316E-01
  0.677088095118E-01
 -0.801652193881E+00
 -0.520303829856E+00
 -0.431373030909E+00
 -0.390930954571E+00
 -0.364800970578E+00
 -0.347126336261E+00
 -0.335519998290E+00
 -0.328038776925E+00
 -0.322806542193E+00
 -0.318045947682E+00
 -0.312146497246E+00
 -0.303828845615E+00
 -0.292256675164E+00
 -0.277110795543E+00
 -0.258595503280E+00
 -0.237350410352E+00
 -0.214310483956E+00
 -0.190522119298E+00
 -0.166920873232E+00
 -0.144157998929E+00
 -0.122370221075E+00
 -0.100958549830E+00
 -0.784771645673E-01
 -0.525661891028E-01
 -0.201438475217E-01
  0.222445841249E-01
  0.687775626517E-01
 -0.814230277065E+00
 -0.528376695215E+00
 -0.437639322740E+00
 -0.396041289493E+00
 -0.369009951179E+00
 -0.350588407580E+00
 -0.338341583724E+00
 -0.330296735819E+00
 -0.324557301929E+00
 -0.319332759133E+00
 -0.313004811425E+00
 -0.304290374649E+00
 -0.292352844045E+00
 -0.276874455779E+00
 -0.258061818687E+00
 -0.236556815638E+00
 -0.213295925452E+00
 -0.189326600946E+00
 -0.165584489897E+00
 -0.142721305160E+00
 -0.120874619457E+00
 -0.994471909982E-01
 -0.769947732718E-01
 -0.511584124245E-01
 -0.188544874410E-01
  0.233765381323E-01
  0.696815848988E-01
 -0.825564063929E+00
 -0.535630791248E+00
 -0.443277190730E+00
 -0.400650592832E+00
 -0.372817771756E+00
 -0.353731250214E+00
 -0.340913213237E+00
 -0.332364281509E+00
 -0.326170861193E+00
 -0.320531080351E+00
 -0.313819654950E+00
 -0.304750290267E+00
 -0.292486105448E+00
 -0.276711076791E+00
 -0.257633463586E+00
 -0.235897662911E+00
 -0.212441712982E+00
 -0.188313765010E+00
 -0.164450395836E+00
 -0.141502853004E+00
 -0.119608315788E+00
 -0.981700426768E-01
 -0.757430197935E-01
 -0.499667101006E-01
 -0.177527463010E-01
  0.243755793299E-01
  0.706756400818E-01
 -0.835852565084E+00
 -0.542190875133E+00
 -0.448375374490E+00
 -0.404824108830E+00
 -0.376272703621E+00
 -0.356590042302E+00
 -0.343259732373E+00
 -0.334258886044E+00
 -0.327658399850E+00
 -0.321646156726E+00
 -0.314590873407E+00
 -0.305203726594E+00
 -0.292647441380E+00
 -0.276607165738E+00
 -0.257293331965E+00
 -0.235352349374E+00
 -0.211723963048E+00
 -0.187456888704E+00
 -0.163487830868E+00
 -0.140467680317E+00
 -0.118532844879E+00
 -0.970850560287E-01
 -0.746780370568E-01
 -0.489487885247E-01
 -0.168042653988E-01
  0.252411905154E-01
  0.714265300834E-01
 -0.845248897173E+00
 -0.548155399692E+00
 -0.453006402765E+00
 -0.408616676670E+00
 -0.379416170182E+00
 -0.359196090450E+00
 -0.345404320564E+00
 -0.335996693867E+00
 -0.329030114382E+00
 -0.322683192097E+00
 -0.315319176825E+00
 -0.305646882129E+00
 -0.292828749470E+00
 -0.276551204440E+00
 -0.257026439997E+00
 -0.234902729956E+00
 -0.211121155776E+00
 -0.186731282394E+00
 -0.162669415793E+00
 -0.139585257742E+00
 -0.117614678195E+00
 -0.961573832124E-01
 -0.737649479650E-01
 -0.480728939861E-01
 -0.159852649586E-01
  0.259840448205E-01
  0.720720453330E-01
 -0.853872851297E+00
 -0.553603168264E+00
 -0.457229786531E+00
 -0.412074755000E+00
 -0.382283836119E+00
 -0.361576386839E+00
 -0.347367383366E+00
 -0.337592430652E+00
 -0.330295403463E+00
 -0.323646986207E+00
 -0.316004923715E+00
 -0.306076275461E+00
 -0.293023272902E+00
 -0.276532795261E+00
 -0.256819131876E+00
 -0.234532239963E+00
 -0.210614210318E+00
 -0.186114768459E+00
 -0.161970210568E+00
 -0.138829116160E+00
 -0.116825591797E+00
 -0.953577738552E-01
 -0.729756093246E-01
 -0.473133232347E-01
 -0.152730741491E-01
  0.266343913098E-01
  0.726953402927E-01
 -0.861819861280E+00
 -0.558598377720E+00
 -0.461094615843E+00
 -0.415236425194E+00
 -0.384906012809E+00
 -0.363754790665E+00
 -0.349166409437E+00
 -0.339058464745E+00
 -0.331462569266E+00
 -0.324541451332E+00
 -0.316648571151E+00
 -0.306488834144E+00
 -0.293224168623E+00
 -0.276542393823E+00
 -0.256659159165E+00
 -0.234225681175E+00
 -0.210185293742E+00
 -0.185587706503E+00
 -0.161368512672E+00
 -0.138175637668E+00
 -0.116141336810E+00
 -0.946620683121E-01
 -0.722863787630E-01
 -0.466474373800E-01
 -0.146484571842E-01
  0.271867588464E-01
  0.730394205874E-01
 -0.869168287752E+00
 -0.563193091376E+00
 -0.464641157759E+00
 -0.418134506418E+00
 -0.387308432491E+00
 -0.365751068588E+00
 -0.350816745256E+00
 -0.340405571230E+00
 -0.332538014828E+00
 -0.325369801675E+00
 -0.317249862391E+00
 -0.306881254153E+00
 -0.293425458061E+00
 -0.276570950026E+00
 -0.256534865887E+00
 -0.233969316410E+00
 -0.209818400793E+00
 -0.185132151707E+00
 -0.160845160196E+00
 -0.137604492367E+00
 -0.115541099093E+00
 -0.940495219617E-01
 -0.716767160147E-01
 -0.460546191915E-01
 -0.140856229978E-01
  0.277084699604E-01
  0.735104883973E-01
 -0.875981455847E+00
 -0.567430886011E+00
 -0.467903170826E+00
 -0.420795685649E+00
 -0.389512601430E+00
 -0.367582087813E+00
 -0.352330717836E+00
 -0.341642547713E+00
 -0.333527485190E+00
 -0.326134213231E+00
 -0.317808159774E+00
 -0.307249940207E+00
 -0.293620832918E+00
 -0.276609968447E+00
 -0.256435425252E+00
 -0.233750298809E+00
 -0.209499044399E+00
 -0.184731802621E+00
 -0.160382941462E+00
 -0.137098121620E+00
 -0.115006756642E+00
 -0.935020751231E-01
 -0.711292389538E-01
 -0.455176335147E-01
 -0.135639087937E-01
  0.282309719437E-01
  0.741561079467E-01
 -0.882311274408E+00
 -0.571346473798E+00
 -0.470908419583E+00
 -0.423242646032E+00
 -0.391536325606E+00
 -0.369261457276E+00
 -0.353718843627E+00
 -0.342776395754E+00
 -0.334434789119E+00
 -0.326836173216E+00
 -0.318321841736E+00
 -0.307591053331E+00
 -0.293804291878E+00
 -0.276651096974E+00
 -0.256350602341E+00
 -0.233556493687E+00
 -0.209213652038E+00
 -0.184372433873E+00
 -0.159966565298E+00
 -0.136640534963E+00
 -0.114522596669E+00
 -0.930046604794E-01
 -0.706301618977E-01
 -0.450254529807E-01
 -0.130824720051E-01
  0.287080716173E-01
  0.746315384086E-01
 -0.888200142977E+00
 -0.574969658885E+00
 -0.473680062487E+00
 -0.425493456504E+00
 -0.393394265243E+00
 -0.370800769709E+00
 -0.354989145842E+00
 -0.343812695877E+00
 -0.335262638327E+00
 -0.327475757028E+00
 -0.318789187143E+00
 -0.307900331359E+00
 -0.293969398448E+00
 -0.276686289001E+00
 -0.256270615620E+00
 -0.233376685274E+00
 -0.208950011017E+00
 -0.184040753290E+00
 -0.159582230455E+00
 -0.136217902697E+00
 -0.114074979363E+00
 -0.925445376227E-01
 -0.701685587959E-01
 -0.445723807307E-01
 -0.126471074974E-01
  0.291205378945E-01
  0.750906292987E-01
 -0.893683406650E+00
 -0.578324055713E+00
 -0.476236675309E+00
 -0.427563731941E+00
 -0.395098399961E+00
 -0.372208778790E+00
 -0.356147696595E+00
 -0.344755122883E+00
 -0.336012913734E+00
 -0.328052259237E+00
 -0.319207325755E+00
 -0.308173159331E+00
 -0.294109855242E+00
 -0.276707489401E+00
 -0.256185896321E+00
 -0.233200241398E+00
 -0.208696444415E+00
 -0.183724579207E+00
 -0.159217078512E+00
 -0.135817394884E+00
 -0.113651742226E+00
 -0.921102423221E-01
 -0.697348243134E-01
 -0.441521627226E-01
 -0.122588722288E-01
  0.294362084595E-01
  0.751829478594E-01
 -0.898788757823E+00
 -0.581429649282E+00
 -0.478593600956E+00
 -0.429465062536E+00
 -0.396657834363E+00
 -0.373492332474E+00
 -0.357199382929E+00
 -0.345605785789E+00
 -0.336685690713E+00
 -0.328564326419E+00
 -0.319572647081E+00
 -0.308404470753E+00
 -0.294218997549E+00
 -0.276706409662E+00
 -0.256087119598E+00
 -0.233016924357E+00
 -0.208441923655E+00
 -0.183411961032E+00
 -0.158859485039E+00
 -0.135427272417E+00
 -0.113241011999E+00
 -0.916904587064E-01
 -0.693181126319E-01
 -0.437528050625E-01
 -0.118992069942E-01
  0.297079046575E-01
  0.752127606907E-01
 -0.903539506584E+00
 -0.584301561238E+00
 -0.480762894211E+00
 -0.431207098297E+00
 -0.398079650546E+00
 -0.374656099856E+00
 -0.358146919321E+00
 -0.346365986860E+00
 -0.337279827615E+00
 -0.329009118711E+00
 -0.319881269593E+00
 -0.308588483982E+00
 -0.294289642460E+00
 -0.276674971004E+00
 -0.255965166433E+00
 -0.232816533905E+00
 -0.208175543636E+00
 -0.183092015991E+00
 -0.158498114733E+00
 -0.135036044014E+00
 -0.112831360244E+00
 -0.912734954725E-01
 -0.689053010945E-01
 -0.433565439374E-01
 -0.115330884386E-01
  0.300312312161E-01
  0.755002233709E-01
 -0.907953411278E+00
 -0.586951772277E+00
 -0.482753689909E+00
 -0.432796458841E+00
 -0.399368527489E+00
 -0.375703395565E+00
 -0.358991219018E+00
 -0.347035129253E+00
 -0.337793636943E+00
 -0.329382966018E+00
 -0.320127918868E+00
 -0.308718967756E+00
 -0.294314351021E+00
 -0.276604432731E+00
 -0.255810461564E+00
 -0.232588985421E+00
 -0.207886690434E+00
 -0.182753639724E+00
 -0.158121529217E+00
 -0.134632554808E+00
 -0.112411404708E+00
 -0.908474961554E-01
 -0.684831536597E-01
 -0.429469560627E-01
 -0.111400589614E-01
  0.304200483150E-01
  0.759524156876E-01
 -0.912042926043E+00
 -0.589389803699E+00
 -0.484572391568E+00
 -0.434238029985E+00
 -0.400527719984E+00
 -0.376635220283E+00
 -0.359732219804E+00
 -0.347611201884E+00
 -0.338223751313E+00
 -0.329681567602E+00
 -0.320306835634E+00
 -0.308788737932E+00
 -0.294285002690E+00
 -0.276485928773E+00
 -0.255613230749E+00
 -0.232323991088E+00
 -0.207564767079E+00
 -0.182385772340E+00
 -0.157718727258E+00
 -0.134205374941E+00
 -0.111970087687E+00
 -0.904012186524E-01
 -0.680409764213E-01
 -0.425158353771E-01
 -0.107229460319E-01
  0.308308205299E-01
  0.764045673350E-01
 -0.915817365085E+00
 -0.591621248534E+00
 -0.486223428744E+00
 -0.435534370326E+00
 -0.401557972638E+00
 -0.377451197424E+00
 -0.360368126824E+00
 -0.348091129840E+00
 -0.338565617353E+00
 -0.329899035865E+00
 -0.320411139058E+00
 -0.308789910285E+00
 -0.294192625736E+00
 -0.276309831008E+00
 -0.255363318913E+00
 -0.232010485838E+00
 -0.207198508609E+00
 -0.181977252116E+00
 -0.157278508560E+00
 -0.133743331424E+00
 -0.111495963492E+00
 -0.899244975109E-01
 -0.675703594038E-01
 -0.420595910956E-01
 -0.102904082505E-01
  0.312227455915E-01
  0.767081715447E-01
 -0.919282111465E+00
 -0.593649975988E+00
 -0.487708418420E+00
 -0.436685813958E+00
 -0.402458580454E+00
 -0.378149053414E+00
 -0.360895397108E+00
 -0.348470391644E+00
 -0.338813470061E+00
 -0.330028361688E+00
 -0.320432774116E+00
 -0.308713533389E+00
 -0.294027528363E+00
 -0.276065473275E+00
 -0.255049477825E+00
 -0.231637323982E+00
 -0.206776273428E+00
 -0.181516277779E+00
 -0.156788900901E+00
 -0.133235093407E+00
 -0.110978368755E+00
 -0.894072831825E-01
 -0.670626591666E-01
 -0.415716864890E-01
 -0.983739641852E-02
  0.316086161604E-01
  0.769112478780E-01
 -0.922437034712E+00
 -0.595475486876E+00
 -0.489027400254E+00
 -0.437690859734E+00
 -0.403226777364E+00
 -0.378725277667E+00
 -0.361309118852E+00
 -0.348742622308E+00
 -0.338959990484E+00
 -0.330061298037E+00
 -0.320362477005E+00
 -0.308549419590E+00
 -0.293778813837E+00
 -0.275741415242E+00
 -0.254659781464E+00
 -0.231192121655E+00
 -0.206285684514E+00
 -0.180990382052E+00
 -0.156237803321E+00
 -0.132668642319E+00
 -0.110406085625E+00
 -0.888386646315E-01
 -0.665073645547E-01
 -0.410402667159E-01
 -0.934164179498E-02
  0.320565697289E-01
  0.773036842050E-01
 -0.925280057234E+00
 -0.597096809217E+00
 -0.490177180907E+00
 -0.438546209000E+00
 -0.403858077959E+00
 -0.379173697356E+00
 -0.361602525878E+00
 -0.348900207764E+00
 -0.338996195822E+00
 -0.329987949720E+00
 -0.320189406020E+00
 -0.308285940628E+00
 -0.293434034411E+00
 -0.275324796881E+00
 -0.254181104064E+00
 -0.230661346424E+00
 -0.205713200722E+00
 -0.180386291252E+00
 -0.155612050011E+00
 -0.132031191238E+00
 -0.109766813327E+00
 -0.882069183635E-01
 -0.658926945055E-01
 -0.404515720381E-01
 -0.878538426767E-02
  0.325845792231E-01
  0.778529119761E-01
 -0.927805375081E+00
 -0.598508843813E+00
 -0.491152961514E+00
 -0.439245897706E+00
 -0.404345799254E+00
 -0.379487128288E+00
 -0.361766788579E+00
 -0.348933249321E+00
 -0.338911381578E+00
 -0.329796473589E+00
 -0.319900917065E+00
 -0.307909593087E+00
 -0.292979153033E+00
 -0.274800966149E+00
 -0.253598469328E+00
 -0.230030082798E+00
 -0.205043686238E+00
 -0.179689092913E+00
 -0.154897193861E+00
 -0.131308897861E+00
 -0.109047187945E+00
 -0.874993812454E-01
 -0.652068998938E-01
 -0.397962631847E-01
 -0.816573712997E-02
  0.331692710040E-01
  0.783963439549E-01
 -0.930001724498E+00
 -0.599704605232E+00
 -0.491947378307E+00
 -0.439781942256E+00
 -0.404681213401E+00
 -0.379655649296E+00
 -0.361791139766E+00
 -0.348829812656E+00
 -0.338692715368E+00
 -0.329472931324E+00
 -0.319482140436E+00
 -0.307404788502E+00
 -0.292397927389E+00
 -0.274153459434E+00
 -0.252894999019E+00
 -0.229281330910E+00
 -0.204260576271E+00
 -0.178882343445E+00
 -0.154077473469E+00
 -0.130486591346E+00
 -0.108232717638E+00
 -0.867030678628E-01
 -0.644392614602E-01
 -0.390679643839E-01
 -0.748600971167E-02
  0.337985511497E-01
  0.790524486614E-01
 -0.931854037003E+00
 -0.600673292279E+00
 -0.492550588010E+00
 -0.440143881351E+00
 -0.404852854760E+00
 -0.379666933097E+00
 -0.361662096120E+00
 -0.348575446463E+00
 -0.338324502037E+00
 -0.329000724961E+00
 -0.318915542562E+00
 -0.306753259133E+00
 -0.291671537894E+00
 -0.273362868983E+00
 -0.252051415929E+00
 -0.228396012424E+00
 -0.203344688671E+00
 -0.177947484981E+00
 -0.153135026774E+00
 -0.129547114905E+00
 -0.107307291997E+00
 -0.858035779468E-01
 -0.635778165196E-01
 -0.382594630711E-01
 -0.675028855935E-02
  0.344259426665E-01
  0.794637785299E-01
 -0.933342926326E+00
 -0.601401175323E+00
 -0.492949290554E+00
 -0.440318282553E+00
 -0.404846390310E+00
 -0.379505610955E+00
 -0.361363455877E+00
 -0.348152443942E+00
 -0.337787963204E+00
 -0.328359998591E+00
 -0.318180286581E+00
 -0.305933534009E+00
 -0.290777962676E+00
 -0.272406893722E+00
 -0.251045101675E+00
 -0.227351602200E+00
 -0.202274246805E+00
 -0.176863545652E+00
 -0.152048993308E+00
 -0.128470712408E+00
 -0.106252710366E+00
 -0.847832968111E-01
 -0.626064161866E-01
 -0.373550844035E-01
 -0.594096453712E-02
  0.350832709118E-01
  0.798045132110E-01
 -0.934442724972E+00
 -0.601870547668E+00
 -0.493127192699E+00
 -0.440288137385E+00
 -0.404644420525E+00
 -0.379153020614E+00
 -0.360875125591E+00
 -0.347539616834E+00
 -0.337060371964E+00
 -0.327527007539E+00
 -0.317251610036E+00
 -0.304919917429E+00
 -0.289690990227E+00
 -0.271259232994E+00
 -0.249849828748E+00
 -0.226122329370E+00
 -0.201024303513E+00
 -0.175605563159E+00
 -0.150796050906E+00
 -0.127235025599E+00
 -0.105047001713E+00
 -0.836210293871E-01
 -0.615024911925E-01
 -0.363271132881E-01
 -0.501104815900E-02
  0.358839060602E-01
  0.804257271803E-01
 -0.935123605408E+00
 -0.602059482320E+00
 -0.493063688766E+00
 -0.440033079921E+00
 -0.404224924117E+00
 -0.378586207089E+00
 -0.360172652999E+00
 -0.346710933768E+00
 -0.336114220880E+00
 -0.326472802529E+00
 -0.316099621476E+00
 -0.303681654897E+00
 -0.288379523246E+00
 -0.269888601109E+00
 -0.248434787733E+00
 -0.224677800756E+00
 -0.199565115985E+00
 -0.174145480192E+00
 -0.149348654290E+00
 -0.125813998964E+00
 -0.103664829964E+00
 -0.822915930358E-01
 -0.602393878000E-01
 -0.351436957692E-01
 -0.391846430526E-02
  0.368837776340E-01
  0.813500485423E-01
 -0.935346696565E+00
 -0.601942099918E+00
 -0.492733929154E+00
 -0.439527353172E+00
 -0.403561385284E+00
 -0.377776777593E+00
 -0.359225688684E+00
 -0.345634379856E+00
 -0.334916071461E+00
 -0.325162307210E+00
 -0.314687891795E+00
 -0.302181676029E+00
 -0.286806087547E+00
 -0.268257818857E+00
 -0.246763296454E+00
 -0.222982348817E+00
 -0.197861901712E+00
 -0.172450250105E+00
 -0.147675702591E+00
 -0.124177326715E+00
 -0.102078032305E+00
 -0.807675697459E-01
 -0.587906080989E-01
 -0.337799025394E-01
 -0.264297090021E-02
  0.380857058786E-01
  0.825436154772E-01
 -0.935062260546E+00
 -0.601483825018E+00
 -0.492106672941E+00