# vtk DataFile Version 3.0
MachLine results file. Generated by MachLine, USU AeroLab (c) 2022.
ASCII
DATASET POLYDATA
POINTS                3421 float
  0.810587965200E+00  0.000000000000E+00  0.000000000000E+00
  0.810676677800E+00  0.347461097400E-01 -0.128622059200E-02
  0.820336240200E+00  0.347461097400E-01  0.000000000000E+00
  0.800803929100E+00  0.000000000000E+00 -0.130279491000E-02
  0.799987339200E+00  0.347461097400E-01 -0.264710801000E-02
  0.789976847000E+00  0.000000000000E+00 -0.268121880900E-02
  0.788200162400E+00  0.347461097400E-01 -0.413831356600E-02
  0.778037779900E+00  0.000000000000E+00 -0.419164013300E-02
  0.775245984500E+00  0.347461097400E-01 -0.578531706800E-02
  0.764916673600E+00  0.000000000000E+00 -0.585986702500E-02
  0.761057209500E+00  0.347461097400E-01 -0.758444452600E-02
  0.750545061200E+00  0.000000000000E+00 -0.768217815100E-02
  0.745573796500E+00  0.347461097400E-01 -0.952836503300E-02
  0.734862128100E+00  0.000000000000E+00 -0.965114814000E-02
  0.728744959200E+00  0.347461097400E-01 -0.115949095900E-01
  0.717816433300E+00  0.000000000000E+00 -0.117443223200E-01
  0.710533960700E+00  0.347461097400E-01 -0.137578936200E-01
  0.699370766700E+00  0.000000000000E+00 -0.139351786900E-01
  0.690922311100E+00  0.347461097400E-01 -0.159934281900E-01
  0.679506400200E+00  0.000000000000E+00 -0.161995205000E-01
  0.669913213700E+00  0.347461097400E-01 -0.182812011200E-01
  0.658226578200E+00  0.000000000000E+00 -0.185167738200E-01
  0.647534679000E+00  0.347461097400E-01 -0.206062938200E-01
  0.635559672300E+00  0.000000000000E+00 -0.208718278100E-01
  0.623841687600E+00  0.347461097400E-01 -0.229576708700E-01
  0.611561371500E+00  0.000000000000E+00 -0.232535048500E-01
  0.598917790800E+00  0.347461097400E-01 -0.253268638100E-01
  0.586316303800E+00  0.000000000000E+00 -0.256532273500E-01
  0.572874783800E+00  0.347461097400E-01 -0.276990332700E-01
  0.559937705100E+00  0.000000000000E+00 -0.280559647400E-01
  0.545852186800E+00  0.347461097400E-01 -0.300519907000E-01
  0.532566893200E+00  0.000000000000E+00 -0.304392425300E-01
  0.518014532300E+00  0.347461097400E-01 -0.323459369600E-01
  0.504370520900E+00  0.000000000000E+00 -0.327627487200E-01
  0.489548468400E+00  0.347461097400E-01 -0.345262540700E-01
  0.475537641500E+00  0.000000000000E+00 -0.349711615300E-01
  0.460658677500E+00  0.347461097400E-01 -0.365243827600E-01
  0.446275575000E+00  0.000000000000E+00 -0.369950382400E-01
  0.431563069800E+00  0.347461097400E-01 -0.382680842900E-01
  0.416805039500E+00  0.000000000000E+00 -0.387612092100E-01
  0.402487359700E+00  0.347461097400E-01 -0.396912184600E-01
  0.387354657900E+00  0.000000000000E+00 -0.402026819800E-01
  0.358154252700E+00  0.000000000000E+00 -0.412698990400E-01
  0.373658445600E+00  0.347461097400E-01 -0.407448582500E-01
  0.329427712500E+00  0.000000000000E+00 -0.419381428100E-01
  0.345297368000E+00  0.347461097400E-01 -0.414046005500E-01
  0.301385437800E+00  0.000000000000E+00 -0.422127056000E-01
  0.317611850600E+00  0.347461097400E-01 -0.416756703100E-01
  0.274217781800E+00  0.000000000000E+00 -0.421213324100E-01
  0.290789824900E+00  0.347461097400E-01 -0.415854595800E-01
  0.248089507100E+00  0.000000000000E+00 -0.417102096300E-01
  0.264993957400E+00  0.347461097400E-01 -0.411795671600E-01
  0.223136667600E+00  0.000000000000E+00 -0.410325057600E-01
  0.240358571000E+00  0.347461097400E-01 -0.405104851200E-01
  0.199465110400E+00  0.000000000000E+00 -0.401383363400E-01
  0.216988166200E+00  0.347461097400E-01 -0.396276914300E-01
  0.177150837100E+00  0.000000000000E+00 -0.390723141900E-01
  0.194957778000E+00  0.347461097400E-01 -0.385752313500E-01
  0.156241624000E+00  0.000000000000E+00 -0.378663570700E-01
  0.174314574400E+00  0.347461097400E-01 -0.373846165700E-01
  0.136759377300E+00  0.000000000000E+00 -0.365431237600E-01
  0.155080183300E+00  0.347461097400E-01 -0.360782176000E-01
  0.118703081700E+00  0.000000000000E+00 -0.351167801400E-01
  0.137253602100E+00  0.347461097400E-01 -0.346700201000E-01
  0.102051802600E+00  0.000000000000E+00 -0.335992080200E-01
  0.120814162700E+00  0.347461097400E-01 -0.331717547200E-01
  0.867682838700E-01  0.000000000000E+00 -0.319995565500E-01
  0.105725082800E+00  0.347461097400E-01 -0.315924542100E-01
  0.728016637400E-01  0.000000000000E+00 -0.303298550500E-01
  0.919361477400E-01  0.347461097400E-01 -0.299439948700E-01
  0.600907845400E-01  0.000000000000E+00 -0.286040634100E-01
  0.793869779200E-01  0.347461097400E-01 -0.282401589600E-01
  0.485666261500E-01  0.000000000000E+00 -0.268397637500E-01
  0.680094313100E-01  0.347461097400E-01 -0.264983049400E-01
  0.381550186100E-01  0.000000000000E+00 -0.250566064700E-01
  0.577302815300E-01  0.347461097400E-01 -0.247378332000E-01
  0.287834454400E-01  0.000000000000E+00 -0.232498813100E-01
  0.484779346900E-01  0.347461097400E-01 -0.229540934300E-01
  0.204488261800E-01  0.000000000000E+00 -0.211337719000E-01
  0.402493494800E-01  0.347461097400E-01 -0.208649054300E-01
  0.132862240100E-01  0.000000000000E+00 -0.182396794800E-01
  0.331778708300E-01  0.347461097400E-01 -0.180076320100E-01
  0.753110369800E-02  0.000000000000E+00 -0.143843998800E-01
  0.274959678700E-01  0.347461097400E-01 -0.142013997600E-01
  0.334957802400E-02  0.000000000000E+00 -0.980508456000E-02
  0.233676400900E-01  0.347461097400E-01 -0.968034305500E-02
  0.818658588100E-03  0.000000000000E+00 -0.487483405300E-02
  0.208689193200E-01  0.347461097400E-01 -0.481281580800E-02
  0.000000000000E+00  0.000000000000E+00  0.000000000000E+00
  0.200606758100E-01  0.347461097400E-01  0.000000000000E+00
  0.208689193200E-01  0.347461097400E-01  0.481281580800E-02
  0.818658588100E-03  0.000000000000E+00  0.487483405300E-02
  0.233676400900E-01  0.347461097400E-01  0.968034305500E-02
  0.334957802400E-02  0.000000000000E+00  0.980508456000E-02
  0.274959678700E-01  0.347461097400E-01  0.142013997600E-01
  0.753110369800E-02  0.000000000000E+00  0.143843998800E-01
  0.331778708300E-01  0.347461097400E-01  0.180076320100E-01
  0.132862240100E-01  0.000000000000E+00  0.182396794800E-01
  0.402493494800E-01  0.347461097400E-01  0.208649054300E-01
  0.204488261800E-01  0.000000000000E+00  0.211337719000E-01
  0.484779346900E-01  0.347461097400E-01  0.229540934300E-01
  0.287834454400E-01  0.000000000000E+00  0.232498813100E-01
  0.577302815300E-01  0.347461097400E-01  0.247378332000E-01
  0.381550186100E-01  0.000000000000E+00  0.250566064700E-01
  0.680094313100E-01  0.347461097400E-01  0.264983049400E-01
  0.485666261500E-01  0.000000000000E+00  0.268397637500E-01
  0.793869779200E-01  0.347461097400E-01  0.282401589600E-01
  0.600907845400E-01  0.000000000000E+00  0.286040634100E-01
  0.919361477400E-01  0.347461097400E-01  0.299439948700E-01
  0.728016637400E-01  0.000000000000E+00  0.303298550500E-01
  0.105725082800E+00  0.347461097400E-01  0.315924542100E-01
  0.867682838700E-01  0.000000000000E+00  0.319995565500E-01
  0.120814162700E+00  0.347461097400E-01  0.331717547200E-01
  0.102051802600E+00  0.000000000000E+00  0.335992080200E-01
  0.137253602100E+00  0.347461097400E-01  0.346700201000E-01
  0.118703081700E+00  0.000000000000E+00  0.351167801400E-01
  0.155080183300E+00  0.347461097400E-01  0.360782176000E-01
  0.136759377300E+00  0.000000000000E+00  0.365431237600E-01
  0.174314574400E+00  0.347461097400E-01  0.373846165700E-01
  0.156241624000E+00  0.000000000000E+00  0.378663570700E-01
  0.194957778000E+00  0.347461097400E-01  0.385752313500E-01
  0.177150837100E+00  0.000000000000E+00  0.390723141900E-01
  0.216988166200E+00  0.347461097400E-01  0.396276914300E-01
  0.199465110400E+00  0.000000000000E+00  0.401383363400E-01
  0.240358571000E+00  0.347461097400E-01  0.405104851200E-01
  0.223136667600E+00  0.000000000000E+00  0.410325057600E-01
  0.264993957400E+00  0.347461097400E-01  0.411795671600E-01
  0.248089507100E+00  0.000000000000E+00  0.417102096300E-01
  0.290789824900E+00  0.347461097400E-01  0.415854595800E-01
  0.274217781800E+00  0.000000000000E+00  0.421213324100E-01
  0.317611850600E+00  0.347461097400E-01  0.416756703100E-01
  0.301385437800E+00  0.000000000000E+00  0.422127056000E-01
  0.345297368000E+00  0.347461097400E-01  0.414046005500E-01
  0.329427712500E+00  0.000000000000E+00  0.419381428100E-01
  0.373658445600E+00  0.347461097400E-01  0.407448582500E-01
  0.358154252700E+00  0.000000000000E+00  0.412698990400E-01
  0.402487359700E+00  0.347461097400E-01  0.396912184600E-01
  0.387354657900E+00  0.000000000000E+00  0.402026819800E-01
  0.416805039500E+00  0.000000000000E+00  0.387612092100E-01
  0.431563069800E+00  0.347461097400E-01  0.382680842900E-01
  0.446275575000E+00  0.000000000000E+00  0.369950382400E-01
  0.460658677500E+00  0.347461097400E-01  0.365243827600E-01
  0.475537641500E+00  0.000000000000E+00  0.349711615300E-01
  0.489548468400E+00  0.347461097400E-01  0.345262540700E-01
  0.504370520900E+00  0.000000000000E+00  0.327627487200E-01
  0.518014532300E+00  0.347461097400E-01  0.323459369600E-01
  0.532566893200E+00  0.000000000000E+00  0.304392425300E-01
  0.545852186800E+00  0.347461097400E-01  0.300519907000E-01
  0.559937705100E+00  0.000000000000E+00  0.280559647400E-01
  0.572874783800E+00  0.347461097400E-01  0.276990332700E-01
  0.586316303800E+00  0.000000000000E+00  0.256532273500E-01
  0.598917790800E+00  0.347461097400E-01  0.253268638100E-01
  0.611561371500E+00  0.000000000000E+00  0.232535048500E-01
  0.623841687600E+00  0.347461097400E-01  0.229576708700E-01
  0.635559672300E+00  0.000000000000E+00  0.208718278100E-01
  0.647534679000E+00  0.347461097400E-01  0.206062938200E-01
  0.658226578200E+00  0.000000000000E+00  0.185167738200E-01
  0.669913213700E+00  0.347461097400E-01  0.182812011200E-01
  0.679506400200E+00  0.000000000000E+00  0.161995205000E-01
  0.690922311100E+00  0.347461097400E-01  0.159934281900E-01
  0.699370766700E+00  0.000000000000E+00  0.139351786900E-01
[...]
CELL_DATA                6680
SCALARS C_p_inc float 1
LOOKUP_TABLE default
  0.268713962811E+00
  0.247223751308E+00
  0.166610336172E+00
  0.147837062816E+00
  0.126369644176E+00
  0.108626092270E+00
  0.924159035795E-01
  0.758547786394E-01
  0.612794098368E-01
  0.459643411219E-01
  0.321713166303E-01
  0.180125055928E-01
  0.489888027340E-02
 -0.797190200400E-02
 -0.197385865525E-01
 -0.311942132959E-01
 -0.413879978949E-01
 -0.514354550959E-01
 -0.601584502253E-01
 -0.689285829143E-01
 -0.765250098873E-01
 -0.842690120080E-01
 -0.912574608070E-01
 -0.982908324204E-01
 -0.105383041366E+00
 -0.112063955756E+00
 -0.119827827730E+00
 -0.126416203082E+00
 -0.135301101553E+00
 -0.141988826632E+00
 -0.152071064964E+00
 -0.158828031198E+00
 -0.169743698195E+00
 -0.176372382805E+00
 -0.187398337218E+00
 -0.193502972608E+00
 -0.203684869944E+00
 -0.208773632557E+00
 -0.217184280608E+00
 -0.220746706141E+00
 -0.228309489793E+00
 -0.226670149114E+00
 -0.230860404555E+00
 -0.231430222802E+00
 -0.228747581802E+00
 -0.231487467536E+00
 -0.222836125436E+00
 -0.227538258441E+00
 -0.214406401035E+00
 -0.220699217332E+00
 -0.204873073230E+00
 -0.212381804023E+00
 -0.195264055191E+00
 -0.203751118247E+00
 -0.186382642069E+00
 -0.195738853055E+00
 -0.178465889910E+00
 -0.188881809778E+00
 -0.171324011427E+00
 -0.183215139737E+00
 -0.164397765844E+00
 -0.178436596429E+00
 -0.157166678096E+00
 -0.174140434199E+00
 -0.149035876616E+00
 -0.169912124494E+00
 -0.139779027853E+00
 -0.165526576160E+00
 -0.129720332314E+00
 -0.161423393520E+00
 -0.120317259140E+00
 -0.159374593395E+00
 -0.116315179909E+00
 -0.165644396437E+00
 -0.132814626430E+00
 -0.203096956514E+00
 -0.144377120970E+00
 -0.276974024367E+00
 -0.567383795652E-01
 -0.296107396916E+00
  0.171219597598E+00
 -0.124304753526E+00
  0.454841719819E+00
  0.222356868706E+00
  0.695180052384E+00
  0.589012829494E+00
  0.831954710534E+00
  0.821525349268E+00
  0.818903191478E+00
  0.830407254514E+00
  0.581777466101E+00
  0.690953745800E+00
  0.212182258252E+00
  0.448446522315E+00
 -0.135491189256E+00
  0.163384541821E+00
 -0.306405360433E+00
 -0.649698006638E-01
 -0.285443070800E+00
 -0.151962440573E+00
 -0.210027846084E+00
 -0.139420380122E+00
 -0.171664641023E+00
 -0.122206098130E+00
 -0.164844999256E+00
 -0.125756068405E+00
 -0.166479870908E+00
 -0.134802884637E+00
 -0.170238227428E+00
 -0.144551699003E+00
 -0.174322578493E+00
 -0.153527634848E+00
 -0.178281066798E+00
 -0.161399091415E+00
 -0.182332525967E+00
 -0.168389047993E+00
 -0.186887601032E+00
 -0.175091076402E+00
 -0.192349123259E+00
 -0.182024348491E+00
 -0.199016820230E+00
 -0.189747139860E+00
 -0.206852696014E+00
 -0.198447399615E+00
 -0.215316543022E+00
 -0.207885539389E+00
 -0.223473231712E+00
 -0.217255006179E+00
 -0.230154687795E+00
 -0.225525014857E+00
 -0.233946915342E+00
 -0.231278102265E+00
 -0.233732190315E+00
 -0.233232301421E+00
 -0.228814255424E+00
 -0.230522282541E+00
 -0.222800242643E+00
 -0.219171814964E+00
 -0.210670933803E+00
 -0.205518601058E+00
 -0.195249334122E+00
 -0.189084181289E+00
 -0.177975540077E+00
 -0.171289743492E+00
 -0.160297369481E+00
 -0.153486734171E+00
 -0.143334333305E+00
 -0.136596083232E+00
 -0.127647470367E+00
 -0.121011217405E+00
 -0.113189449756E+00
 -0.106462631621E+00
 -0.993174520499E-01
 -0.922395142546E-01
 -0.852022046276E-01
 -0.774143587176E-01
 -0.697724471075E-01
 -0.609587216336E-01
 -0.521932175114E-01
 -0.421020692548E-01
 -0.318685706639E-01
 -0.203689222550E-01
 -0.856530605777E-02
  0.434999813025E-02
  0.174976952411E-01
  0.317016900405E-01
  0.455259110388E-01
  0.608870962228E-01
  0.754916384793E-01
  0.921002136868E-01
  0.108339717457E+00
  0.126132098969E+00
  0.147635229161E+00
  0.166456555943E+00
  0.247132807036E+00
  0.268653467467E+00
  0.271278025545E+00
  0.268033290935E+00
  0.170739692219E+00
  0.166366558540E+00
  0.132144878953E+00
  0.126244429987E+00
  0.996485500268E-01
  0.923558997123E-01
  0.695233511902E-01
  0.612559945914E-01
  0.409421491615E-01
  0.321663621640E-01
  0.137883826617E-01
  0.490054348377E-02
 -0.110478907324E-01
 -0.197382365747E-01
 -0.331200833016E-01
 -0.413931473226E-01
 -0.524419578161E-01
 -0.601704170572E-01
 -0.693978225109E-01
 -0.765435025688E-01
 -0.846831499992E-01
 -0.912818745631E-01
 -0.992792954695E-01
 -0.105413577331E+00
 -0.114105404129E+00
 -0.119866308134E+00
 -0.129904130980E+00
 -0.135351444877E+00
 -0.147013178711E+00
 -0.152139922280E+00
 -0.165130139644E+00
 -0.169840151391E+00
 -0.183424699418E+00
 -0.187533040049E+00
 -0.200610377420E+00
 -0.203867417561E+00
 -0.215283609814E+00
 -0.217419943690E+00
 -0.226977014863E+00
 -0.226179123592E+00
 -0.231743780129E+00
 -0.232507585410E+00
 -0.231790038309E+00
 -0.234180282415E+00
 -0.227817440140E+00
 -0.231798971541E+00
 -0.220950142357E+00
 -0.226423937954E+00
 -0.212606731441E+00
 -0.219462848902E+00
 -0.203956106447E+00
 -0.212125111915E+00
 -0.195931718230E+00
 -0.205422515606E+00
 -0.189069214362E+00
 -0.199987671275E+00
 -0.183400534279E+00
 -0.195948615874E+00
 -0.178618115282E+00
 -0.193076974891E+00
 -0.174310120070E+00
 -0.191015828579E+00
 -0.170054509929E+00
 -0.189372654242E+00
 -0.165619317858E+00
 -0.187927583455E+00
 -0.161437048693E+00
 -0.187133479578E+00
 -0.159267559836E+00
 -0.188828622040E+00
 -0.165330264957E+00
 -0.199555501970E+00
 -0.202247667714E+00
 -0.243245949475E+00
 -0.274529373807E+00
 -0.325377681733E+00
 -0.292034575754E+00
 -0.350764374756E+00
 -0.127422068408E+00
 -0.181645303368E+00
  0.195516427485E+00
  0.159074980544E+00
  0.530090654976E+00
  0.514817587939E+00
  0.741169741939E+00
  0.739777816257E+00
  0.736877695769E+00
  0.738577305425E+00
  0.506895244006E+00
  0.523147047846E+00
  0.147878201395E+00
  0.185697617359E+00
 -0.194047177147E+00
 -0.138365948154E+00
 -0.362212183510E+00
 -0.302255359279E+00
 -0.334724642114E+00
 -0.283009310314E+00
 -0.250783603640E+00
 -0.209203363579E+00
 -0.206002915468E+00
 -0.171372370418E+00
 -0.194608966263E+00
 -0.164758629905E+00
 -0.192413356881E+00
 -0.166513034370E+00
 -0.192796203322E+00
 -0.170348917383E+00
 -0.193888732931E+00
 -0.174481042151E+00
 -0.195222629578E+00
 -0.178464852605E+00
 -0.197009142952E+00
 -0.182526253900E+00
 -0.199634962252E+00
 -0.187083548494E+00
 -0.203452409014E+00
 -0.192545726031E+00
 -0.208685896877E+00
 -0.199217850335E+00
 -0.215203318171E+00
 -0.207065099190E+00
 -0.222367668081E+00
 -0.215548342407E+00
 -0.229162993844E+00
 -0.223730598979E+00
 -0.234376449703E+00
 -0.230439914334E+00
 -0.236597582991E+00
 -0.234255091498E+00
 -0.234764927571E+00
 -0.234050835362E+00
 -0.228276865835E+00
 -0.229125611291E+00
 -0.219410142281E+00
 -0.217224162888E+00
 -0.205703220254E+00
 -0.202397073056E+00
 -0.189220463865E+00
 -0.185064113435E+00
 -0.171387392010E+00
 -0.166630811417E+00
 -0.153556502746E+00
 -0.148384758925E+00
 -0.136647136414E+00
 -0.131156336340E+00
 -0.121050268487E+00
 -0.115247208812E+00
 -0.106493638887E+00
 -0.100318288249E+00
 -0.922643214214E-01
 -0.856253725490E-01
 -0.774331734831E-01
 -0.702479201668E-01
 -0.609709356693E-01
 -0.532034409161E-01
 -0.421073828495E-01
 -0.337957967262E-01
 -0.203686453858E-01
 -0.116403524841E-01
  0.435168311280E-02
  0.132767576020E-01
  0.316968476578E-01
  0.405089648702E-01
  0.608638672253E-01
  0.691664319250E-01
  0.920404433272E-01
  0.993669869727E-01
  0.126007117577E+00
  0.131940251180E+00
  0.166212932237E+00
  0.170619144886E+00
  0.267972896754E+00
  0.271260194168E+00
  0.273044019193E+00
  0.271023806742E+00
  0.173327604259E+00
  0.170605213872E+00
  0.135432804044E+00
  0.132053394897E+00
  0.103671257481E+00
  0.995912304038E-01
  0.742682832977E-01
  0.694933790731E-01
  0.463239850801E-01
  0.409314382144E-01
  0.196560849353E-01
  0.137885096212E-01
 -0.488854695767E-02
 -0.110448354370E-01
 -0.268690343972E-01
 -0.331201509610E-01
 -0.462745999285E-01
 -0.524489486348E-01
 -0.634474710653E-01
 -0.694136672683E-01
 -0.790361594468E-01
 -0.847087631565E-01
 -0.939815359182E-01
 -0.993156743222E-01
 -0.109178791931E+00
 -0.114154616582E+00
 -0.125368417090E+00
 -0.129970076962E+00
 -0.142908217177E+00
 -0.147102036626E+00
 -0.161532911528E+00
 -0.165250052172E+00
 -0.180454982806E+00
 -0.183584733229E+00
 -0.198422139628E+00
 -0.200818334282E+00
 -0.214043082327E+00
 -0.215543341506E+00
 -0.226505675031E+00
 -0.226039522004E+00
 -0.232834293793E+00
 -0.233575072075E+00
 -0.234489812403E+00
 -0.236511188964E+00
 -0.232078333668E+00
 -0.235399096556E+00
 -0.226666107112E+00
 -0.231263555628E+00
 -0.219666341463E+00
 -0.225500776274E+00
 -0.212291433268E+00
 -0.219329580922E+00
 -0.205553722640E+00
 -0.213787112585E+00
 -0.200084049888E+00
 -0.209536903294E+00
 -0.196007067682E+00
 -0.206732742986E+00
 -0.193090353524E+00
 -0.205160809487E+00
 -0.190973138613E+00
 -0.204465774823E+00
 -0.189259839905E+00
 -0.204243602595E+00
 -0.187728566852E+00
 -0.204254436819E+00
 -0.186829905627E+00
 -0.204934902658E+00
 -0.188394627657E+00
 -0.208130221002E+00
 -0.198931838524E+00
 -0.220487052510E+00
 -0.242230252837E+00
 -0.266408726805E+00
 -0.323768088313E+00
 -0.351525020477E+00
 -0.349409589400E+00
 -0.378996730727E+00
 -0.183282754606E+00
 -0.208898198626E+00
  0.151810260103E+00
  0.135339295586E+00
  0.501631741660E+00
  0.494963348016E+00
  0.723101575121E+00
  0.722512676035E+00
  0.719376398897E+00
  0.720166795307E+00
  0.486430362756E+00
  0.493749106735E+00
  0.123288972769E+00
  0.140696354196E+00
 -0.222239648713E+00
 -0.195600168412E+00
 -0.391294075538E+00
 -0.360800592864E+00
 -0.361528821428E+00
 -0.333086325628E+00
 -0.274430540899E+00
 -0.249754051190E+00
 -0.227306578925E+00
 -0.205373207736E+00
 -0.214207407507E+00
 -0.194174631770E+00
 -0.210452216051E+00
 -0.192113469360E+00
 -0.209311018413E+00
 -0.192603504940E+00
 -0.208905918912E+00
 -0.193783783355E+00
 -0.208783708411E+00
 -0.195188560838E+00
 -0.209174857948E+00
 -0.197031377871E+00
 -0.210476872713E+00
 -0.199702208633E+00
 -0.213039781668E+00
 -0.203557386987E+00
 -0.217072749788E+00
 -0.208825484326E+00
 -0.222417233816E+00
 -0.215377825323E+00
 -0.228404676942E+00
 -0.222579171321E+00
 -0.233993244927E+00
 -0.229412980091E+00
 -0.237960281330E+00
 -0.234663370299E+00
 -0.238906511498E+00
 -0.236914298965E+00
 -0.235805835557E+00
 -0.235098314228E+00
 -0.228107093051E+00
 -0.228609460048E+00
 -0.217487785716E+00
 -0.215950824122E+00
 -0.202608163694E+00
 -0.200174353586E+00
 -0.185226631344E+00
 -0.182058972118E+00
 -0.166752677799E+00
 -0.162997770045E+00
 -0.148475156019E+00
 -0.144243982092E+00
 -0.131223505900E+00
 -0.126585046843E+00
 -0.115297406010E+00
 -0.110285394779E+00
 -0.100355464737E+00
 -0.949857735015E-01
 -0.856516258658E-01
 -0.799441297408E-01
 -0.702642599172E-01
 -0.642638958415E-01
 -0.532107821494E-01
 -0.470031116427E-01
 -0.337960660111E-01
 -0.275126568756E-01
 -0.116373466151E-01
 -0.545003368946E-02
  0.132769854107E-01
  0.191740377540E-01
  0.404984938238E-01
  0.459186753638E-01
  0.691368160289E-01
  0.739372251267E-01
  0.993101120377E-01
  0.103413214243E+00
  0.131849267877E+00
  0.135248959091E+00
  0.170485186192E+00
  0.173224425065E+00
  0.271006507301E+00
  0.273037762431E+00
  0.274544003246E+00
  0.272917010476E+00
  0.175303007694E+00
  0.173255100989E+00
  0.137776310167E+00
  0.135380727167E+00
  0.106412586287E+00
  0.103635917578E+00
  0.774307247147E-01
  0.742474428525E-01
  0.499085567450E-01
  0.463148264166E-01
  0.236331267095E-01
  0.196548790585E-01
 -0.585746089148E-03
 -0.488644050022E-02
 -0.223371677973E-01
 -0.268682701411E-01
 -0.416270284013E-01
 -0.462791109952E-01
 -0.587993043899E-01
 -0.634601832247E-01
 -0.744920978420E-01
 -0.790591932205E-01
 -0.896295131128E-01
 -0.940168304271E-01
 -0.105091262325E+00
 -0.109228858130E+00
 -0.121609270490E+00
 -0.125437001228E+00
 -0.139542830100E+00
 -0.143000670557E+00
 -0.158637650576E+00
 -0.161655864753E+00
 -0.178121962740E+00
 -0.180615422577E+00
 -0.196756927052E+00
 -0.198625672398E+00
 -0.213155031840E+00
 -0.214291945573E+00
 -0.226343693986E+00
 -0.226029863628E+00
 -0.233877113454E+00
 -0.234515094701E+00
 -0.236795918554E+00
 -0.238445407631E+00
 -0.235654402295E+00
 -0.238341455123E+00
 -0.231481825207E+00
 -0.235203722062E+00
 -0.225678838005E+00
 -0.230415564561E+00
 -0.219466987688E+00
 -0.225192301800E+00
 -0.213884363932E+00
 -0.220575111684E+00
 -0.209593756619E+00
 -0.217233884725E+00
 -0.206747238206E+00
 -0.215325680871E+00
 -0.205129207470E+00
 -0.214634734516E+00
 -0.204383182817E+00
 -0.214799135716E+00
 -0.204104992949E+00
 -0.215404355502E+00
 -0.204055570013E+00
 -0.216199565023E+00
 -0.204672075916E+00
 -0.217617601146E+00
 -0.207796704828E+00
 -0.221518695367E+00
 -0.220057120436E+00
 -0.234629289051E+00
 -0.265775560870E+00
 -0.281665169066E+00
 -0.350611443363E+00
 -0.368334872793E+00
 -0.378315791585E+00
 -0.396697418144E+00
 -0.209815391170E+00
 -0.225361467444E+00
  0.131708169627E+00
  0.121901266794E+00
  0.488646297901E+00
  0.484739518783E+00
  0.714663372176E+00
  0.714325514510E+00
  0.711000474727E+00
  0.711495344161E+00
  0.475710844128E+00
  0.480122464221E+00
  0.109156524266E+00
  0.119695573685E+00
 -0.239467686069E+00
 -0.223110893134E+00
 -0.409689398431E+00
 -0.390576615006E+00
 -0.378883536061E+00
 -0.360592488630E+00
 -0.290098912742E+00
 -0.273783531829E+00
 -0.241775682361E+00
 -0.226868241536E+00
 -0.227866234557E+00
 -0.213869774153E+00
 -0.223360319888E+00
 -0.210188685051E+00
 -0.221443301279E+00
 -0.209114075744E+00
 -0.220220538530E+00
 -0.208771179066E+00
 -0.219241828324E+00
 -0.208706364962E+00
 -0.218748204278E+00
 -0.209149443400E+00
 -0.219147349084E+00
 -0.210498179396E+00
 -0.220795561455E+00
 -0.213103860170E+00
 -0.223903619835E+00
 -0.217177511242E+00
 -0.228309350267E+00
 -0.222562351732E+00
 -0.233337466134E+00
 -0.228590574740E+00
 -0.237941761904E+00
 -0.234219380364E+00
 -0.240902812002E+00
 -0.238223359614E+00
 -0.240833983331E+00
 -0.239198765661E+00
 -0.236733318475E+00
 -0.236114988641E+00
 -0.228080147352E+00
 -0.228417812734E+00
 -0.216204296136E+00
 -0.215041609551E+00
 -0.200381687260E+00
 -0.198485184129E+00
 -0.182222499117E+00
 -0.179699982124E+00
 -0.163123207540E+00
 -0.160075169776E+00
 -0.144338428692E+00
 -0.140850401688E+00
 -0.126655232804E+00
 -0.122797256379E+00
 -0.110336751696E+00
 -0.106169087010E+00
 -0.950221045377E-01
 -0.906050979612E-01
 -0.799679815605E-01
 -0.753717739118E-01
 -0.642772264156E-01
 -0.595880243094E-01
 -0.470080487288E-01
 -0.423286688883E-01
 -0.275121283729E-01
 -0.229550171447E-01
 -0.544797452327E-02
 -0.112284536461E-02
  0.191729683276E-01
  0.231737633429E-01
  0.459098268279E-01
  0.495238503790E-01
  0.739168521962E-01
  0.771176700220E-01
  0.103378485270E+00
  0.106169050620E+00
  0.135197625575E+00
  0.137601528343E+00
  0.173152799419E+00
  0.175197984572E+00
  0.272912028343E+00
  0.274506221356E+00
  0.275795997285E+00
  0.274480707089E+00
  0.176885633555E+00
  0.175266306471E+00
  0.139585507347E+00
  0.137749752262E+00
  0.108460310720E+00
  0.106394315151E+00
  0.797330562599E-01
  0.774196874477E-01
  0.524754617240E-01
  0.499034765184E-01
  0.264629556397E-01
  0.236322168394E-01
  0.248679284086E-02
 -0.584959363919E-03
 -0.190617391416E-01
 -0.223375487821E-01
 -0.382061983238E-01
 -0.416314737022E-01
 -0.553036988030E-01
 -0.588104795189E-01
 -0.709993920928E-01
 -0.745123924678E-01
 -0.862185820652E-01
 -0.896612956538E-01
 -0.101839021017E+00
 -0.105137300246E+00
 -0.118590283460E+00
 -0.121673155926E+00
 -0.136831377894E+00
 -0.139629206960E+00
 -0.156310640138E+00
 -0.158751888983E+00
 -0.176260230573E+00
 -0.178269373925E+00
 -0.195443530922E+00
 -0.196941408384E+00
 -0.212470060190E+00
 -0.213377615412E+00
 -0.226297551942E+00
 -0.226044097473E+00
 -0.234779985093E+00
 -0.235277175128E+00
 -0.238694878881E+00
 -0.239986251168E+00
 -0.238565160218E+00
 -0.240671009897E+00
 -0.235394762095E+00
 -0.238314339835E+00
 -0.230570613678E+00
 -0.234288408871E+00
 -0.225310474470E+00
 -0.229802161304E+00
 -0.220656728910E+00
 -0.225894595558E+00
 -0.217279263677E+00
 -0.223234801902E+00
 -0.215334461605E+00
 -0.221977516736E+00
 -0.214605898030E+00
 -0.221902530838E+00
 -0.214731491243E+00
 -0.222642456964E+00
 -0.215297225949E+00
 -0.223776895153E+00
 -0.216053279855E+00
 -0.225050996292E+00
 -0.217433102907E+00
 -0.226900389731E+00
 -0.221295024773E+00
 -0.231202519146E+00
 -0.234353558629E+00
 -0.244747526555E+00
 -0.281275518443E+00
 -0.292480519634E+00
 -0.367792619836E+00
 -0.380160414404E+00
 -0.396312241894E+00
 -0.409023942575E+00
 -0.225905207531E+00
 -0.236575993354E+00
  0.119844421738E+00
  0.113159224146E+00
  0.481230188432E+00
  0.478587818184E+00
  0.710009649058E+00
  0.709785329754E+00
  0.706301093774E+00
  0.706657175918E+00
  0.469137809770E+00
  0.472200190900E+00
  0.998231530315E-01
  0.107118665598E+00
 -0.251334266314E+00
 -0.239984176609E+00
 -0.422610197593E+00
 -0.409280578868E+00
 -0.391179058010E+00
 -0.378325484653E+00
 -0.301274366451E+00
 -0.289699063379E+00
 -0.252184371622E+00
 -0.241493320637E+00
 -0.237794762961E+00
 -0.227638836935E+00
 -0.232851540776E+00
 -0.223174541129E+00
 -0.230472157358E+00
 -0.221297763218E+00
 -0.228743224395E+00
 -0.220115798107E+00
 -0.227211052038E+00
 -0.219177871313E+00
 -0.226120357146E+00
 -0.218724064173E+00
 -0.225884474809E+00
 -0.219161606488E+00
 -0.226864992360E+00
 -0.220847024092E+00
 -0.229276943552E+00
 -0.223991801352E+00
 -0.232960264037E+00
 -0.228434467692E+00
 -0.237240234103E+00
 -0.233499742512E+00
 -0.241072608981E+00
 -0.238140197151E+00
 -0.243244157537E+00
 -0.241133942877E+00
 -0.242379288533E+00
 -0.241090748077E+00
 -0.237493551358E+00
 -0.237005199412E+00
 -0.228087191773E+00
 -0.228354365244E+00
 -0.215269155168E+00
 -0.214344899181E+00
 -0.198673832699E+00
 -0.197156564046E+00
 -0.179850838833E+00
 -0.177820335884E+00
 -0.160192226160E+00
 -0.157728250718E+00
 -0.140939069912E+00
 -0.138117643931E+00
 -0.122863000722E+00
 -0.119756072463E+00
 -0.106216630763E+00
 -0.102894183147E+00
 -0.906380925578E-01
 -0.871714010326E-01
 -0.753930268769E-01
 -0.718565148125E-01
 -0.595999279297E-01
 -0.560703606299E-01
 -0.423336244232E-01
 -0.388865317922E-01
 -0.229556946908E-01
 -0.196592621888E-01
 -0.112214272494E-02
  0.196883986893E-02
  0.231729817036E-01
  0.260213960612E-01
  0.495191095741E-01
  0.521071006282E-01
  0.771071809366E-01
  0.794348377544E-01
  0.106151546116E+00
  0.108230174621E+00
  0.137575990787E+00
  0.139423089957E+00
  0.175162679956E+00
  0.176793614508E+00
  0.274445660589E+00
  0.275779899967E+00
  0.276844837669E+00
  0.275769376902E+00
  0.178175198716E+00
  0.176870226024E+00
  0.141024824465E+00
  0.139574636532E+00
  0.110051819698E+00
  0.108453129636E+00
  0.814851736114E-01
  0.797290059760E-01
  0.543951812518E-01
  0.524738382666E-01
  0.285525598831E-01
  0.264627580882E-01
  0.473926654402E-02
  0.248663110544E-02
 -0.166641210344E-01
 -0.190635601981E-01
 -0.356924103805E-01
 -0.382115605544E-01
 -0.527135168279E-01
 -0.553145672870E-01
 -0.683818353507E-01
 -0.710177924574E-01
 -0.836295649031E-01
 -0.862467312053E-01
 -0.993394106803E-01
 -0.101879547348E+00
 -0.116244450438E+00
 -0.118646454884E+00
 -0.134706498372E+00
 -0.136907190032E+00
 -0.154476275675E+00
 -0.156410485280E+00
 -0.174787049055E+00
 -0.176388227912E+00
 -0.194400641472E+00
 -0.195602457171E+00
 -0.211920857630E+00
 -0.212660271109E+00
 -0.226271459505E+00
 -0.226041947274E+00
 -0.235502147336E+00
 -0.235857042041E+00
 -0.240198608583E+00
 -0.241169546131E+00
 -0.240862296270E+00
 -0.242463258477E+00
 -0.238478794222E+00
 -0.240707701883E+00
 -0.234423137787E+00
 -0.237266121681E+00
 -0.229906356429E+00
 -0.233341656028E+00
 -0.225968657186E+00
 -0.229970325801E+00
 -0.223279441422E+00
 -0.227819292385E+00
 -0.221993231770E+00
 -0.227040579851E+00
 -0.221889573924E+00
 -0.227410327981E+00
 -0.222601133294E+00
 -0.228557539470E+00
 -0.223707966978E+00
 -0.230058653736E+00
 -0.224955937360E+00
 -0.231657606053E+00