# vtk DataFile Version 3.0
MachLine results file. Generated by MachLine, USU AeroLab (c) 2022.
ASCII
DATASET POLYDATA
POINTS                3261 float
  0.000000000000E+00  0.000000000000E+00  0.000000000000E+00
  0.138131193817E-01  0.239259991795E-01  0.000000000000E+00
  0.184377916157E-01  0.000000000000E+00 -0.191644169390E-01
  0.184377916157E-01  0.000000000000E+00  0.191644169390E-01
  0.276262387633E-01  0.478519983590E-01  0.000000000000E+00
  0.320895873010E-01  0.239259991795E-01 -0.189967341721E-01
  0.320895873010E-01  0.239259991795E-01  0.189967341721E-01
  0.414393581450E-01  0.717779994011E-01  0.000000000000E+00
  0.457413829863E-01  0.478519983590E-01 -0.188290514052E-01
  0.457413829863E-01  0.478519983590E-01  0.188290514052E-01
  0.460614785552E-01  0.000000000000E+00 -0.248102936894E-01
  0.460614785552E-01  0.000000000000E+00  0.248102936894E-01
  0.552524775267E-01  0.957039967179E-01  0.000000000000E+00
  0.593931749463E-01  0.717779994011E-01 -0.186613686383E-01
  0.593931749463E-01  0.717779994011E-01  0.186613686383E-01
  0.594715774059E-01  0.239259991795E-01 -0.245932117105E-01
  0.594715774059E-01  0.239259991795E-01  0.245932117105E-01
  0.690656006336E-01  0.119630001485E+00  0.000000000000E+00
  0.728816688061E-01  0.478519983590E-01 -0.243761278689E-01
  0.728816688061E-01  0.478519983590E-01  0.243761278689E-01
  0.730449706316E-01  0.957039967179E-01 -0.184936858714E-01
  0.730449706316E-01  0.957039967179E-01  0.184936858714E-01
  0.740515887737E-01  0.000000000000E+00 -0.284879114479E-01
  0.740515887737E-01  0.000000000000E+00  0.284879114479E-01
  0.828787162900E-01  0.143555998802E+00  0.000000000000E+00
  0.862917676568E-01  0.717779994011E-01 -0.241590458900E-01
  0.862917676568E-01  0.717779994011E-01  0.241590458900E-01
  0.866967663169E-01  0.119630001485E+00 -0.183260031044E-01
  0.866967663169E-01  0.119630001485E+00  0.183260031044E-01
  0.872167795897E-01  0.239259991795E-01 -0.282386522740E-01
  0.872167795897E-01  0.239259991795E-01  0.282386522740E-01
  0.966918393970E-01  0.167482003570E+00  0.000000000000E+00
  0.997018665075E-01  0.957039967179E-01 -0.239419639111E-01
  0.997018665075E-01  0.957039967179E-01  0.239419639111E-01
  0.100348562002E+00  0.143555998802E+00 -0.181583203375E-01
  0.100348562002E+00  0.143555998802E+00  0.181583203375E-01
  0.100381970406E+00  0.478519983590E-01 -0.279893912375E-01
  0.100381970406E+00  0.478519983590E-01  0.279893912375E-01
  0.102138325572E+00  0.000000000000E+00 -0.313414372504E-01
  0.102138325572E+00  0.000000000000E+00  0.313414372504E-01
  0.110504955053E+00  0.191407993436E+00  0.000000000000E+00
  0.113111965358E+00  0.119630001485E+00 -0.237248819321E-01
  0.113111965358E+00  0.119630001485E+00  0.237248819321E-01
  0.113547168672E+00  0.717779994011E-01 -0.277401320636E-01
  0.113547168672E+00  0.717779994011E-01  0.277401320636E-01
  0.114000357687E+00  0.167482003570E+00 -0.179906394333E-01
  0.114000357687E+00  0.167482003570E+00  0.179906394333E-01
  0.115057766438E+00  0.239259991795E-01 -0.310672093183E-01
  0.115057766438E+00  0.239259991795E-01  0.310672093183E-01
  0.124318078160E+00  0.215333998203E+00  0.000000000000E+00
  0.126522064209E+00  0.143555998802E+00 -0.235077999532E-01
  0.126522064209E+00  0.143555998802E+00  0.235077999532E-01
  0.126712352037E+00  0.957039967179E-01 -0.274908710271E-01
  0.126712352037E+00  0.957039967179E-01  0.274908710271E-01
  0.127652153373E+00  0.191407993436E+00 -0.178229566664E-01
  0.127652153373E+00  0.191407993436E+00  0.178229566664E-01
  0.127977207303E+00  0.478519983590E-01 -0.307929813862E-01
  0.127977207303E+00  0.478519983590E-01  0.307929813862E-01
  0.130280584097E+00  0.000000000000E+00 -0.335864275694E-01
  0.130280584097E+00  0.000000000000E+00  0.335864275694E-01
  0.138131201267E+00  0.239260002971E+00  0.000000000000E+00
  0.139877542853E+00  0.119630001485E+00 -0.272416118532E-01
  0.139877542853E+00  0.119630001485E+00  0.272416118532E-01
  0.139932155609E+00  0.167482003570E+00 -0.232907179743E-01
  0.139932155609E+00  0.167482003570E+00  0.232907179743E-01
  0.140896648169E+00  0.717779994011E-01 -0.305187534541E-01
  0.140896648169E+00  0.717779994011E-01  0.305187534541E-01
  0.141303941607E+00  0.215333998203E+00 -0.176552738994E-01
  0.141303941607E+00  0.215333998203E+00  0.176552738994E-01
  0.142953783274E+00  0.239259991795E-01 -0.332925543189E-01
  0.142953783274E+00  0.239259991795E-01  0.332925543189E-01
  0.151944324374E+00  0.263186007738E+00  0.000000000000E+00
  0.153042748570E+00  0.143555998802E+00 -0.269923508167E-01
  0.153042748570E+00  0.143555998802E+00  0.269923508167E-01
  0.153342247009E+00  0.191407993436E+00 -0.230736359954E-01
  0.153342247009E+00  0.191407993436E+00  0.230736359954E-01
  0.153816103935E+00  0.957039967179E-01 -0.302445273846E-01
  0.153816103935E+00  0.957039967179E-01  0.302445273846E-01
  0.154955744743E+00  0.239260002971E+00 -0.174875911325E-01
  0.154955744743E+00  0.239260002971E+00  0.174875911325E-01
  0.155626997352E+00  0.478519983590E-01 -0.329986847937E-01
  0.155626997352E+00  0.478519983590E-01  0.329986847937E-01
  0.158455848694E+00  0.000000000000E+00 -0.353712737560E-01
  0.158455848694E+00  0.000000000000E+00  0.353712737560E-01
  0.165757432580E+00  0.287111997604E+00  0.000000000000E+00
  0.166207939386E+00  0.167482003570E+00 -0.267430916429E-01
  0.166207939386E+00  0.167482003570E+00  0.267430916429E-01
  0.166735544801E+00  0.119630001485E+00 -0.299702994525E-01
  0.166735544801E+00  0.119630001485E+00  0.299702994525E-01
  0.166752353311E+00  0.215333998203E+00 -0.228565540165E-01
  0.166752353311E+00  0.215333998203E+00  0.228565540165E-01
  0.168300196528E+00  0.717779994011E-01 -0.327048152685E-01
  0.168300196528E+00  0.717779994011E-01  0.327048152685E-01
  0.168607532978E+00  0.263186007738E+00 -0.173199083656E-01
  0.168607532978E+00  0.263186007738E+00  0.173199083656E-01
  0.170882523060E+00  0.239259991795E-01 -0.350617878139E-01
  0.170882523060E+00  0.239259991795E-01  0.350617878139E-01
  0.179373130202E+00  0.191407993436E+00 -0.264938306063E-01
  0.179373130202E+00  0.191407993436E+00  0.264938306063E-01
  0.179570555687E+00  0.311037987471E+00  0.000000000000E+00
  0.179654985666E+00  0.143555998802E+00 -0.296960715204E-01
  0.179654985666E+00  0.143555998802E+00  0.296960715204E-01
  0.180162444711E+00  0.239260002971E+00 -0.226394720376E-01
  0.180162444711E+00  0.239260002971E+00  0.226394720376E-01
  0.180973410606E+00  0.957039967179E-01 -0.324109420180E-01
  0.180973410606E+00  0.957039967179E-01  0.324109420180E-01
  0.182259336114E+00  0.287111997604E+00 -0.171522255987E-01
  0.182259336114E+00  0.287111997604E+00  0.171522255987E-01
  0.183309212327E+00  0.478519983590E-01 -0.347523018718E-01
  0.183309212327E+00  0.478519983590E-01  0.347523018718E-01
  0.186651825905E+00  0.000000000000E+00 -0.367915518582E-01
  0.186651825905E+00  0.000000000000E+00  0.367915518582E-01
  0.192538321018E+00  0.215333998203E+00 -0.262445714325E-01
  0.192538321018E+00  0.215333998203E+00  0.262445714325E-01
  0.192574426532E+00  0.167482003570E+00 -0.294218435884E-01
  0.192574426532E+00  0.167482003570E+00  0.294218435884E-01
  0.193383678794E+00  0.334964007139E+00  0.000000000000E+00
  0.193572536111E+00  0.263186007738E+00 -0.224223900586E-01
  0.193572536111E+00  0.263186007738E+00  0.224223900586E-01
  0.193646609783E+00  0.119630001485E+00 -0.321170724928E-01
  0.193646609783E+00  0.119630001485E+00  0.321170724928E-01
  0.195735886693E+00  0.717779994011E-01 -0.344428122044E-01
  0.195735886693E+00  0.717779994011E-01  0.344428122044E-01
  0.195911124349E+00  0.311037987471E+00 -0.169845428318E-01
  0.195911124349E+00  0.311037987471E+00  0.169845428318E-01
  0.198831796646E+00  0.239259991795E-01 -0.364696383476E-01
  0.198831796646E+00  0.239259991795E-01  0.364696383476E-01
  0.205493867397E+00  0.191407993436E+00 -0.291476156563E-01
  0.205493867397E+00  0.191407993436E+00  0.291476156563E-01
  0.205703511834E+00  0.239260002971E+00 -0.259953103960E-01
  0.205703511834E+00  0.239260002971E+00  0.259953103960E-01
  0.206319823861E+00  0.143555998802E+00 -0.318232029676E-01
  0.206319823861E+00  0.143555998802E+00  0.318232029676E-01
  0.206982642412E+00  0.287111997604E+00 -0.222053080797E-01
  0.206982642412E+00  0.287111997604E+00  0.222053080797E-01
  0.207196801901E+00  0.358889997005E+00  0.000000000000E+00
  0.208162575960E+00  0.957039967179E-01 -0.341333262622E-01
  0.208162575960E+00  0.957039967179E-01  0.341333262622E-01
  0.209562927485E+00  0.334964007139E+00 -0.168168619275E-01
  0.209562927485E+00  0.334964007139E+00  0.168168619275E-01
  0.211011782289E+00  0.478519983590E-01 -0.361477248371E-01
  0.211011782289E+00  0.478519983590E-01  0.361477248371E-01
  0.214861869812E+00  0.000000000000E+00 -0.378986261785E-01
  0.214861869812E+00  0.000000000000E+00  0.378986261785E-01
  0.218413308263E+00  0.215333998203E+00 -0.288733895868E-01
  0.218413308263E+00  0.215333998203E+00  0.288733895868E-01
  0.218868702650E+00  0.263186007738E+00 -0.257460512221E-01
  0.218868702650E+00  0.263186007738E+00  0.257460512221E-01
  0.218993023038E+00  0.167482003570E+00 -0.315293334424E-01
  0.218993023038E+00  0.167482003570E+00  0.315293334424E-01
  0.220392733812E+00  0.311037987471E+00 -0.219882261008E-01
  0.220392733812E+00  0.311037987471E+00  0.219882261008E-01
  0.220589250326E+00  0.119630001485E+00 -0.338238403201E-01
  0.220589250326E+00  0.119630001485E+00  0.338238403201E-01
  0.221009910107E+00  0.382815986872E+00  0.000000000000E+00
  0.223191753030E+00  0.717779994011E-01 -0.358258113265E-01
  0.223191753030E+00  0.717779994011E-01  0.358258113265E-01
  0.223214715719E+00  0.358889997005E+00 -0.166491791606E-01
  0.223214715719E+00  0.358889997005E+00  0.166491791606E-01
  0.226795017719E+00  0.239259991795E-01 -0.375670231879E-01
  0.226795017719E+00  0.239259991795E-01  0.375670231879E-01
[...]
CELL_DATA                6372
SCALARS C_p_inc float 1
LOOKUP_TABLE default
 -0.247806208221E+00
 -0.175144405459E+00
 -0.163387113772E+00
 -0.167006496121E+00
 -0.171495523574E+00
 -0.176747463545E+00
 -0.183282173827E+00
 -0.190965250937E+00
 -0.199109311806E+00
 -0.206701173252E+00
 -0.212577939652E+00
 -0.215656884122E+00
 -0.215111449722E+00
 -0.210512433296E+00
 -0.201903772799E+00
 -0.189781328745E+00
 -0.175001030133E+00
 -0.158622727359E+00
 -0.141689426359E+00
 -0.125034654358E+00
 -0.109015260692E+00
 -0.932343053733E-01
 -0.763590070334E-01
 -0.559730853256E-01
 -0.286953050280E-01
  0.947019875525E-02
  0.535542731692E-01
 -0.291249398940E+00
 -0.197518173443E+00
 -0.177572443217E+00
 -0.177109804959E+00
 -0.179208412885E+00
 -0.182979145789E+00
 -0.188524139133E+00
 -0.195439272126E+00
 -0.202862575428E+00
 -0.209678551128E+00
 -0.214682128801E+00
 -0.216798214578E+00
 -0.215245409334E+00
 -0.209661403128E+00
 -0.200161349362E+00
 -0.187298388011E+00
 -0.171959362732E+00
 -0.155199921327E+00
 -0.138025000955E+00
 -0.121199672228E+00
 -0.104992205351E+00
 -0.889140808764E-01
 -0.715594517873E-01
 -0.504905436117E-01
 -0.223904402600E-01
  0.165912443455E-01
  0.610934733621E-01
 -0.316194946803E+00
 -0.213735339903E+00
 -0.189241795565E+00
 -0.186049410630E+00
 -0.186326969003E+00
 -0.188820485524E+00
 -0.193405172381E+00
 -0.199520335189E+00
 -0.206198875534E+00
 -0.212262677973E+00
 -0.216480408295E+00
 -0.217781337293E+00
 -0.215410895316E+00
 -0.209045957873E+00
 -0.198841720735E+00
 -0.185381630611E+00
 -0.169565241113E+00
 -0.152439821244E+00
 -0.134981446189E+00
 -0.117911261400E+00
 -0.101447159574E+00
 -0.850573750655E-01
 -0.673159256895E-01
 -0.458111141736E-01
 -0.173271233858E-01
  0.217531157135E-01
  0.655125713598E-01
 -0.332644421297E+00
 -0.225717436197E+00
 -0.198589519716E+00
 -0.193606121135E+00
 -0.192548222597E+00
 -0.194007965636E+00
 -0.197749144764E+00
 -0.203126163108E+00
 -0.209111563682E+00
 -0.214490839492E+00
 -0.218018026434E+00
 -0.218625887215E+00
 -0.215577011922E+00
 -0.208572065899E+00
 -0.197789780622E+00
 -0.183830049324E+00
 -0.167597073287E+00
 -0.150130180741E+00
 -0.132385842150E+00
 -0.115059115080E+00
 -0.983425494825E-01
 -0.816894582590E-01
 -0.636829312129E-01
 -0.419588741144E-01
 -0.134063460412E-01
  0.254167488453E-01
  0.684257236107E-01
 -0.344491043684E+00
 -0.234903056682E+00
 -0.206127468711E+00
 -0.199927717194E+00
 -0.197879557220E+00
 -0.198511319055E+00
 -0.201535358179E+00
 -0.206261714707E+00
 -0.211629577190E+00
 -0.216404264883E+00
 -0.219331943515E+00
 -0.219349028308E+00
 -0.215729453110E+00
 -0.208189222920E+00
 -0.196921289383E+00
 -0.182534960533E+00
 -0.165936416262E+00
 -0.148159021226E+00
 -0.130147688627E+00
 -0.112583476357E+00
 -0.956491531927E-01
 -0.787986015888E-01
 -0.606342290321E-01
 -0.388379499926E-01
 -0.103729720829E-01
  0.281204551272E-01
  0.705479411289E-01
 -0.353528362254E+00
 -0.242168002808E+00
 -0.212282150785E+00
 -0.205217352452E+00
 -0.202416113483E+00
 -0.202380940326E+00
 -0.204801451682E+00
 -0.208965420205E+00
 -0.213794391838E+00
 -0.218042838790E+00
 -0.220453265865E+00
 -0.219965447225E+00
 -0.215861482508E+00
 -0.207867436503E+00
 -0.196185830870E+00
 -0.181431944034E+00
 -0.164513240972E+00
 -0.146459980717E+00
 -0.128211130417E+00
 -0.110441839763E+00
 -0.933330908946E-01
 -0.763457132153E-01
 -0.581017065990E-01
 -0.363161101244E-01
 -0.799323812611E-02
  0.301987400836E-01
  0.721959284694E-01
 -0.360695556536E+00
 -0.248052736411E+00
 -0.217368383563E+00
 -0.209659713040E+00
 -0.206270164903E+00
 -0.205691487540E+00
 -0.207604538924E+00
 -0.211286562782E+00
 -0.215649896596E+00
 -0.219443423529E+00
 -0.221408687669E+00
 -0.220488215117E+00
 -0.215970302789E+00
 -0.207588454564E+00
 -0.195551822480E+00
 -0.180480470614E+00
 -0.163283242396E+00
 -0.144989495870E+00
 -0.126536324321E+00
 -0.108597264434E+00
 -0.913550651063E-01
 -0.742786074112E-01
 -0.560044719746E-01
 -0.342679705732E-01
 -0.609201575051E-02
  0.318502173783E-01
  0.735459671060E-01
 -0.366535561763E+00
 -0.252906016498E+00
 -0.221615617692E+00
 -0.213408179152E+00
 -0.209547170596E+00
 -0.208520085286E+00
 -0.210005195400E+00
 -0.213275017331E+00
 -0.217237773961E+00
 -0.220639321473E+00
 -0.222221289867E+00
 -0.220929283703E+00
 -0.216056203599E+00
 -0.207341221063E+00
 -0.194998977550E+00
 -0.179653593394E+00
 -0.162215958453E+00
 -0.143716038774E+00
 -0.125090832903E+00
 -0.107014802573E+00
 -0.896733182401E-01
 -0.725412793345E-01
 -0.542648467275E-01
 -0.325898853458E-01
 -0.454608905518E-02
  0.331969452189E-01
  0.746621966191E-01
 -0.371386840248E+00
 -0.256963719035E+00
 -0.225193267498E+00
 -0.216586381837E+00
 -0.212339509290E+00
 -0.210937817910E+00
 -0.212060197353E+00
 -0.214977676037E+00
 -0.218595748845E+00
 -0.221659640428E+00
 -0.222911657803E+00
 -0.221299780830E+00
 -0.216120963711E+00
 -0.207119276033E+00
 -0.194513965713E+00
 -0.178932524184E+00
 -0.161288836258E+00
 -0.142614140525E+00
 -0.123846239962E+00
 -0.105661028359E+00
 -0.882462958400E-01
 -0.710805112648E-01
 -0.528154216177E-01
 -0.312012996418E-01
 -0.326942432869E-02
  0.343153863410E-01
  0.755890971458E-01
 -0.375474987792E+00
 -0.260392449262E+00
 -0.228228761204E+00
 -0.219293537958E+00
 -0.214725033530E+00
 -0.213007379431E+00
 -0.213820618025E+00
 -0.216435783516E+00
 -0.219757289940E+00
 -0.222530143617E+00
 -0.223497629072E+00
 -0.221609932813E+00
 -0.216167658311E+00
 -0.206918926778E+00
 -0.194087085340E+00
 -0.178303201417E+00
 -0.160483744049E+00
 -0.141661912380E+00
 -0.122776453377E+00
 -0.104504441132E+00
 -0.870351259479E-01
 -0.698492147036E-01
 -0.516004957015E-01
 -0.300407783407E-01
 -0.220065096233E-02
  0.352591352336E-01
  0.763857195970E-01
 -0.378956764099E+00
 -0.263313944092E+00
 -0.230820252962E+00
 -0.221609361650E+00
 -0.216768818918E+00
 -0.214782132768E+00
 -0.215330801827E+00
 -0.217685745545E+00
 -0.220751472765E+00
 -0.223273160032E+00
 -0.223994954756E+00
 -0.221869099551E+00
 -0.216199387443E+00
 -0.206737932808E+00
 -0.193711291450E+00
 -0.177754124338E+00
 -0.159785342640E+00
 -0.140839663531E+00
 -0.121857509964E+00
 -0.103516243702E+00
 -0.860054591343E-01
 -0.688070994013E-01
 -0.505751333642E-01
 -0.290613631029E-01
 -0.129534413762E-02
  0.360657774487E-01
  0.770788544225E-01
 -0.381947087003E+00
 -0.265820127447E+00
 -0.233044230703E+00
 -0.223598326756E+00
 -0.218525272784E+00
 -0.216307562979E+00
 -0.216628272499E+00
 -0.218758767796E+00
 -0.221603554861E+00
 -0.223907958196E+00
 -0.224417161614E+00
 -0.222085554214E+00
 -0.216219623846E+00
 -0.206574650378E+00
 -0.193380652833E+00
 -0.177275231057E+00
 -0.159179738378E+00
 -0.140130176201E+00
 -0.121067807438E+00
 -0.102670382803E+00
 -0.851275204031E-01
 -0.679205779261E-01
 -0.497034408663E-01
 -0.282273332022E-01
 -0.520602249899E-03
  0.367625230536E-01
  0.776850488595E-01
 -0.384532451283E+00
 -0.267982068056E+00
 -0.234961631481E+00
 -0.225312857770E+00
 -0.220039187459E+00
 -0.217621918706E+00
 -0.217745348240E+00
 -0.219681448319E+00
 -0.222334851664E+00
 -0.224451073044E+00
 -0.224776207340E+00
 -0.222266509591E+00
 -0.216230951970E+00
 -0.206427818686E+00
 -0.193090010842E+00
 -0.176857766482E+00
 -0.158654417118E+00
 -0.139517411033E+00
 -0.120388289829E+00
 -0.101944366773E+00
 -0.843755168621E-01
 -0.671620329678E-01
 -0.489567988178E-01
 -0.275109488805E-01
  0.148742459388E-03
  0.373698633703E-01
  0.782199994745E-01
 -0.386779672944E+00
 -0.269855851344E+00
 -0.236621510492E+00
 -0.226796173716E+00
 -0.221347849181E+00
 -0.218757026544E+00
 -0.218709276467E+00
 -0.220476614464E+00
 -0.222963651699E+00
 -0.224916588306E+00
 -0.225081910909E+00
 -0.222417926202E+00
 -0.216235868754E+00
 -0.206296074654E+00
 -0.192834471592E+00
 -0.176493631878E+00
 -0.158198438248E+00
 -0.138987052417E+00
 -0.119801603710E+00
 -0.101318979009E+00
 -0.837280806533E-01
 -0.665084985020E-01
 -0.483124115025E-01
 -0.268904156156E-01
  0.732339960265E-03
  0.379039095073E-01
  0.786958661885E-01
 -0.388741695972E+00
 -0.271486846099E+00
 -0.238063901812E+00
 -0.228083319190E+00
 -0.222482370703E+00
 -0.219740179754E+00
 -0.219542894677E+00
 -0.221163218551E+00
 -0.223505596343E+00
 -0.225316284481E+00
 -0.225342819177E+00
 -0.222544906937E+00
 -0.216235734031E+00
 -0.206177946349E+00
 -0.192609677456E+00
 -0.176175322390E+00
 -0.157801441872E+00
 -0.138526671909E+00
 -0.119292984456E+00
 -0.100777220276E+00
 -0.831671714939E-01
 -0.659415356256E-01
 -0.477518316725E-01
 -0.263479646949E-01
  0.124547328556E-02
  0.383776121318E-01
  0.791218656653E-01
 -0.390461902369E+00
 -0.272911650489E+00
 -0.239321390281E+00
 -0.229204000109E+00
 -0.223468748132E+00
 -0.220593782957E+00
 -0.220265774520E+00
 -0.221757469960E+00
 -0.223973373902E+00
 -0.225660137964E+00
 -0.225565796028E+00
 -0.222651448483E+00
 -0.216231889188E+00
 -0.206071693729E+00
 -0.192411197731E+00
 -0.175896166075E+00
 -0.157454314876E+00
 -0.138124975342E+00
 -0.118849631460E+00
 -0.100304825445E+00
 -0.826776962859E-01
 -0.654457946890E-01
 -0.472598774132E-01
 -0.258694736945E-01
  0.170094908436E-02
  0.388018035348E-01
  0.795092429853E-01
 -0.391975195384E+00
 -0.274160801116E+00
 -0.240421248710E+00
 -0.230182480158E+00
 -0.224328733881E+00
 -0.221336915874E+00
 -0.220893949815E+00
 -0.222272886701E+00
 -0.224378155979E+00
 -0.225956350246E+00
 -0.225756563542E+00
 -0.222740536985E+00
 -0.216224757307E+00
 -0.205975568432E+00
 -0.192234898072E+00
 -0.175649904683E+00
 -0.157148973430E+00
 -0.137771883698E+00
 -0.118460304321E+00
 -0.998898832488E-01
 -0.822468506613E-01
 -0.650082338080E-01
 -0.468241352579E-01
 -0.254435995760E-01
  0.210918248058E-02
  0.391848393919E-01
  0.798626348271E-01
 -0.393310861105E+00
 -0.275259057583E+00
 -0.241386162575E+00
 -0.231039464918E+00
 -0.225080547878E+00
 -0.221985332242E+00
 -0.221441268687E+00
 -0.222720789086E+00
 -0.224728806795E+00
 -0.226211903785E+00
 -0.225919422183E+00
 -0.222814501202E+00
 -0.216214607591E+00
 -0.205887542800E+00
 -0.192076848465E+00
 -0.175430619217E+00
 -0.156877929565E+00
 -0.137459037340E+00
 -0.118115314865E+00
 -0.995216937807E-01
 -0.818638048436E-01
 -0.646181460726E-01
 -0.464342928149E-01
 -0.250605491212E-01
  0.247857971068E-02
  0.395338946095E-01
  0.801896455796E-01
 -0.394493026480E+00
 -0.276227805357E+00
 -0.242235270190E+00
 -0.231791854212E+00
 -0.225739498944E+00
 -0.222552667840E+00
 -0.221918985277E+00
 -0.223110782412E+00
 -0.225032760836E+00
 -0.226432125158E+00
 -0.226058190583E+00
 -0.222874878422E+00
 -0.216200981123E+00
 -0.205805603374E+00
 -0.191933292964E+00
 -0.175233048497E+00
 -0.156634770138E+00
 -0.137178740302E+00
 -0.117806194105E+00
 -0.991914000829E-01
 -0.815194060452E-01
 -0.642664350982E-01
 -0.460813314993E-01
 -0.247122428659E-01
  0.281632195381E-02
  0.398553932682E-01
  0.804947076396E-01
 -0.395542357778E+00
 -0.277084531832E+00
 -0.242984386248E+00
 -0.232454504978E+00
 -0.226318568253E+00
 -0.223050007922E+00
 -0.222336490840E+00
 -0.223450604329E+00
 -0.225296466316E+00
 -0.226621379857E+00
 -0.226175434857E+00
 -0.222922708607E+00
 -0.216183370604E+00
 -0.205727568245E+00
 -0.191800536921E+00
 -0.175052355949E+00
 -0.156413486472E+00
 -0.136924276164E+00
 -0.117525298191E+00
 -0.988910398177E-01
 -0.812058365141E-01
 -0.639451699348E-01
 -0.457577077305E-01
 -0.243915878028E-01
  0.312871219850E-02
  0.401537201509E-01
  0.807735846656E-01
 -0.396475976511E+00
 -0.277844619578E+00
 -0.243647206350E+00
 -0.233039358346E+00
 -0.226828483394E+00
 -0.223486815773E+00
 -0.222702072802E+00
 -0.223746534383E+00
 -0.225524690401E+00
 -0.226783353112E+00
 -0.226272946277E+00
 -0.222958559266E+00
 -0.216160894689E+00
 -0.205651000298E+00
 -0.191675092326E+00
 -0.174884066927E+00
 -0.156208675364E+00
 -0.136689149082E+00
 -0.117266204820E+00
 -0.986138006428E-01
 -0.809158316345E-01
 -0.636473418155E-01
 -0.454568840139E-01
 -0.240923828493E-01
  0.342123588338E-02
  0.404344268528E-01
  0.810377804707E-01
 -0.397309103873E+00
 -0.278520540367E+00
 -0.244235215805E+00
 -0.233556932227E+00
 -0.227278419083E+00
 -0.223870828957E+00
 -0.223022221751E+00
 -0.224004185195E+00
 -0.225721197554E+00
 -0.226920487844E+00
 -0.226352337966E+00
 -0.222982354153E+00
 -0.216132205944E+00
 -0.205573702095E+00
 -0.191553708334E+00
 -0.174723784853E+00
 -0.156015123081E+00
 -0.136468002841E+00
 -0.117022927353E+00
 -0.983533672653E-01
 -0.806431083882E-01
 -0.633667693414E-01
 -0.451728258525E-01
 -0.238091817381E-01
  0.369935138949E-02
  0.407025252437E-01
  0.812930802141E-01
 -0.398054559564E+00
 -0.279123155472E+00
 -0.244758182766E+00
 -0.234015767198E+00
 -0.227675908232E+00
 -0.224208880422E+00
 -0.223302114409E+00
 -0.224227689891E+00
 -0.225889372021E+00
 -0.227034604686E+00
 -0.226414124406E+00
 -0.222993816594E+00
 -0.216095919411E+00
 -0.205493033924E+00
 -0.191432883967E+00
 -0.174567415824E+00
 -0.155828098966E+00
 -0.136255465257E+00
 -0.116789636369E+00
 -0.981041209176E-01
 -0.803819403366E-01
 -0.630977945858E-01
 -0.448999902028E-01
 -0.235365262982E-01
  0.396770400815E-02
  0.409619402684E-01
  0.815395227884E-01
 -0.398722503978E+00
 -0.279661978006E+00
 -0.245224160267E+00
 -0.234423347422E+00
 -0.228027585804E+00
 -0.224506142371E+00
 -0.223546346287E+00
 -0.224420237690E+00
 -0.226031410831E+00
 -0.227127195121E+00
 -0.226458574488E+00
 -0.222991984776E+00
 -0.216050230577E+00
 -0.205406468875E+00
 -0.191309169758E+00
 -0.174410914241E+00
 -0.155643105354E+00
 -0.136046462234E+00
 -0.116561186791E+00
 -0.978604265842E-01
 -0.801270352580E-01
 -0.628350233159E-01
 -0.446333252529E-01
 -0.232697154021E-01
  0.423054861341E-02
  0.412165019720E-01
  0.817821938261E-01
 -0.399322617989E+00
 -0.280144784162E+00
 -0.245640472831E+00
 -0.234785932160E+00
 -0.228338622077E+00
 -0.224767146546E+00
 -0.223758483337E+00
 -0.224584519805E+00
 -0.226148898975E+00
 -0.227198789248E+00
 -0.226485409848E+00
 -0.222975671915E+00
 -0.215992944985E+00
 -0.205311151446E+00
 -0.191179112891E+00
 -0.174249838941E+00
 -0.155455373283E+00
 -0.135836162058E+00
 -0.116332521140E+00
 -0.976170481797E-01
 -0.798726414764E-01
 -0.625733711610E-01
 -0.443679056627E-01
 -0.230041082385E-01
  0.449238455822E-02
  0.414702997776E-01
  0.820255029283E-01
 -0.399863685039E+00
 -0.280578890021E+00
 -0.246013040507E+00
 -0.235108726417E+00
 -0.228613611345E+00
 -0.224995422765E+00
 -0.223941180811E+00
 -0.224722486820E+00
 -0.226242814278E+00
 -0.227249372675E+00
 -0.226493761365E+00
 -0.222943241227E+00
 -0.215921697510E+00
 -0.205203721421E+00
 -0.191038689774E+00
 -0.174080101837E+00
 -0.155260160823E+00
 -0.135619436006E+00
 -0.116098111387E+00
 -0.973687745716E-01
 -0.796137495032E-01
 -0.623076825403E-01
 -0.440986559214E-01
 -0.227348645790E-01
  0.475730522747E-02
  0.417266977978E-01
  0.822694873316E-01
 -0.400351561100E+00
 -0.280969371264E+00
 -0.246347239545E+00
 -0.235396075638E+00
 -0.228856088789E+00
 -0.225194054759E+00
 -0.224096530288E+00
 -0.224835161170E+00
 -0.226313478369E+00
 -0.227278514355E+00
 -0.226482271626E+00
 -0.222892459154E+00
 -0.215833556425E+00
 -0.205080642714E+00
 -0.190883763303E+00
 -0.173896951448E+00
 -0.155052479257E+00
 -0.135390957164E+00
 -0.115852664752E+00
 -0.971100187265E-01
 -0.793451027637E-01
 -0.620325698181E-01
 -0.438205578716E-01
 -0.224576981215E-01
  0.502943957952E-02
  0.419897273577E-01
  0.825194148126E-01
 -0.400792635265E+00
 -0.281321946479E+00
 -0.246647092533E+00
 -0.235651940952E+00
 -0.229069139697E+00
 -0.225364888602E+00
 -0.224225958039E+00
 -0.224923281461E+00
 -0.226360503393E+00
 -0.227285066398E+00
 -0.226448970015E+00
 -0.222820579790E+00
 -0.215724906696E+00
 -0.204937768064E+00
 -0.190709729288E+00
 -0.173695145529E+00
 -0.154826794444E+00
 -0.135145117536E+00
 -0.115590317345E+00
 -0.968349073322E-01
 -0.790609389676E-01
 -0.617426306785E-01
 -0.435285254643E-01
 -0.221674613048E-01
  0.531351109959E-02
  0.422635765828E-01
  0.827830233933E-01
 -0.401193067653E+00
 -0.281641029529E+00
 -0.246916585035E+00
 -0.235879242992E+00
 -0.229255103189E+00
 -0.225509848198E+00
 -0.224330088061E+00
 -0.224986668847E+00
 -0.226383031580E+00
 -0.227267117821E+00
 -0.226391152471E+00
 -0.222724046890E+00
 -0.215591553910E+00
 -0.204770105758E+00
 -0.190511029069E+00
 -0.173468870731E+00
 -0.154576750751E+00
 -0.134875391873E+00
 -0.115304596590E+00
 -0.965371219424E-01
 -0.787549560148E-01
 -0.614317737884E-01
 -0.432167533074E-01
 -0.218590890007E-01
  0.561443313016E-02
  0.425523251811E-01
  0.830577693398E-01
 -0.401556838970E+00
 -0.281930652249E+00
 -0.247158906980E+00
 -0.236080535806E+00
 -0.229415851500E+00
 -0.225629834245E+00
 -0.224409103811E+00
 -0.225024474654E+00
 -0.226379417028E+00
 -0.227222039386E+00
 -0.226305252584E+00
 -0.222598433906E+00
 -0.215428238877E+00
 -0.204571919072E+00
 -0.190281205040E+00
 -0.173211196490E+00
 -0.154295399163E+00
 -0.134574506427E+00
 -0.114988397937E+00
 -0.962096008629E-01
 -0.784201168776E-01
 -0.610935144824E-01
 -0.428792090334E-01
 -0.215268725444E-01
  0.593678168401E-02
  0.428597615518E-01
  0.833493961824E-01
 -0.401888326769E+00
 -0.282194269429E+00
 -0.247377146418E+00
 -0.236258001863E+00
 -0.229552610701E+00
 -0.225725263555E+00
 -0.224462399759E+00
 -0.225035214113E+00
 -0.226347000835E+00
 -0.227146210277E+00
 -0.226186627707E+00
 -0.222438200142E+00
 -0.215228581188E+00
 -0.204335884418E+00
 -0.190012622495E+00
 -0.172914174972E+00
 -0.153974192930E+00
 -0.134234004468E+00
 -0.114633396766E+00
 -0.958441055900E-01
 -0.780485034530E-01
 -0.607205456417E-01
 -0.425090948928E-01
 -0.211647590794E-01
  0.628566305281E-02
  0.431901585221E-01
  0.836575772492E-01
 -0.402191697213E+00
 -0.282435245135E+00
 -0.247573693909E+00
 -0.236413409101E+00
 -0.229666116988E+00
 -0.225795842850E+00
 -0.224488844404E+00
 -0.225016342233E+00
 -0.226282106361E+00
 -0.227034744437E+00
 -0.226029203787E+00
 -0.222236320057E+00
 -0.214984612847E+00
 -0.204053271885E+00
 -0.189695690314E+00
 -0.172567731886E+00
 -0.153603210086E+00
 -0.133844132646E+00
 -0.114229365708E+00
 -0.954309338216E-01
 -0.776313659291E-01
 -0.603041922221E-01
 -0.420988055335E-01
 -0.207658672670E-01
  0.666721056974E-02
  0.435483094713E-01
  0.839868022980E-01
 -0.402470202950E+00
 -0.282656486423E+00
 -0.247750919299E+00
 -0.236547884542E+00
 -0.229756765045E+00
 -0.225840677532E+00
 -0.224486118277E+00
 -0.224964331808E+00
 -0.226179610830E+00
 -0.226881299538E+00
 -0.225825267029E+00
 -0.221983653294E+00
 -0.214686087529E+00
 -0.203713085579E+00
 -0.189318781963E+00
 -0.172159968124E+00
 -0.153170607059E+00
 -0.133392392457E+00
 -0.113764819105E+00
 -0.949591162632E-01
 -0.771579730088E-01
 -0.598349501447E-01
 -0.416395235222E-01
 -0.203225883466E-01
  0.708842840499E-02
  0.439406815243E-01
  0.843471762360E-01
 -0.402728050293E+00
 -0.282860991462E+00
 -0.247910867662E+00
 -0.236662770993E+00
 -0.229824096208E+00
 -0.225858102751E+00
 -0.224450923026E+00
 -0.224874160524E+00
 -0.226032718845E+00
 -0.226677197228E+00
 -0.225564599943E+00
 -0.221668458986E+00
 -0.214320110434E+00
 -0.203301337625E+00
 -0.188867437961E+00
 -0.171675915142E+00
 -0.152661204968E+00
 -0.132864494917E+00
 -0.113225428181E+00
 -0.944154256482E-01
 -0.766159370515E-01
 -0.593015512107E-01
 -0.411212194730E-01
 -0.198259653037E-01
  0.755634491230E-02
  0.443736324327E-01
  0.847433256550E-01
 -0.402969603404E+00
 -0.283052971666E+00
 -0.248055998276E+00
 -0.236758690547E+00
 -0.229867379504E+00
 -0.225845309792E+00
 -0.224378243233E+00
 -0.224738734919E+00
 -0.225832366869E+00
 -0.226411076292E+00
 -0.225233648199E+00
 -0.221275486067E+00
 -0.213869872869E+00
 -0.202800299548E+00
 -0.188323208156E+00
 -0.171096964897E+00
 -0.152056262172E+00
 -0.132242503535E+00
 -0.112594445936E+00
 -0.937835092426E-01
 -0.759909020971E-01
 -0.586907583592E-01
 -0.405323649613E-01
 -0.192665270179E-01
  0.807870122894E-02
  0.448523869266E-01
  0.851757719365E-01
 -0.403197284114E+00
 -0.283235116175E+00
 -0.248188468444E+00