# vtk DataFile Version 3.0
TriPan results file. Generated by TriPan, USU AeroLab (c) 2021.
ASCII
DATASET POLYDATA
POINTS                  80 float
  0.193396415710E+02  0.339639574289E+00  0.000000000000E+00
  0.982679464334E+04  0.339639574289E+00  0.185313786074E+04
  0.190000000000E+02  0.000000000000E+00  0.000000000000E+00
  0.982678293519E+04  0.000000000000E+00  0.185319982440E+04
  0.197353687286E+02  0.735364913940E+00  0.000000000000E+00
  0.982680828488E+04  0.735364913940E+00  0.185306566492E+04
  0.201952877045E+02  0.119528055191E+01  0.000000000000E+00
  0.982682413925E+04  0.119528055191E+01  0.185298175804E+04
  0.207282505035E+02  0.172824025154E+01  0.000000000000E+00
  0.982684251160E+04  0.172824025154E+01  0.185288452516E+04
  0.213437728882E+02  0.234375929832E+01  0.000000000000E+00
  0.982686372994E+04  0.234375929832E+01  0.185277223025E+04
  0.220518741608E+02  0.305185556412E+01  0.000000000000E+00
  0.982688813967E+04  0.305185556412E+01  0.185264304539E+04
  0.228628253937E+02  0.386280250549E+01  0.000000000000E+00
  0.982691609486E+04  0.386280250549E+01  0.185249509675E+04
  0.237868041992E+02  0.478677463531E+01  0.000000000000E+00
  0.982694794634E+04  0.478677463531E+01  0.185232652754E+04
  0.248334121704E+02  0.583337688446E+01  0.000000000000E+00
  0.982698402511E+04  0.583337688446E+01  0.185213558607E+04
  0.260110912323E+02  0.701104879379E+01  0.000000000000E+00
  0.982702462217E+04  0.701104879379E+01  0.185192073219E+04
  0.273264064789E+02  0.832635498047E+01  0.000000000000E+00
  0.982706996384E+04  0.832635498047E+01  0.185168076819E+04
  0.287832584381E+02  0.978319931030E+01  0.000000000000E+00
  0.982712018457E+04  0.978319931030E+01  0.185141498246E+04
  0.303820724487E+02  0.113820018768E+02  0.000000000000E+00
  0.982717529903E+04  0.113820018768E+02  0.185112329741E+04
  0.321190223694E+02  0.131189413071E+02  0.000000000000E+00
  0.982723517533E+04  0.131189413071E+02  0.185080641106E+04
  0.339854316711E+02  0.149853391647E+02  0.000000000000E+00
  0.982729951437E+04  0.149853391647E+02  0.185046590634E+04
  0.359674301147E+02  0.169673271179E+02  0.000000000000E+00
  0.982736783800E+04  0.169673271179E+02  0.185010431374E+04
  0.380459861755E+02  0.190458717346E+02  0.000000000000E+00
  0.982743949017E+04  0.190458717346E+02  0.184972510531E+04
  0.401973724365E+02  0.211972446442E+02  0.000000000000E+00
  0.982751365296E+04  0.211972446442E+02  0.184933260986E+04
  0.423940925598E+02  0.233939495087E+02  0.000000000000E+00
  0.982758937850E+04  0.233939495087E+02  0.184893184377E+04
  0.446062088013E+02  0.256060504913E+02  0.000000000000E+00
  0.982766563477E+04  0.256060504913E+02  0.184852826884E+04
  0.468029289246E+02  0.278027553558E+02  0.000000000000E+00
  0.982774136031E+04  0.278027553558E+02  0.184812750275E+04
  0.489543113708E+02  0.299541282654E+02  0.000000000000E+00
  0.982781552296E+04  0.299541282654E+02  0.184773500800E+04
  0.510328712463E+02  0.320326728821E+02  0.000000000000E+00
  0.982788717527E+04  0.320326728821E+02  0.184735579888E+04
  0.530148696899E+02  0.340146598816E+02  0.000000000000E+00
  0.982795549891E+04  0.340146598816E+02  0.184699420627E+04
  0.548812789917E+02  0.358810577393E+02  0.000000000000E+00
  0.982801983794E+04  0.358810577393E+02  0.184665370156E+04
  0.566182289124E+02  0.376179962158E+02  0.000000000000E+00
  0.982807971424E+04  0.376179962158E+02  0.184633681521E+04
  0.582170410156E+02  0.392168006897E+02  0.000000000000E+00
  0.982813482863E+04  0.392168006897E+02  0.184604513050E+04
  0.596738929749E+02  0.406736450195E+02  0.000000000000E+00
  0.982818504937E+04  0.406736450195E+02  0.184577934477E+04
  0.609892082214E+02  0.419889526367E+02  0.000000000000E+00
  0.982823039104E+04  0.419889526367E+02  0.184553938077E+04
  0.621668891907E+02  0.431666221619E+02  0.000000000000E+00
  0.982827098816E+04  0.431666221619E+02  0.184532452655E+04
  0.632134971619E+02  0.442132263184E+02  0.000000000000E+00
  0.982830706693E+04  0.442132263184E+02  0.184513358507E+04
  0.641374740601E+02  0.451371994019E+02  0.000000000000E+00
  0.982833891835E+04  0.451371994019E+02  0.184496501621E+04
  0.649484252930E+02  0.459481430054E+02  0.000000000000E+00
  0.982836687353E+04  0.459481430054E+02  0.184481706757E+04
  0.656565246582E+02  0.466562423706E+02  0.000000000000E+00
  0.982839128320E+04  0.466562423706E+02  0.184468788306E+04
  0.662720489502E+02  0.472717590332E+02  0.000000000000E+00
  0.982841250161E+04  0.472717590332E+02  0.184457558780E+04
  0.668050155640E+02  0.478047180176E+02  0.000000000000E+00
  0.982843087408E+04  0.478047180176E+02  0.184447835423E+04
  0.672649307251E+02  0.482646369934E+02  0.000000000000E+00
  0.982844672832E+04  0.482646369934E+02  0.184439444804E+04
  0.676606597900E+02  0.486603622437E+02  0.000000000000E+00
  0.982846036993E+04  0.486603622437E+02  0.184432225187E+04
  0.680002975464E+02  0.490000000000E+02  0.000000000000E+00
  0.982847207795E+04  0.490000000000E+02  0.184426028890E+04
POLYGONS                  78                 312
3                   0                   1                   3
3                   0                   3                   2
3                   4                   5                   1
3                   4                   1                   0
3                   6                   7                   5
3                   6                   5                   4
3                   8                   9                   7
3                   8                   7                   6
3                  10                  11                   9
3                  10                   9                   8
3                  12                  13                  11
3                  12                  11                  10
3                  14                  15                  13
3                  14                  13                  12
3                  16                  17                  15
3                  16                  15                  14
3                  18                  19                  17
3                  18                  17                  16
3                  20                  21                  19
3                  20                  19                  18
3                  22                  23                  21
3                  22                  21                  20
3                  24                  25                  23
3                  24                  23                  22
3                  26                  27                  25
3                  26                  25                  24
3                  28                  29                  27
3                  28                  27                  26
3                  30                  31                  29
3                  30                  29                  28
3                  32                  33                  31
3                  32                  31                  30
3                  34                  35                  33
3                  34                  33                  32
3                  36                  37                  35
3                  36                  35                  34
3                  38                  39                  37
3                  38                  37                  36
3                  40                  41                  39
3                  40                  39                  38
3                  42                  43                  41
3                  42                  41                  40
3                  44                  45                  43
3                  44                  43                  42
3                  46                  47                  45
3                  46                  45                  44
3                  48                  49                  47
3                  48                  47                  46
3                  50                  51                  49
3                  50                  49                  48
3                  52                  53                  51
3                  52                  51                  50
3                  54                  55                  53
3                  54                  53                  52
3                  56                  57                  55
3                  56                  55                  54
3                  58                  59                  57
3                  58                  57                  56
3                  60                  61                  59
3                  60                  59                  58
3                  62                  63                  61
3                  62                  61                  60
3                  64                  65                  63
3                  64                  63                  62
3                  66                  67                  65
3                  66                  65                  64
3                  68                  69                  67
3                  68                  67                  66
3                  70                  71                  69
3                  70                  69                  68
3                  72                  73                  71
3                  72                  71                  70
3                  74                  75                  73
3                  74                  73                  72
3                  76                  77                  75
3                  76                  75                  74
3                  78                  79                  77
3                  78                  77                  76
CELL_DATA                  78
NORMALS normals float
  0.182546851175E+00 -0.182547924351E+00 -0.966101911002E+00
  0.182546851175E+00 -0.182547924351E+00 -0.966101911002E+00
  0.182546858991E+00 -0.182547697607E+00 -0.966101952369E+00
  0.182546858991E+00 -0.182547697606E+00 -0.966101952369E+00
  0.182546842788E+00 -0.182548167658E+00 -0.966101866613E+00
  0.182546842788E+00 -0.182548167658E+00 -0.966101866613E+00
  0.182546851561E+00 -0.182547913143E+00 -0.966101913047E+00
  0.182546851561E+00 -0.182547913143E+00 -0.966101913047E+00
  0.182546853949E+00 -0.182547843888E+00 -0.966101925681E+00
  0.182546853949E+00 -0.182547843888E+00 -0.966101925681E+00
  0.182546843925E+00 -0.182548134675E+00 -0.966101872630E+00
  0.182546843925E+00 -0.182548134675E+00 -0.966101872630E+00
  0.182546854745E+00 -0.182547820783E+00 -0.966101929897E+00
  0.182546854745E+00 -0.182547820783E+00 -0.966101929897E+00
  0.182546842987E+00 -0.182548161884E+00 -0.966101867666E+00
  0.182546842987E+00 -0.182548161884E+00 -0.966101867666E+00
  0.182546853679E+00 -0.182547851710E+00 -0.966101924254E+00
  0.182546853679E+00 -0.182547851710E+00 -0.966101924254E+00
  0.182546849991E+00 -0.182547958687E+00 -0.966101904738E+00
  0.182546849991E+00 -0.182547958687E+00 -0.966101904738E+00
  0.182546845036E+00 -0.182548102431E+00 -0.966101878513E+00
  0.182546845036E+00 -0.182548102431E+00 -0.966101878513E+00
  0.182546855080E+00 -0.182547811063E+00 -0.966101931670E+00
  0.182546855080E+00 -0.182547811063E+00 -0.966101931670E+00
  0.182546843395E+00 -0.182548150050E+00 -0.966101869825E+00
  0.182546843395E+00 -0.182548150050E+00 -0.966101869825E+00
  0.182546850197E+00 -0.182547952705E+00 -0.966101905829E+00
  0.182546850197E+00 -0.182547952705E+00 -0.966101905829E+00
  0.182546849637E+00 -0.182547968951E+00 -0.966101902865E+00
  0.182546849637E+00 -0.182547968951E+00 -0.966101902865E+00
  0.182546854740E+00 -0.182547820936E+00 -0.966101929869E+00
  0.182546854740E+00 -0.182547820936E+00 -0.966101929869E+00
  0.182546853444E+00 -0.182547858515E+00 -0.966101923013E+00
  0.182546853444E+00 -0.182547858515E+00 -0.966101923013E+00
  0.182546849185E+00 -0.182547982069E+00 -0.966101900472E+00
  0.182546849185E+00 -0.182547982069E+00 -0.966101900472E+00
  0.182546844682E+00 -0.182548112693E+00 -0.966101876641E+00
  0.182546844682E+00 -0.182548112693E+00 -0.966101876641E+00
  0.182546844976E+00 -0.182548104170E+00 -0.966101878196E+00
  0.182546844976E+00 -0.182548104170E+00 -0.966101878196E+00
  0.182546844682E+00 -0.182548112693E+00 -0.966101876641E+00
  0.182546844682E+00 -0.182548112693E+00 -0.966101876641E+00
  0.182546859972E+00 -0.182547669165E+00 -0.966101957558E+00
  0.182546859972E+00 -0.182547669165E+00 -0.966101957558E+00
  0.182546842280E+00 -0.182548182375E+00 -0.966101863928E+00
  0.182546842280E+00 -0.182548182374E+00 -0.966101863928E+00
  0.182546851813E+00 -0.182547905848E+00 -0.966101914377E+00
  0.182546851813E+00 -0.182547905848E+00 -0.966101914377E+00
  0.182546849637E+00 -0.182547968951E+00 -0.966101902865E+00
  0.182546849637E+00 -0.182547968951E+00 -0.966101902865E+00
  0.182546846857E+00 -0.182548049607E+00 -0.966101888150E+00
  0.182546846857E+00 -0.182548049607E+00 -0.966101888150E+00
  0.182546857909E+00 -0.182547729000E+00 -0.966101946641E+00
  0.182546857909E+00 -0.182547729000E+00 -0.966101946641E+00
  0.182546855080E+00 -0.182547811078E+00 -0.966101931667E+00
  0.182546855080E+00 -0.182547811079E+00 -0.966101931667E+00
  0.182546851653E+00 -0.182547910496E+00 -0.966101913529E+00
  0.182546851653E+00 -0.182547910496E+00 -0.966101913530E+00
  0.182546827824E+00 -0.182548601737E+00 -0.966101787420E+00
  0.182546827824E+00 -0.182548601738E+00 -0.966101787419E+00
  0.182546864765E+00 -0.182547530119E+00 -0.966101982925E+00
  0.182546864765E+00 -0.182547530118E+00 -0.966101982925E+00
  0.182546861822E+00 -0.182547615483E+00 -0.966101967352E+00
  0.182546861822E+00 -0.182547615482E+00 -0.966101967352E+00
  0.182546829707E+00 -0.182548547117E+00 -0.966101797385E+00
  0.182546829707E+00 -0.182548547117E+00 -0.966101797385E+00
  0.182546886937E+00 -0.182546886937E+00 -0.966102100266E+00
  0.182546886937E+00 -0.182546886937E+00 -0.966102100266E+00
  0.182546811536E+00 -0.182549074225E+00 -0.966101701219E+00
  0.182546811536E+00 -0.182549074225E+00 -0.966101701219E+00
  0.182546799856E+00 -0.182549413045E+00 -0.966101639404E+00
  0.182546799856E+00 -0.182549413045E+00 -0.966101639404E+00
  0.182546937391E+00 -0.182545423294E+00 -0.966102367290E+00
  0.182546937391E+00 -0.182545423295E+00 -0.966102367290E+00
  0.182546828299E+00 -0.182548587962E+00 -0.966101789933E+00
  0.182546828299E+00 -0.182548587962E+00 -0.966101789933E+00
  0.182546886935E+00 -0.182546886988E+00 -0.966102100257E+00
  0.182546886935E+00 -0.182546886988E+00 -0.966102100257E+00
POINT_DATA                  80
SCALARS mu float 1
LOOKUP_TABLE default
 -0.590514256138E+01
 -0.590514256138E+01
 -0.589085871205E+01
 -0.589085871205E+01
 -0.593066799108E+01
 -0.593066799108E+01
 -0.596065882362E+01
 -0.596065882362E+01
 -0.599814486618E+01
 -0.599814486618E+01
 -0.604271227865E+01
 -0.604271227865E+01
 -0.609298551057E+01
 -0.609298551057E+01
 -0.615087843179E+01
 -0.615087843179E+01
 -0.621140759439E+01
 -0.621140759439E+01
 -0.627985885520E+01
 -0.627985885520E+01
 -0.635115460461E+01
 -0.635115460461E+01
 -0.642434183311E+01
 -0.642434183311E+01
 -0.649742691180E+01
 -0.649742691180E+01
 -0.657012874184E+01
 -0.657012874184E+01
 -0.663970392912E+01
 -0.663970392912E+01
 -0.670509360692E+01
 -0.670509360692E+01
 -0.676318473030E+01
 -0.676318473030E+01
 -0.681117462395E+01
 -0.681117462395E+01
 -0.684872000698E+01
 -0.684872000698E+01
 -0.687271111282E+01
 -0.687271111282E+01
 -0.688090390569E+01
 -0.688090390569E+01
 -0.686884189427E+01
 -0.686884189427E+01
 -0.683393368791E+01
 -0.683393368791E+01
 -0.677357368505E+01
 -0.677357368505E+01
 -0.668343213473E+01
 -0.668343213473E+01
 -0.655842120770E+01
 -0.655842120770E+01
 -0.639983429252E+01
 -0.639983429252E+01
 -0.620315451608E+01
 -0.620315451608E+01
 -0.596724338278E+01
 -0.596724338278E+01
 -0.569637725047E+01
 -0.569637725047E+01
 -0.538903353731E+01
 -0.538903353731E+01
 -0.504925871117E+01
 -0.504925871117E+01
 -0.467767272495E+01
 -0.467767272495E+01
 -0.427350065635E+01
 -0.427350065635E+01
 -0.383714079223E+01
 -0.383714079223E+01
 -0.335631637584E+01
 -0.335631637584E+01
 -0.281833330309E+01
 -0.281833330309E+01
 -0.217561070786E+01
 -0.217561070786E+01
 -0.132470007760E+01
 -0.132470007760E+01
  0.000000000000E+00
  0.000000000000E+00
