# vtk DataFile Version 3.0
TriPan results file. Generated by TriPan, USU AeroLab (c) 2021.
ASCII
DATASET POLYDATA
POINTS                  40 float
     19.758197784400      0.757896304131      0.000000000000
     99.317447587915      0.757896304131     12.032205274766
     19.000301361100      0.000000000000      0.000000000000
     99.300500403219      0.000000000000     12.144263311501
     20.789274215700      1.788973569870      0.000000000000
     99.340503301308      1.788973569870     11.879756474293
     22.173099517800      3.172797679900      0.000000000000
     99.371446768331      3.172797679900     11.675152333450
     23.996917724600      4.996616363530      0.000000000000
     99.412228837030      4.996616363530     11.405493470667
     26.343925476100      7.343624591830      0.000000000000
     99.464709852410      7.343624591830     11.058478927849
     29.273138046300     10.272837638900      0.000000000000
     99.530209444325     10.272837638900     10.625383059200
     32.792423248300     13.792121887200      0.000000000000
     99.608903543521     13.792121887200     10.105042576884
     36.832305908200     17.832006454500      0.000000000000
     99.699238628213     17.832006454500      9.507729665001
     41.234233856200     22.233930587800      0.000000000000
     99.797669342040     22.233930587800      8.856886900032
     45.766368866000     26.766069412200      0.000000000000
     99.899011592401     26.766069412200      8.186792496890
     50.168296814000     31.167993545500      0.000000000000
     99.997442306228     31.167993545500      7.535949731922
     54.208179473900     35.207878112800      0.000000000000
    100.087777390920     35.207878112800      6.938636820039
     57.727462768600     38.727161407500      0.000000000000
    100.166471447467     38.727161407500      6.418296619724
     60.656677246100     41.656375885000      0.000000000000
    100.231971082032     41.656375885000      5.985200469073
     63.003684997600     44.003383636500      0.000000000000
    100.284452097411     44.003383636500      5.638185926256
     64.827507019000     45.827201843300      0.000000000000
    100.325234251408     45.827201843300      5.368526499468
     66.211326599100     47.211025238000      0.000000000000
    100.356177590483     47.211025238000      5.163923204646
     67.242401123000     48.242103576700      0.000000000000
    100.379233261224     48.242103576700      5.011474686190
     68.000297546400     49.000000000000      0.000000000000
    100.396180445922     49.000000000000      4.899416649440
POLYGONS                  38                 152
3                   0                   1                   3
3                   0                   3                   2
3                   4                   5                   1
3                   4                   1                   0
3                   6                   7                   5
3                   6                   5                   4
3                   8                   9                   7
3                   8                   7                   6
3                  10                  11                   9
3                  10                   9                   8
3                  12                  13                  11
3                  12                  11                  10
3                  14                  15                  13
3                  14                  13                  12
3                  16                  17                  15
3                  16                  15                  14
3                  18                  19                  17
3                  18                  17                  16
3                  20                  21                  19
3                  20                  19                  18
3                  22                  23                  21
3                  22                  21                  20
3                  24                  25                  23
3                  24                  23                  22
3                  26                  27                  25
3                  26                  25                  24
3                  28                  29                  27
3                  28                  27                  26
3                  30                  31                  29
3                  30                  29                  28
3                  32                  33                  31
3                  32                  31                  30
3                  34                  35                  33
3                  34                  33                  32
3                  36                  37                  35
3                  36                  35                  34
3                  38                  39                  37
3                  38                  37                  36
POINT_DATA                  40
SCALARS mu float 1
LOOKUP_TABLE default
     -4.489572260575
     -4.489572260575
     -4.406632592174
     -4.406632592174
     -4.537686512586
     -4.537686512586
     -4.671542400213
     -4.671542400213
     -4.773114947530
     -4.773114947530
     -4.873387166706
     -4.873387166706
     -4.968311039835
     -4.968311039835
     -5.073581408759
     -5.073581408759
     -5.157751895515
     -5.157751895515
     -5.194138181889
     -5.194138181889
     -5.187078445519
     -5.187078445519
     -5.091296223935
     -5.091296223935
     -4.895628253982
     -4.895628253982
     -4.595863692021
     -4.595863692021
     -4.173852006045
     -4.173852006045
     -3.637593805933
     -3.637593805933
     -2.992379009577
     -2.992379009577
     -2.231016887887
     -2.231016887887
     -1.296199296995
     -1.296199296995
      0.000000000000
      0.000000000000
