# vtk DataFile Version 3.0
TriPan results file. Generated by TriPan, USU AeroLab (c) 2021.
ASCII
DATASET POLYDATA
POINTS                 532 float
      0.000010730060      0.000000000000      0.000000000000
      0.193052340604      0.000000000000     -0.275442291303
      0.193052340604      0.000000000000      0.275442291303
      0.750997434593      0.000000000000     -0.543777307962
      0.750997434593      0.000000000000      0.543777307962
      0.757904666675      0.757887941587      0.000000000000
      0.950948772764      0.757889809275     -0.275443655977
      0.950948772764      0.757889809275      0.275443655977
      1.508894184319      0.757891556532     -0.543777680183
      1.508894184319      0.757891556532      0.543777680183
      1.788984355435      1.788962784304      0.000000000000
      1.813534072423      0.000000000000     -0.806802519519
      1.813534072423      0.000000000000      0.806802519519
      1.982027747603      1.788965365917     -0.275441549707
      1.982027747603      1.788965365917      0.275441549707
      2.539972340984      1.788967812136     -0.543774846994
      2.539972340984      1.788967812136      0.543774846994
      2.571430809164      0.757892840247     -0.806802781184
      2.571430809164      0.757892840247      0.806802781184
      3.172811518898      3.172783840902     -0.000000000000
      3.365854151830      3.172787300960     -0.275438869278
      3.365854151830      3.172787300960      0.275438869278
      3.592466139769      0.000000000000     -1.038820352069
      3.592466139769      0.000000000000      1.038820352069
      3.602508522084      1.788969539596     -0.806799765038
      3.602508522084      1.788969539596      0.806799765038
      3.923797978680      3.172790632919     -0.543771230965
      3.923797978680      3.172790632919      0.543771230965
      4.350362917994      0.757894256497     -1.038820600324
      4.350362917994      0.757894256497      1.038820600324
      4.986333357561      3.172792924179     -0.806795901887
      4.986333357561      3.172792924179      0.806795901887
      4.996633877142      4.996598849918      0.000000000000
      5.189675485682      4.996603334358     -0.275435603163
      5.189675485682      4.996603334358      0.275435603163
      5.381440082154      1.788971266186     -1.038817556345
      5.381440082154      1.788971266186      1.038817556345
      5.747618236840      4.996607742020     -0.543766814780
      5.747618236840      4.996607742020      0.543766814780
      6.198484782022      0.000000000000     -1.139163113077
      6.198484782022      0.000000000000      1.139163113077
      6.765264759292      3.172795047528     -1.038813648835
      6.765264759292      3.172795047528      1.038813648835
      6.810152930043      4.996610718946     -0.806791168514
      6.810152930043      4.996610718946      0.806791168514
      6.956381634853      0.757896467068     -1.139162867477
      6.956381634853      0.757896467068      1.139162867477
      7.343646259961      7.343602923698      0.000000000000
      7.536686760666      7.343608515973     -0.275431848466
      7.536686760666      7.343608515973      0.275431848466
      7.987458526306      1.788973749464     -1.139159842030
      7.987458526306      1.788973749464      1.139159842030
      8.094628278105      7.343614157355     -0.543761729843
      8.094628278105      7.343614157355      0.543761729843
      8.589083846752      4.996613327327     -1.038808848010
      8.589083846752      4.996613327327      1.038808848010
      9.157162661312      7.343617921118     -0.806785704165
      9.157162661312      7.343617921118      0.806785704165
      9.371283330200      3.172797880891     -1.139155955820
      9.371283330200      3.172797880891      1.139155955820
      9.395235309056      0.000000000000     -0.980737909206
      9.395235309056      0.000000000000      0.980737909206
     10.153131387024      0.757898309407     -0.980733032608
     10.153131387024      0.757898309407      0.980733032608
     10.272863615142     10.272811662661      0.000000000000
     10.465903518770     10.272818328831     -0.275427862644
     10.465903518770     10.272818328831      0.275427862644
     10.936093019329      7.343621088200     -1.038803291134
     10.936093019329      7.343621088200      1.038803291134
     11.023843728569     10.272825277831     -0.543756326205
     11.023843728569     10.272825277831      0.543756326205
     11.184207681858      1.788975711611     -0.980731105567
     11.184207681858      1.788975711611      0.980731105567
     11.195101510688      4.996616590842     -1.139151174894
     11.195101510688      4.996616590842      1.139151174894
     12.086376324018     10.272829875682     -0.806779886356
     12.086376324018     10.272829875682      0.806779886356
     12.568031844562      3.172800007438     -0.980728481938
     12.568031844562      3.172800007438      0.980728481938
     12.582367492180      0.000000000000     -0.686883727897
     12.582367492180      0.000000000000      0.686883727897
     13.340263929601      0.757898602230     -0.686884436067
     13.340263929601      0.757898602230      0.686884436067
     13.542110185271      7.343624849659     -1.139145632127
     13.542110185271      7.343624849659      1.139145632127
     13.792151805529     13.792091968873     -0.000000000000
     13.865306088285     10.272833636516     -1.038797361824
     13.865306088285     10.272833636516      1.038797361824
     13.985189879504     13.792099511100     -0.275424084126
     13.985189879504     13.792099511100      0.275424084126
     14.371341196311      1.788975986259     -0.686883244298
     14.371341196311      1.788975986259      0.686883244298
     14.391850756627      4.996618939403     -0.980724975187
     14.391850756627      4.996618939403      0.980724975187
     14.543128850900     13.792107698504     -0.543751200125
     14.543128850900     13.792107698504      0.543751200125
     15.176527826907      0.000000000000     -0.411050235820
     15.176527826907      0.000000000000      0.411050235820
     15.605661610037     13.792113086264     -0.806774360281
     15.605661610037     13.792113086264      0.806774360281
     15.755165348051      3.172800292949     -0.686881262950
     15.755165348051      3.172800292949      0.686881262950
     15.934424342397      0.757898269434     -0.411051145801
     15.934424342397      0.757898269434      0.411051145801
     16.471322722859     10.272837929342     -1.139139708667
     16.471322722859     10.272837929342      1.139139708667
     16.738858190891      7.343627484939     -0.980720495475
     16.738858190891      7.343627484939      0.980720495475
     16.960581237392      0.000000000000     -0.218330691638
     16.960581237392      0.000000000000      0.218330691638
     16.965501561672      1.788975700797     -0.411049600485
     16.965501561672      1.788975700797      0.411049600485
     17.384590811105     13.792117410295     -1.038791720630
     17.384590811105     13.792117410295      1.038791720630
     17.578984199280      4.996619285851     -0.686878147034
     17.578984199280      4.996619285851      0.686878147034
     17.718477684025      0.757897776606     -0.218330892858
     17.718477684025      0.757897776606      0.218330892858
     17.832039316797     17.831973592198     -0.000000000000
     18.025075930401     17.831981640996     -0.275421080370
     18.025075930401     17.831981640996      0.275421080370
     18.049324863052      0.000000000000     -0.101506719246
     18.049324863052      0.000000000000      0.101506719246
     18.349324679981      3.172800087319     -0.411047020753
     18.349324679981      3.172800087319      0.411047020753
     18.583013918023     17.831990812275     -0.543747123335
     18.583013918023     17.831990812275      0.543747123335
     18.665867854728      0.000000000000     -0.035637992251
     18.665867854728      0.000000000000      0.035637992251
     18.749553871119      1.788975286551     -0.218328624660
     18.749553871119      1.788975286551      0.218328624660
     18.807221190513      0.757897479919     -0.101505816827
     18.807221190513      0.757897479919      0.101505816827
     19.000292777644     -0.000000067956     -0.000000637557
     19.423764124615      0.757897362016     -0.035636551322
     19.423764124615      0.757897362016      0.035636551322
     19.645546049638     17.831996827562     -0.806769961643
     19.645546049638     17.831996827562      0.806769961643
     19.668070389964     10.272840903136     -0.980715254779
     19.668070389964     10.272840903136      0.980715254779
     19.758190486977      0.757903601551     -0.000000769074
     19.838299217679      1.788975057192     -0.101502907251
     19.838299217679      1.788975057192      0.101502907251
     19.925991520818      7.343627944012     -0.686873816168
     19.925991520818      7.343627944012      0.686873816168
     19.990605986492     13.792122208708     -1.139134065882
     19.990605986492     13.792122208708      1.139134065882
     20.133378805849      3.172799763951     -0.218325212533
     20.133378805849      3.172799763951      0.218325212533
     20.173144382166      4.996619182864     -0.411043177483
     20.173144382166      4.996619182864      0.411043177483
     20.454840220937      1.788974962733     -0.035633412273
     20.454840220937      1.788974962733      0.035633412273
     20.789264521492      1.788983264080     -0.000001021671
     21.222122196717      3.172799582883     -0.101499025164
     21.222122196717      3.172799582883      0.101499025164
     21.424475756535     17.832001599465     -1.038787225311
     21.424475756535     17.832001599465      1.038787225311
     21.838665093998      3.172799501802     -0.035629391771
     21.838665093998      3.172799501802      0.035629391771
     21.957196524978      4.996618935251     -0.218320683055
[...]
POINT_DATA                 532
SCALARS phi float 1
LOOKUP_TABLE default
     -0.000010609415
     -0.149693376020
     -0.232070091277
     -0.661239579101
     -0.823867432107
     -0.749383075400
     -0.899068105423
     -0.981445228815
     -1.410614770907
     -1.573242735233
     -1.768869697030
     -1.672497894507
     -1.913788878202
     -1.918554336121
     -2.000930829589
     -2.430100301330
     -2.592727418332
     -2.421873090006
     -2.663164151957
     -3.137137635170
     -3.286821924380
     -3.369197616210
     -3.396733461269
     -3.707414177515
     -3.441358209032
     -3.682648368942
     -3.798367271582
     -3.960993307137
     -4.146108699791
     -4.456789490283
     -4.809624423039
     -5.050913427594
     -4.940453629780
     -5.090137394516
     -5.172512109547
     -5.165593280389
     -5.476273160516
     -5.601681850096
     -5.764306564899
     -5.958446233695
     -6.299136528400
     -6.533859344470
     -6.844538055975
     -6.612938371015
     -6.854225959958
     -6.707821619833
     -7.048511841086
     -7.261077099688
     -7.410760330505
     -7.493133922617
     -7.727305928018
     -8.067995244448
     -7.922303765156
     -8.084926959203
     -8.337172822964
     -8.647850098684
     -8.933560036300
     -9.174845991015
     -9.095572114245
     -9.436260268424
     -9.142943883186
     -9.436253843349
     -9.892319195671
    -10.185627697386
    -10.157359451097
    -10.307042687572
    -10.389415087641
    -10.657793949675
    -10.968469563496
    -10.818585041299
    -10.981206619277
    -10.911802749695
    -11.205110675089
    -10.898884692989
    -11.239571417333
    -11.829839606719
    -12.071123821498
    -12.280068113141
    -12.573375253885
    -12.338182752415
    -12.543609540729
    -13.087557585191
    -13.292984585297
    -13.219505325196
    -13.560190391861
    -13.637078106086
    -13.554072949693
    -13.864746790230
    -13.786760098502
    -13.869131368526
    -14.107041990215
    -14.312468633898
    -14.083381224703
    -14.376687316680
    -14.298301429257
    -14.460921474175
    -14.944422192806
    -15.067355269178
    -15.309556216338
    -15.550838778430
    -15.475307246776
    -15.680733297897
    -15.693797072596
    -15.816730421116
    -16.115783798945
    -16.456467094077
    -16.404000471571
    -16.697305223797
    -16.737234769779
    -16.802531079696
    -16.713281483585
    -16.836214369947
    -17.033789019660
    -17.344461173082
    -17.278620239742
    -17.484045358983
    -17.486609687471
    -17.551906057567
    -17.631542661564
    -17.781223659196
    -17.863594030885
    -17.831206289808
    -17.861563974057
    -18.081545807815
    -18.204477922655
    -18.292764177696
    -18.455383003365
    -18.450666809732
    -18.461325088554
    -18.506093185981
    -18.571388877725
    -18.580581254701
    -18.610938669063
    -18.786660630319
    -19.200041798224
    -19.210699646106
    -19.304018392438
    -19.545299639027
    -19.300278508515
    -19.593581693403
    -19.536036806937
    -19.600066668503
    -19.630423212696
    -19.599239352894
    -19.804663176900
    -19.595498426370
    -19.936180033911
    -19.874359430682
    -19.939654101959
    -19.884859750934
    -20.007790716365
    -20.219525337206
    -20.230182246291
    -20.555517800124
    -20.968331049776
    -20.998686432950
    -21.028251710359
    -21.338922519363
    -21.587791611904
    -21.598447318574
    -21.677671515654
    -21.742964832297
    -21.923780862776
    -21.983974601123
    -22.133657715766
    -22.216027586311
    -22.205478857577
    -22.328408340213
    -22.495517237650
    -22.700939522376
    -22.645197781417
    -22.807815926708
    -22.771643150362
    -22.801997090208
    -22.779994637265
    -23.073296210307
    -23.391103717899
    -23.401757956102
    -23.727089100392
    -23.589960719373
    -23.930640980933
    -23.656451677415
    -23.897732189434
    -23.998290639581
    -24.063582336179
    -25.092264171278
    -25.122616437274
    -25.101756720670
    -25.224684535959
    -25.380682870638
    -25.691352928333
    -25.711722857147
    -25.722375405864
    -26.047703862407
    -25.975231318031
    -26.180652054710
    -26.465155311985
    -26.614837012631
    -26.697206883091
    -26.774456651179
    -27.067756835207
    -26.894570398058
    -26.959860343181
    -27.126377078548
    -27.288995223499
    -27.988542052007
    -28.018892533877
    -27.942393543561
    -28.283073052626
    -28.137630974816
    -28.378911486084
    -28.608002627392
    -28.618653382127
    -28.581470771795
    -28.704396961517
    -28.943977201833
    -29.861862168034
    -30.172532224659
    -29.969693180540
    -30.175112649289
    -30.374284453705
    -30.439572723661
    -30.817583684467
    -30.967267879926
    -31.049638251324
    -31.126887462770
    -31.420186759522
    -31.468256113804
    -31.498604900925
    -31.478808399182
    -31.641427223811
    -32.087714806153
    -32.098363860031
    -32.423688985220
    -32.423572840539
    -32.764252348741
    -32.490062614723
    -32.731343859041
    -32.575934493169
    -32.698859372214
    -34.214295932594
    -34.524966738394
    -34.368744405073
    -34.434031337197
    -34.322127651567
    -34.527546401480
    -34.812041844663
    -34.961726665964
    -35.044097935489
    -35.462717955344
    -35.493065393753
    -35.473266112328
    -35.635886155450
    -35.608066808468
    -35.901365920407
    -36.082178535649
    -36.092826237360
    -36.418145818947
    -36.484520900776
    -36.725803459023
    -36.776003054490
    -37.116683313496
    -36.928365176277
    -37.051289317829
    -38.291751511021
    -38.208754646779
    -38.519426794916
    -38.441436884528
    -38.523809283845
    -38.721178860397
    -38.786465043929
    -38.803305063054
    -39.008723807843
    -38.952981126274
    -39.115602701607
    -39.815148640966
    -39.845495326436
    -39.964232864439
    -40.205517073768
    -39.960501005845
    -40.253800682394
    -40.434609222378
    -40.445256169760
    -40.770578796050
    -40.770465937222
    -41.111147540635
    -41.188026788054
    -41.337712597678
    -41.420086188752
    -41.409546359357
    -41.532470496359
    -41.688467149869
    -41.999140983212
    -41.849254149128
    -42.011877339612
    -42.860510422140
    -43.101796369876
    -43.202356271303
    -43.267642452768
    -43.155735517167
    -43.361154969382
    -43.508641787628
    -43.658327915505
    -43.740702629167
    -43.954960448517
    -44.248261313545
    -44.169870488407
    -44.332495198715
    -44.296329823487
    -44.326676508263
    -44.250178939127
    -44.590862228811
    -44.584745277333
    -44.895420882457
    -44.915790404913
    -44.926437352097
    -45.251756680676
    -45.181127482382
    -45.422415063106
    -45.311950349404
    -45.461636697619
    -45.544012387729
    -45.761976829098
    -45.884901693452
    -45.973180162428
    -46.135806192663
    -46.680211863001
    -46.829898359095
    -46.912274850533
    -46.905362875504
    -47.216040141718
    -46.984437786309
    -47.225726781971
    -47.150198832318
    -47.355619537442
    -47.146457592109
    -47.487142652456
    -47.341446331373
    -47.504073442535
    -47.434673846783
    -47.727976276764
    -47.554790511622
    -47.620077437122
    -47.699695048124
    -47.849381641439
    -47.931758762637
    -48.360926423808
    -48.523554382278
    -48.449066246051
    -48.352704474862
    -48.593994626004
    -48.598753830166
    -48.681131834475
    -48.648760289450
    -48.679107725672
    -48.803400619707
    -48.861651072187
    -48.708673648085
    -49.019352350187
    -48.912295370758
    -49.110299764380
    -49.272928681198
    -49.268220869638
    -49.278868570708
    -49.372184977585
    -49.613476031726
    -49.514313240818
    -49.629309715866
    -49.604193242148
    -49.467075684222
    -49.807762402006
    -49.729291661161
    -49.756436398919
    -49.879362560377
    -50.076936949843
    -50.387616821585
    -50.121559041911
    -50.362850876972
    -50.330952911682
    -50.624257001035
    -50.629912384181
    -50.835334616686
    -50.720991123866
    -50.891610583773
    -51.039956515394
    -51.096421526851
    -51.407102310613
    -51.270386884966
    -51.611075033016
    -51.549250078433
    -51.614538335788
    -51.845796001947
    -52.156477378116
    -52.643223623272
    -52.673572406306
    -52.617608096325
    -52.837293238848
    -52.651571399347
    -52.944877004440
    -52.638650536379
    -52.979339847651
    -53.028301303092
    -53.262684201139
    -53.273333253850
    -53.236149979336
    -53.359077746134
    -53.598656502343
    -53.526191629929
    -53.731615377893
    -53.658135386496
    -53.998825603818
    -54.407510069035
    -54.748200802152
    -54.454882962157
    -54.748189797279
    -55.028963652762
    -55.094253576382
    -55.253876438392
    -55.494781299032
    -55.704237820353
    -55.846810300038
    -56.052235330819
    -55.823146930033
    -56.116454682415
    -56.122937190557
    -56.153287665654
    -56.132429247011
    -56.255358651254
    -56.742397765226
    -56.753048518070
    -56.842632042383
    -57.135940450709
    -57.078374485295
    -57.592006878679
    -57.885315613816
    -57.650122027224
    -57.855548004503
    -57.925242908707
    -57.990534569491
    -58.320668147478
    -58.528068027095
    -58.453047926738
    -58.575978778457
    -58.708396251613
    -59.019212665033
    -59.049564920101
    -59.018386132224
    -59.223812731270
    -59.638673235602
    -59.649325781367
    -59.974658241826
    -60.037871353764
    -60.243298331680
    -60.245861569253
    -60.311154826877
    -60.256359651635
    -60.379291635775
    -60.787246220545
    -60.992673528615
    -61.339835084010
    -61.370189006070
    -61.297586883871
    -61.442845839955
    -61.569141441022
    -61.624627519343
    -61.747560299524
    -61.959295649622
    -61.969949883243
    -62.049173268665
    -62.114467848301
    -62.295281043712
    -62.644108960395
    -62.767042247175
    -63.143146764821
    -63.173502118497
    -63.417437337366
    -63.482732910772
    -63.393483817125
    -63.516417570654
    -63.698891121770
    -63.785818463687
    -63.762607323706
    -63.773263023131
    -63.861400662801
    -64.098600050718
    -64.436926296919
    -64.502222556941
    -64.511410809959
    -64.541767305384
    -65.130867587332
    -65.141524484612
    -65.186301128537
    -65.251598035681
    -65.348516167894
    -65.394688274169
    -65.434832897723
    -65.466863202149
    -65.530892201341
    -65.561249542324
    -66.150356508873
    -66.161014336964
    -66.280267001524
    -66.310625195495
    -66.355690698352
    -66.377157606149
    -66.395821691301
    -66.486346825214
    -66.899731272664
    -66.910390194019
    -66.926216294978
    -66.933753950655
    -66.940304863603
    -67.235726770846
    -19.536037036944
    -18.786660820994
    -20.555518105676
    -21.923781263559
    -23.727089615773
    -26.047704507334
    -28.943977981079
    -32.423689887366
    -36.418146812869
    -40.770579832971
    -45.251757702727
    -49.604194194731
    -53.598657345057
    -57.078375197209
    -59.974658820373
    -62.295281499535
    -64.098600401569
    -65.466863467925
    -66.486347024839
SCALARS phi_mu float 1
LOOKUP_TABLE default
     -0.000010609415
     -0.149693376020
     -0.232070091277
     -0.661239579101
     -0.823867432107
     -0.749383075400
     -0.899068105423
     -0.981445228815
     -1.410614770907
     -1.573242735233
     -1.768869697030
     -1.672497894507
     -1.913788878202
     -1.918554336121
     -2.000930829589
     -2.430100301330
     -2.592727418332
     -2.421873090006
     -2.663164151957
     -3.137137635170
     -3.286821924380
     -3.369197616210
     -3.396733461269
     -3.707414177515
     -3.441358209032
     -3.682648368942
     -3.798367271582
     -3.960993307137
     -4.146108699791
     -4.456789490283
     -4.809624423039
     -5.050913427594
     -4.940453629780
     -5.090137394516
     -5.172512109547
     -5.165593280389
     -5.476273160516
     -5.601681850096
     -5.764306564899
     -5.958446233695
     -6.299136528400
     -6.533859344470
     -6.844538055975
     -6.612938371015
     -6.854225959958
     -6.707821619833
     -7.048511841086
     -7.261077099688
     -7.410760330505
     -7.493133922617
     -7.727305928018
     -8.067995244448
     -7.922303765156
     -8.084926959203
     -8.337172822964
     -8.647850098684
     -8.933560036300
     -9.174845991015
     -9.095572114245
     -9.436260268424
     -9.142943883186
     -9.436253843349
     -9.892319195671
    -10.185627697386
    -10.157359451097
    -10.307042687572
    -10.389415087641
    -10.657793949675
    -10.968469563496
    -10.818585041299
    -10.981206619277
    -10.911802749695
    -11.205110675089
    -10.898884692989
    -11.239571417333
    -11.829839606719
    -12.071123821498
    -12.280068113141
    -12.573375253885
    -12.338182752415
    -12.543609540729
    -13.087557585191
    -13.292984585297
    -13.219505325196
    -13.560190391861
    -13.637078106086
    -13.554072949693
    -13.864746790230
    -13.786760098502
    -13.869131368526
    -14.107041990215
    -14.312468633898
    -14.083381224703
    -14.376687316680
    -14.298301429257
    -14.460921474175
    -14.944422192806
    -15.067355269178
    -15.309556216338
    -15.550838778430
    -15.475307246776
    -15.680733297897
    -15.693797072596
    -15.816730421116
    -16.115783798945
    -16.456467094077
    -16.404000471571
    -16.697305223797
    -16.737234769779
    -16.802531079696
    -16.713281483585
    -16.836214369947
    -17.033789019660
    -17.344461173082
    -17.278620239742
    -17.484045358983
    -17.486609687471
    -17.551906057567
    -17.631542661564
    -17.781223659196
    -17.863594030885
    -17.831206289808
    -17.861563974057
    -18.081545807815
    -18.204477922655
    -18.292764177696
    -18.455383003365
    -18.450666809732
    -18.461325088554
    -18.506093185981
    -18.571388877725
    -18.580581254701
    -18.610938669063
    -18.786660630319
    -19.200041798224
    -19.210699646106
    -19.304018392438
    -19.545299639027
    -19.300278508515
    -19.593581693403
    -19.536036806937
    -19.600066668503
    -19.630423212696
    -19.599239352894
    -19.804663176900
    -19.595498426370
    -19.936180033911
    -19.874359430682
    -19.939654101959
    -19.884859750934
    -20.007790716365
    -20.219525337206
    -20.230182246291
    -20.555517800124
    -20.968331049776
    -20.998686432950
    -21.028251710359
    -21.338922519363
    -21.587791611904
    -21.598447318574
    -21.677671515654
    -21.742964832297
    -21.923780862776
    -21.983974601123
    -22.133657715766
    -22.216027586311
    -22.205478857577
    -22.328408340213
    -22.495517237650
    -22.700939522376
    -22.645197781417
    -22.807815926708
    -22.771643150362
    -22.801997090208
    -22.779994637265
    -23.073296210307
    -23.391103717899
    -23.401757956102
    -23.727089100392
    -23.589960719373
    -23.930640980933
    -23.656451677415
    -23.897732189434
    -23.998290639581
    -24.063582336179
    -25.092264171278
    -25.122616437274
    -25.101756720670
    -25.224684535959
    -25.380682870638
    -25.691352928333
    -25.711722857147
    -25.722375405864
    -26.047703862407
    -25.975231318031
    -26.180652054710
    -26.465155311985
    -26.614837012631
    -26.697206883091
    -26.774456651179
    -27.067756835207
    -26.894570398058
    -26.959860343181
    -27.126377078548
    -27.288995223499
    -27.988542052007
    -28.018892533877
    -27.942393543561
    -28.283073052626
    -28.137630974816
    -28.378911486084
    -28.608002627392
    -28.618653382127
    -28.581470771795
    -28.704396961517
    -28.943977201833
    -29.861862168034
    -30.172532224659
    -29.969693180540
    -30.175112649289
    -30.374284453705
    -30.439572723661
    -30.817583684467
    -30.967267879926
    -31.049638251324
    -31.126887462770
    -31.420186759522
    -31.468256113804
    -31.498604900925
    -31.478808399182
    -31.641427223811
    -32.087714806153
    -32.098363860031
    -32.423688985220
    -32.423572840539
    -32.764252348741
    -32.490062614723
    -32.731343859041
    -32.575934493169
    -32.698859372214
    -34.214295932594
    -34.524966738394
    -34.368744405073
    -34.434031337197
    -34.322127651567
    -34.527546401480
    -34.812041844663
    -34.961726665964
    -35.044097935489
    -35.462717955344
    -35.493065393753
    -35.473266112328
    -35.635886155450
    -35.608066808468
    -35.901365920407
    -36.082178535649
    -36.092826237360
    -36.418145818947
    -36.484520900776
    -36.725803459023
    -36.776003054490
    -37.116683313496
    -36.928365176277
    -37.051289317829
    -38.291751511021
    -38.208754646779
    -38.519426794916
    -38.441436884528
    -38.523809283845
    -38.721178860397
    -38.786465043929
    -38.803305063054
    -39.008723807843
    -38.952981126274
    -39.115602701607
    -39.815148640966
    -39.845495326436
    -39.964232864439
    -40.205517073768
    -39.960501005845
    -40.253800682394
    -40.434609222378
    -40.445256169760
    -40.770578796050
    -40.770465937222
    -41.111147540635
    -41.188026788054
    -41.337712597678
    -41.420086188752
    -41.409546359357
    -41.532470496359
    -41.688467149869
    -41.999140983212
    -41.849254149128
    -42.011877339612
    -42.860510422140
    -43.101796369876
    -43.202356271303
    -43.267642452768
    -43.155735517167
    -43.361154969382
    -43.508641787628
    -43.658327915505
    -43.740702629167
    -43.954960448517
    -44.248261313545
    -44.169870488407
    -44.332495198715
    -44.296329823487
    -44.326676508263
    -44.250178939127
    -44.590862228811
    -44.584745277333
    -44.895420882457
    -44.915790404913
    -44.926437352097
    -45.251756680676
    -45.181127482382
    -45.422415063106
    -45.311950349404
    -45.461636697619
    -45.544012387729
    -45.761976829098
    -45.884901693452
    -45.973180162428
    -46.135806192663
    -46.680211863001
    -46.829898359095
    -46.912274850533
    -46.905362875504
    -47.216040141718
    -46.984437786309
    -47.225726781971
    -47.150198832318
    -47.355619537442
    -47.146457592109
    -47.487142652456
    -47.341446331373
    -47.504073442535
    -47.434673846783
    -47.727976276764
    -47.554790511622
    -47.620077437122
    -47.699695048124
    -47.849381641439
    -47.931758762637
    -48.360926423808
    -48.523554382278
    -48.449066246051
    -48.352704474862
    -48.593994626004
    -48.598753830166
    -48.681131834475
    -48.648760289450
    -48.679107725672
    -48.803400619707
    -48.861651072187
    -48.708673648085
    -49.019352350187
    -48.912295370758
    -49.110299764380
    -49.272928681198
    -49.268220869638
    -49.278868570708
    -49.372184977585
    -49.613476031726
    -49.514313240818
    -49.629309715866
    -49.604193242148
    -49.467075684222
    -49.807762402006
    -49.729291661161
    -49.756436398919
    -49.879362560377
    -50.076936949843
    -50.387616821585
    -50.121559041911
    -50.362850876972
    -50.330952911682
    -50.624257001035
    -50.629912384181
    -50.835334616686
    -50.720991123866
    -50.891610583773
    -51.039956515394
    -51.096421526851
    -51.407102310613
    -51.270386884966
    -51.611075033016
    -51.549250078433
    -51.614538335788
    -51.845796001947
    -52.156477378116
    -52.643223623272
    -52.673572406306
    -52.617608096325
    -52.837293238848
    -52.651571399347
    -52.944877004440
    -52.638650536379
    -52.979339847651
    -53.028301303092
    -53.262684201139
    -53.273333253850
    -53.236149979336
    -53.359077746134
    -53.598656502343
    -53.526191629929
    -53.731615377893
    -53.658135386496
    -53.998825603818
    -54.407510069035
    -54.748200802152
    -54.454882962157