# vtk DataFile Version 3.0
TriPan results file. Generated by TriPan, USU AeroLab (c) 2021.
ASCII
DATASET POLYDATA
POINTS                 144 float
      0.000000000000      0.000000000000      0.000000000000
      0.750993072987      0.000000000000     -0.543790996075
      0.750993072987      0.000000000000      0.543790996075
      1.923753738400      1.923753738400      0.000000000000
      2.674746751790      1.923753738400     -0.543790996075
      2.674746751790      1.923753738400      0.543790996075
      3.592464447020      0.000000000000     -1.038844943050
      3.592464447020      0.000000000000      1.038844943050
      5.470331668850      5.470331668850      0.000000000000
      5.516218185420      1.923753738400     -1.038844943050
      5.516218185420      1.923753738400      1.038844943050
      6.221324920650      5.470331668850     -0.543790996075
      6.221324920650      5.470331668850      0.543790996075
      9.062796592710      5.470331668850     -1.038844943050
      9.062796592710      5.470331668850      1.038844943050
      9.395236968990      0.000000000000     -0.980761349201
      9.395236968990      0.000000000000      0.980761349201
     11.318990707400      1.923753738400     -0.980761349201
     11.318990707400      1.923753738400      0.980761349201
     11.382001876800     11.382001876800      0.000000000000
     12.132995605500     11.382001876800     -0.543790996075
     12.132995605500     11.382001876800      0.543790996075
     14.865568161000      5.470331668850     -0.980761349201
     14.865568161000      5.470331668850      0.980761349201
     14.974466323900     11.382001876800     -1.038844943050
     14.974466323900     11.382001876800      1.038844943050
     15.176529884300      0.000000000000     -0.411069482565
     15.176529884300      0.000000000000      0.411069482565
     17.100284576400      1.923753738400     -0.411069482565
     17.100284576400      1.923753738400      0.411069482565
     18.049325943000      0.000000000000     -0.101516798139
     18.049325943000      0.000000000000      0.101516798139
     19.000301361100      0.000000000000      0.000000000000
     19.756195068400     19.756195068400      0.000000000000
     19.973079681400      1.923753738400     -0.101516798139
     19.973079681400      1.923753738400      0.101516798139
     20.507186889600     19.756195068400     -0.543790996075
     20.507186889600     19.756195068400      0.543790996075
     20.646862030000      5.470331668850     -0.411069482565
     20.646862030000      5.470331668850      0.411069482565
     20.777238845800     11.382001876800     -0.980761349201
     20.777238845800     11.382001876800      0.980761349201
     20.924055099500      1.923753738400      0.000000000000
     23.348659515400     19.756195068400     -1.038844943050
     23.348659515400     19.756195068400      1.038844943050
     23.519659042400      5.470331668850     -0.101516798139
     23.519659042400      5.470331668850      0.101516798139
     24.470632553100      5.470331668850      0.000000000000
     26.558532714800     11.382001876800     -0.411069482565
     26.558532714800     11.382001876800      0.411069482565
     29.151432037400     19.756195068400     -0.980761349201
     29.151432037400     19.756195068400      0.980761349201
     29.243804931600     29.243804931600      0.000000000000
     29.431327819800     11.382001876800     -0.101516798139
     29.431327819800     11.382001876800      0.101516798139
     29.994798660300     29.243804931600     -0.543790996075
     29.994798660300     29.243804931600      0.543790996075
     30.382303237900     11.382001876800      0.000000000000
     32.836269378700     29.243804931600     -1.038844943050
     32.836269378700     29.243804931600      1.038844943050
     34.932723999000     19.756195068400     -0.411069482565
     34.932723999000     19.756195068400      0.411069482565
     37.617996215800     37.617996215800      0.000000000000
     37.805519104000     19.756195068400     -0.101516798139
     37.805519104000     19.756195068400      0.101516798139
     38.368991851800     37.617996215800     -0.543790996075
     38.368991851800     37.617996215800      0.543790996075
     38.639041900600     29.243804931600     -0.980761349201
     38.639041900600     29.243804931600      0.980761349201
     38.756496429400     19.756195068400      0.000000000000
     41.210460662800     37.617996215800     -1.038844943050
     41.210460662800     37.617996215800      1.038844943050
     43.529666900600     43.529666900600      0.000000000000
     44.280662536600     43.529666900600     -0.543790996075
     44.280662536600     43.529666900600      0.543790996075
     44.420333862300     29.243804931600     -0.411069482565
     44.420333862300     29.243804931600      0.411069482565
     47.013233184800     37.617996215800     -0.980761349201
     47.013233184800     37.617996215800      0.980761349201
     47.076248168900     47.076248168900      0.000000000000
     47.122131347700     43.529666900600     -1.038844943050
     47.122131347700     43.529666900600      1.038844943050
     47.293132782000     29.243804931600     -0.101516798139
     47.293132782000     29.243804931600      0.101516798139
     47.827239990200     47.076248168900     -0.543790996075
     47.827239990200     47.076248168900      0.543790996075
     48.244106292700     29.243804931600      0.000000000000
     49.000000000000     49.000000000000      0.000000000000
     49.750991821300     49.000000000000     -0.543790996075
     49.750991821300     49.000000000000      0.543790996075
     50.135513305700     49.384517669700     -0.384518325329
     50.135513305700     49.384517669700      0.384518325329
     50.294784545900     49.543792724600     -0.000000000000
     50.668708801300     47.076248168900     -1.038844943050
     50.668708801300     47.076248168900      1.038844943050
     52.592464447000     49.000000000000     -1.038844943050
     52.592464447000     49.000000000000      1.038844943050
     52.794528961200     37.617996215800     -0.411069482565
     52.794528961200     37.617996215800      0.411069482565
     52.924903869600     43.529666900600     -0.980761349201
     52.924903869600     43.529666900600      0.980761349201
     53.327037811300     49.734573364300     -0.734574317932
     53.327037811300     49.734573364300      0.734574317932
     53.631309509300     50.038845062300     -0.000000000000
     55.667324066200     37.617996215800     -0.101516798139
     55.667324066200     37.617996215800      0.101516798139
     56.471481323200     47.076248168900     -0.980761349201
     56.471481323200     47.076248168900      0.980761349201
     56.618297576900     37.617996215800      0.000000000000
     58.395236969000     49.000000000000     -0.980761349201
     58.395236969000     49.000000000000      0.980761349201
     58.706199646000     43.529666900600     -0.411069482565
     58.706199646000     43.529666900600      0.411069482565
     59.088741302500     49.693504333500     -0.693503022194
     59.088741302500     49.693504333500      0.693503022194
     59.375999450700     49.980762481700      0.000000000000
     61.578994751000     43.529666900600     -0.101516798139
     61.578994751000     43.529666900600      0.101516798139
     62.252777099600     47.076248168900     -0.411069482565
     62.252777099600     47.076248168900      0.411069482565
     62.529968261700     43.529666900600      0.000000000000
     64.176528930700     49.000000000000     -0.411069482565
     64.176528930700     49.000000000000      0.411069482565
     64.467201232900     49.290668487500     -0.290670007467
     64.467201232900     49.290668487500      0.290670007467
     64.587600708000     49.411067962600      0.000000000000
     65.125572204600     47.076248168900     -0.101516798139
     65.125572204600     47.076248168900      0.101516798139
     66.076545715300     47.076248168900      0.000000000000
     67.049324035600     49.000000000000     -0.101516798139
     67.049324035600     49.000000000000      0.101516798139
     67.121109008800     49.071784973100     -0.071783214807
     67.121109008800     49.071784973100      0.071783214807
     67.150840759300     49.101516723600     -0.000000000000
     68.000297546400     49.000000000000      0.000000000000
     20.924055099500      1.923753738400      0.000000000000
     19.000301361100      0.000000000000      0.000000000000
     24.470632553100      5.470331668850      0.000000000000
     30.382303237900     11.382001876800      0.000000000000
     38.756496429400     19.756195068400      0.000000000000
     48.244106292700     29.243804931600      0.000000000000
     56.618297576900     37.617996215800      0.000000000000
     62.529968261700     43.529666900600      0.000000000000
     66.076545715300     47.076248168900      0.000000000000
POLYGONS                 256                1024
3                  32                  34                  42
3                  32                  30                  34
3                  30                  28                  34
3                  30                  26                  28
3                  26                  17                  28
3                  26                  15                  17
3                  15                   6                  17
3                  17                   6                   9
3                   6                   1                   9
3                   9                   1                   4
3                   1                   0                   4
3                   4                   0                   3
3                   0                   5                   3
3                   0                   2                   5
3                   2                  10                   5
3                   2                   7                  10
[...]
CELL_DATA                 256
SCALARS sigma float 1
LOOKUP_TABLE default
      0.000000000000
      0.000000000000
      0.000000000000
      0.000000000000
      0.000000000000
      0.000000000000
      0.000000000000
      0.000000000000
      0.000000000000
      0.000000000000
      0.000000000000
      0.000000000000
      0.000000000000
      0.000000000000
      0.000000000000
      0.000000000000
      0.000000000000
      0.000000000000
      0.000000000000
      0.000000000000
      0.000000000000
      0.000000000000
      0.000000000000
      0.000000000000
      0.000000000000
      0.000000000000
      0.000000000000
      0.000000000000
      0.000000000000
      0.000000000000
      0.000000000000
      0.000000000000
      0.000000000000
      0.000000000000
      0.000000000000
      0.000000000000
      0.000000000000
      0.000000000000
      0.000000000000
      0.000000000000
      0.000000000000
      0.000000000000
      0.000000000000
      0.000000000000
      0.000000000000
      0.000000000000
      0.000000000000
      0.000000000000
      0.000000000000
      0.000000000000
      0.000000000000
      0.000000000000
      0.000000000000
      0.000000000000
      0.000000000000
      0.000000000000
      0.000000000000
      0.000000000000
      0.000000000000
      0.000000000000
      0.000000000000
      0.000000000000
      0.000000000000
      0.000000000000
      0.000000000000
      0.000000000000
      0.000000000000
      0.000000000000
      0.000000000000
      0.000000000000
      0.000000000000
      0.000000000000
      0.000000000000
      0.000000000000
      0.000000000000
      0.000000000000
      0.000000000000
      0.000000000000
      0.000000000000
      0.000000000000
      0.000000000000
      0.000000000000
      0.000000000000
      0.000000000000
      0.000000000000
      0.000000000000
      0.000000000000
      0.000000000000
      0.000000000000
      0.000000000000
      0.000000000000
      0.000000000000
      0.000000000000
      0.000000000000
      0.000000000000
      0.000000000000
      0.000000000000
      0.000000000000
      0.000000000000
      0.000000000000
      0.000000000000
      0.000000000000
      0.000000000000
      0.000000000000
      0.000000000000
      0.000000000000
      0.000000000000
      0.000000000000
      0.000000000000
      0.000000000000
      0.000000000000
      0.000000000000
      0.000000000000
      0.000000000000
      0.000000000000
      0.000000000000
      0.000000000000
      0.000000000000
      0.000000000000
      0.000000000000
      0.000000000000
      0.000000000000
      0.000000000000
      0.000000000000
      0.000000000000
      0.000000000000
      0.000000000000
      0.000000000000
      0.000000000000
      0.000000000000
      0.000000000000
      0.000000000000
      0.000000000000
      0.000000000000
      0.000000000000
      0.000000000000
      0.000000000000
      0.000000000000
      0.000000000000
      0.000000000000
      0.000000000000
      0.000000000000
      0.000000000000
      0.000000000000
      0.000000000000
      0.000000000000
      0.000000000000
      0.000000000000
      0.000000000000
      0.000000000000
      0.000000000000
      0.000000000000
      0.000000000000
      0.000000000000
      0.000000000000
      0.000000000000
      0.000000000000
      0.000000000000
      0.000000000000
      0.000000000000
      0.000000000000
      0.000000000000
      0.000000000000
      0.000000000000
      0.000000000000
      0.000000000000
      0.000000000000
      0.000000000000
      0.000000000000
      0.000000000000
      0.000000000000
      0.000000000000
      0.000000000000
      0.000000000000
      0.000000000000
      0.000000000000
      0.000000000000
      0.000000000000
      0.000000000000
      0.000000000000
      0.000000000000
      0.000000000000
      0.000000000000
      0.000000000000
      0.000000000000
      0.000000000000
      0.000000000000
      0.000000000000
      0.000000000000
      0.000000000000
      0.000000000000
      0.000000000000
      0.000000000000
      0.000000000000
      0.000000000000
      0.000000000000
      0.000000000000
      0.000000000000
      0.000000000000
      0.000000000000
      0.000000000000
      0.000000000000
      0.000000000000
      0.000000000000
      0.000000000000
      0.000000000000
      0.000000000000
      0.000000000000
      0.000000000000
      0.000000000000
      0.000000000000
      0.000000000000
      0.000000000000
      0.000000000000
      0.000000000000
      0.000000000000
      0.000000000000
      0.000000000000
      0.000000000000
      0.000000000000
      0.000000000000
      0.000000000000
      0.000000000000
      0.000000000000
      0.000000000000
      0.000000000000
      0.000000000000
      0.000000000000
      0.000000000000
      0.000000000000
      0.000000000000
      0.000000000000
      0.000000000000
      0.000000000000
      0.000000000000
      0.000000000000
      0.000000000000
      0.000000000000
      0.000000000000
      0.000000000000
      0.000000000000
      0.000000000000
      0.000000000000
      0.000000000000
      0.000000000000
      0.000000000000
      0.000000000000
      0.000000000000
      0.000000000000
      0.000000000000
      0.000000000000
      0.000000000000
      0.000000000000
      0.000000000000
      0.000000000000
      0.000000000000
SCALARS C_p float 1
LOOKUP_TABLE default
      0.199317419269
      0.446531800565
      0.156847290089
      0.135740878222
      0.055009319204
      0.033278102406
      0.078098271373
      0.054545984204
      0.303598100394
      0.241074121883
      0.616063916326
      0.610071351359
     -0.566733036468
      0.064013609289
     -0.684657683625
     -0.431025041308
     -0.478613996861
     -0.475873504986
     -0.353671448154
     -0.298289823728
     -0.206059268613
     -0.123568830407
     -0.497663020945
      0.056185961883
      0.153739607742
      0.206816429859
      0.108441623980
      0.154322977686
      0.058561311124
      0.055386960932
      0.055245155734
      0.051953290501
      0.229970561552
      0.239547962965
      0.526276605340
      0.490136040250
     -0.910940551703
     -0.554933976517
     -0.844770997173
     -0.670056067163
     -0.504662173642
     -0.495351998258
     -0.299364486643
     -0.239001388838
     -0.123429605638
     -0.024940660630
      0.059221642147
      0.126508528091
      0.148851402901
      0.155103112024
      0.093625401845
      0.108815823289
      0.047113980317
      0.058434869351
      0.051995270270
      0.059161045311
      0.237492059081
      0.260188678215
      0.492989059209
      0.453956754817
     -1.143875621506
     -0.907577886918
     -0.941585379318
     -0.845584002048
     -0.506407098320
     -0.521100398076
     -0.240021315340
     -0.199061241348
     -0.024616197734
      0.002652827335
      0.124518517197
      0.132454207380
      0.141434626030
      0.148308156030
      0.085160040935
      0.093395950667
      0.039271422974
      0.047009099560
      0.058994864437
      0.059318806195
      0.260889518870
      0.274735027895
      0.464349543832
      0.439906543733
     -1.251476107300
     -1.144168684391
     -0.978338622278
     -0.948255662203
     -0.505124154625
     -0.516951993554
     -0.199645305705
     -0.184124599329
      0.002657170512
      0.015250836268
      0.132874832920
      0.142814540107
      0.131367293423
      0.139978069966
      0.071796743124
      0.084463718050
      0.026740533856
      0.039087166404
      0.058973270811
      0.050238871355
      0.274225688611
      0.272906975043
      0.443130579126
      0.440077642793
     -1.262383848538
     -1.252072493857
     -0.975293933170
     -0.982539061947
     -0.492975117173
     -0.510487496450
     -0.185014492744
     -0.167086232820
      0.015262580817
      0.034721447369
      0.144174982857
      0.160478744765
      0.117565101017
      0.127731796961
      0.049958510062
      0.069956853432
      0.000092130957
      0.026274943032
      0.049332447131
      0.024218038319
      0.270142162817
      0.253241250064
      0.436009450189
      0.451751576888
     -1.196207383628
     -1.262825205078
     -0.934293484908
     -0.979389212053
     -0.458246709353
     -0.499310256953
     -0.168189718981
     -0.127845119615
      0.034586603296
      0.084193032037
      0.163262628364
      0.210922319308
      0.223310282016
      0.107910373979
      0.043619528165
      0.043427454628
     -0.043262340315
     -0.001881115482
      0.021044013050
     -0.029702816110
      0.245502116435
      0.209374276033
      0.437037822387
      0.467554064601
     -1.075905158493
     -1.196442720018
     -0.863930745138
     -0.940143909749
     -0.399706782819
     -0.469511342139
     -0.128580336819
     -0.060755683697
      0.083692599875
      0.189927300757
      0.215665795648
      0.416617246974
    -21.656728546552
     -0.371867806853
      0.177453390583
     -0.090990892261
     -0.374906113789
     -0.053191139162
     -0.042363265557
     -0.100734823628
      0.187101656367
      0.124435156713
      0.428744258779
      0.473899627151
     -0.924592772042
     -1.075398774180
     -0.771402459171
     -0.872890106321
     -0.319124446616
     -0.423008692573
     -0.060956819835
     -0.219681791787
      0.164675932476
      0.199458415737
     -0.664049875203
    -21.132843826369
********************
 -30494.521048954372
 -17868.279170215104
      0.610739881589
     -0.631501432372
     -0.362569179178
     -0.171075994864
     -0.190496354153
      0.052909924398
      0.021444754173
      0.312121295414
      0.422915085018
     -0.710376938622
     -0.921367646278
     -0.533533893534
     -0.819333692356
     -0.289566336941
     -0.366950819649
     -0.270866780174
     -1.990036107695
      0.108008936816
 -17750.823282060581
 -30307.998819390978
********************
********************
-772010.636604037718
 -30558.270433974089
    -71.423241677480
     -0.564258358699
     -0.509932564698
     -0.355101887212
     -0.217528841982
     -0.255739417084
     -0.108737374639
     -0.713845983151
     -0.460241403401
     -0.658608293475
     -0.428869903474
     -0.432236103296
      0.788554554441
    -96.967583900815
 -30841.021803504103
-768463.885853751446
********************
********************
********************
 -31998.795512536461
    -89.651588223654
     -0.673549342327
     -0.766523228854
     -0.577002767566
     -0.457958269094
     -0.513529204601
     -0.390080874460
     -0.600026397906
     -0.579669225380
     -0.584594114811
     -0.609519944689
     -0.604608662511
      0.914981561581
   -129.904023515899
 -32262.531792027490
********************
********************
VECTORS v float
    143.557028015908     22.296955293721     12.944534727778
    115.395543361677     36.299761089199      8.443489084759
    148.815839859442      2.879464591434     15.725102232661
    150.657342995076      3.803830476272     15.823921192100
    157.627341652658     -3.166171636684     15.844681086730
    159.496612131989      0.528840021366     15.664773979682
    156.457452309873      3.567999843497      1.530366532072
    158.424487832517     -4.335345532279      1.629165372291
    132.952775567403     21.136366732835    -19.481158612397
    139.945601086840      2.673529623788    -23.916158376227
     74.046412782035     68.572715887066     -3.963482952102
     72.745655671177     71.181465353617     -1.132623866895
    159.323112857074    -15.395991832279    126.513395302408
    135.250256569624     32.883615776643     74.123264405397
    204.217625371326    -36.083750888482     41.866387541179
    191.951343885084     -3.697649451588     34.086849249350
    197.956630977151     -9.702936543654     -2.078595004896
    197.802186306755     -9.082393824657     -2.070837669490
    188.732019210962     -0.012226728817    -18.598964515617
    184.567921755083     -8.243452406229    -18.999738894394
    177.951437662040     -1.626965033067    -19.350129884971
    171.661681716008     -4.784189851450    -19.012596166197
    195.890844670633    -29.013352806074    -24.008563819108
    157.051614222076     -9.701224631921    -17.800895752772
    148.632592758619     13.595802641549     14.415230913357
    143.501000660884     17.324343564977     13.469380254282
    152.908639518410      7.916700912780     15.623325502388
    148.881922462915      8.637055690028     15.111824463371
    157.394090509141      0.124888788294     15.497393340042
    157.660621177653      0.294367300474     15.506956914968
    158.424875084311     -0.469886503427      1.590477441286
    158.696827149401     -1.186958033201      1.600377464728
    140.371727890420     17.138143689604    -21.470309500818
    139.279149816501     19.182366268819    -20.923800388555
     76.465510409225     81.996009898588      4.004616247897
     69.957821113812     91.679306108632     15.728434221280
    176.752650198467    -15.115522976023    138.930922156185
    165.287587146468      1.944229714581    118.276262741903
    212.117957630214    -44.886143917222     44.776408508531
    204.384569921711    -30.416913954143     40.908172433883
    198.428924539808    -24.461267771498     -2.231048291632
    197.955277566534    -23.212375767511     -2.213805886557
    184.552856955810     -9.809956958790    -19.152618085365
    179.991366337872    -12.710466110574    -18.988944022861
    171.666259281055     -4.385360173098    -18.970114200698
    164.008089958648     -3.015363844136    -17.997289275953
    157.203612669496      3.789116189676    -16.377025125106
    151.357620466110      8.036731796716    -15.299561628314
    149.202739496462     11.717892521363     14.676532217284
    148.616950153275     12.207478636931     14.561765315488
    154.223434905998      6.600995240906     15.906781132694
    152.901210662916      7.269447547090     15.692268835598
    158.353999910992      1.816657859179     15.425275471022
    157.410472889949      1.828395261956     15.331143191015
    158.697000347759      0.541867700372      1.583074291169
    158.087441184674      1.749936171633      1.564880256545
    139.318522557208     20.518853285438    -20.697811831039
    136.640345390993     24.582672881767    -19.523196816195
     69.851839670357     91.371183990295     15.582070361958
     63.987397041446     98.870751120424     25.258871194412
    184.702936694196    -21.844788532327    149.560227929447
    177.573876585549    -12.728010017764    137.796781504078
    216.258802204663    -51.412938757628     46.634988371416
    212.111089949619    -45.119269872752     44.815827080961
    197.678594838935    -30.686775926009     -2.285852366413
    198.428152027999    -32.172302619770     -2.308225154525
    179.981602455178    -13.725751559004    -19.088028946587
    176.967584361502    -13.688257408276    -18.787331257161
    164.034036555862     -0.754708559383    -17.756492440044
    161.850413758048      0.349226515093    -17.402259558362
    151.388876134229     10.810761607351    -15.006769568436
    150.660132178806     11.419823978455    -14.863928023625
    149.853147351774     11.742806854800     14.743274295480
    149.209431725906     12.311852773660     14.613841649726
    154.943655985188      6.577629820469     15.986904899950
    154.228505073004      7.042744528063     15.859727588380
    159.002871095342      2.268379593188     15.444707846884
    158.360203799185      2.461763551804     15.362317751464
    158.087539813606      2.734427537383      1.555026850109
    158.059494650694      2.781911422236      1.554270832417
    136.629424773628     24.211981299047    -19.585878094992
    134.943928026643     26.510422134759    -18.891766747338
     63.628107261193     97.826226655667     24.762679875131
     60.393048138725    101.684961421654     29.899354453803
    187.782342941099    -25.704333380720    154.585082138818
    184.657462809532    -21.976997683697    149.623028899764
    217.500082334157    -54.819609727328     47.444740796814
    216.210258354297    -53.060733722329     46.913616448652
    197.063754452424    -33.914229820684     -2.312003680257
    197.678167286358    -34.954505762421     -2.328566499269
    176.962291517326    -14.238629993389    -18.841043604795
    175.835835629976    -13.899669000487    -18.696646478744
    161.847424024251      0.088739419081    -17.430005699973
    160.828218876701      0.751602733808    -17.248757562839
    150.654559781355     10.925259511889    -14.916128379554
    149.732185943973     11.740638975842    -14.730593090192
    150.677894031003     12.547767325517     14.745445621656
    149.870383694197     13.272587422311     14.581809679606
    156.056229287848      7.086739341440     16.051908232144
    154.958210889844      7.845755910735     15.851828510846
    160.033448940234      2.770517860292     15.496780538518
    159.011459122215      3.161396483213     15.357555662278
    158.059628025426      4.113227580002      1.540946188066
    158.818820291298      2.889579787769      1.560793679298
    134.951198312975     26.757201766344    -18.850037316193
    135.114198105483     26.541945392711    -18.915950548993
     60.285086983995    101.371071558718     29.750256832117
     59.902048057907    101.818907970407     30.351799399992
    188.000623126311    -26.279667097996    155.159341559381
    187.703805109940    -25.932656851002    154.693545260276
    217.160685473830    -55.389543137248     47.484941886654
    217.471211000343    -55.799617991079     47.610454261384
    196.145542653558    -34.473949644068     -2.308415309017
    197.063550145795    -35.953571989589     -2.332414691539
    175.827965939160    -14.717987782954    -18.776508914773
    174.528334649039    -14.220920121425    -18.599461156569
    160.813780571524     -0.506366043766    -17.382751853707
    159.229192089391      0.588995373178    -17.093956121089
    149.713750681081     10.104440607480    -14.903288814653
    148.191238597476     11.471047059779    -14.594934485219
    151.677499985032     15.054555218892     14.584553353932
    150.715718240656     15.904772098812     14.391121784597
    157.817421918563      8.803068420904     16.056764042420
    156.088831643881      9.927295999513     15.749342569166
    162.198649127862      3.817475732323     15.606962316190
    160.049735924578      4.464103678935     15.331498537517
    158.819101319407      5.694738284107      1.532717899480
    160.993685622642      2.012901219612      1.591338498287
    135.152843463516     27.853743378430    -18.694137039731
    137.231416141280     25.019281430210    -19.550120399404
     60.037637494403    102.213077658689     30.539052990473
     62.020434820604     99.848020743619     27.390705940386
    186.025083740373    -24.156628176151    152.191193931032
    187.943699867539    -26.445151462014    155.237954501971
    215.204387869038    -53.705845672389     46.850797037362
    217.132816200566    -56.335559426185     47.644903693663
    194.001237867502    -33.203981093398     -2.274239703252
    196.145306202428    -36.834150893022     -2.332037678544
    174.518845020185    -15.207689710778    -18.695762891290
    171.538689061311    -14.310934850970    -18.313718406564
    159.199797951669     -1.972038120586    -17.366747963454
    155.096099089119      0.696897484395    -16.636998318045
    148.148128089627      7.644868483889    -14.998778496751
    143.635261363459     11.634251199718    -14.091160008309
    139.544310879328     32.120881205053     11.467493576782
    151.754806248795     21.915703113917     13.860375578485
    157.880770531126     15.789738831586     15.310754400444
    157.897514110356     15.781274080087     15.313470677158
    165.565339761594      8.113448428848     15.515390553945