# vtk DataFile Version 3.0
MachLine results file. Generated by MachLine, USU AeroLab (c) 2022.
ASCII
DATASET POLYDATA
POINTS                3847 float
  0.100000000000E+01  0.000000000000E+00  0.000000000000E+00
  0.986936852140E+00  0.512820512820E-01 -0.114287734800E-02
  0.100000000000E+01  0.512820512820E-01  0.000000000000E+00
  0.986936852140E+00  0.000000000000E+00 -0.114287734800E-02
  0.969870673510E+00  0.512820512820E-01 -0.263597450740E-02
  0.969870673510E+00  0.000000000000E+00 -0.263597450740E-02
  0.947785033200E+00  0.512820512820E-01 -0.456821766120E-02
  0.947785033200E+00  0.000000000000E+00 -0.456821766120E-02
  0.919551441300E+00  0.512820512820E-01 -0.703833688330E-02
  0.919551441300E+00  0.000000000000E+00 -0.703833688330E-02
  0.884018106510E+00  0.512820512820E-01 -0.101471008550E-01
  0.884018106510E+00  0.000000000000E+00 -0.101471008550E-01
  0.840166851150E+00  0.512820512820E-01 -0.139835885800E-01
  0.840166851150E+00  0.000000000000E+00 -0.139835885800E-01
  0.787342649140E+00  0.512820512820E-01 -0.186051074160E-01
  0.787342649140E+00  0.000000000000E+00 -0.186051074160E-01
  0.725530751590E+00  0.512820512820E-01 -0.240129477220E-01
  0.725530751590E+00  0.000000000000E+00 -0.240129477220E-01
  0.655612654280E+00  0.512820512820E-01 -0.301299886120E-01
  0.655612654280E+00  0.000000000000E+00 -0.301299886120E-01
  0.579493951800E+00  0.512820512820E-01 -0.367895121620E-01
  0.579493951800E+00  0.000000000000E+00 -0.367895121620E-01
  0.500000000000E+00  0.512820512820E-01 -0.437443317630E-01
  0.500000000000E+00  0.000000000000E+00 -0.437443317630E-01
  0.420506048200E+00  0.000000000000E+00 -0.367895121620E-01
  0.420506048200E+00  0.512820512820E-01 -0.367895121620E-01
  0.344387345720E+00  0.000000000000E+00 -0.301299886120E-01
  0.344387345720E+00  0.512820512820E-01 -0.301299886120E-01
  0.274469248410E+00  0.000000000000E+00 -0.240129477220E-01
  0.274469248410E+00  0.512820512820E-01 -0.240129477220E-01
  0.212657350860E+00  0.000000000000E+00 -0.186051074160E-01
  0.212657350860E+00  0.512820512820E-01 -0.186051074160E-01
  0.159833148850E+00  0.000000000000E+00 -0.139835885800E-01
  0.159833148850E+00  0.512820512820E-01 -0.139835885800E-01
  0.115981893490E+00  0.000000000000E+00 -0.101471008550E-01
  0.115981893490E+00  0.512820512820E-01 -0.101471008550E-01
  0.804485587010E-01  0.000000000000E+00 -0.703833688330E-02
  0.804485587010E-01  0.512820512820E-01 -0.703833688330E-02
  0.522149667970E-01  0.000000000000E+00 -0.456821766120E-02
  0.522149667970E-01  0.512820512820E-01 -0.456821766120E-02
  0.301293264890E-01  0.000000000000E+00 -0.263597450740E-02
  0.301293264890E-01  0.512820512820E-01 -0.263597450740E-02
  0.130631478640E-01  0.000000000000E+00 -0.114287734800E-02
  0.130631478640E-01  0.512820512820E-01 -0.114287734800E-02
  0.000000000000E+00  0.000000000000E+00  0.000000000000E+00
  0.000000000000E+00  0.512820512820E-01  0.000000000000E+00
  0.130631478640E-01  0.512820512820E-01  0.114287734800E-02
  0.130631478640E-01  0.000000000000E+00  0.114287734800E-02
  0.301293264890E-01  0.512820512820E-01  0.263597450740E-02
  0.301293264890E-01  0.000000000000E+00  0.263597450740E-02
  0.522149667970E-01  0.512820512820E-01  0.456821766120E-02
  0.522149667970E-01  0.000000000000E+00  0.456821766120E-02
  0.804485587010E-01  0.512820512820E-01  0.703833688330E-02
  0.804485587010E-01  0.000000000000E+00  0.703833688330E-02
  0.115981893490E+00  0.512820512820E-01  0.101471008550E-01
  0.115981893490E+00  0.000000000000E+00  0.101471008550E-01
  0.159833148850E+00  0.512820512820E-01  0.139835885800E-01
  0.159833148850E+00  0.000000000000E+00  0.139835885800E-01
  0.212657350860E+00  0.512820512820E-01  0.186051074160E-01
  0.212657350860E+00  0.000000000000E+00  0.186051074160E-01
  0.274469248410E+00  0.512820512820E-01  0.240129477220E-01
  0.274469248410E+00  0.000000000000E+00  0.240129477220E-01
  0.344387345720E+00  0.512820512820E-01  0.301299886120E-01
  0.344387345720E+00  0.000000000000E+00  0.301299886120E-01
  0.420506048200E+00  0.512820512820E-01  0.367895121620E-01
  0.420506048200E+00  0.000000000000E+00  0.367895121620E-01
  0.500000000000E+00  0.512820512820E-01  0.437443317630E-01
  0.500000000000E+00  0.000000000000E+00  0.437443317630E-01
  0.579493951800E+00  0.000000000000E+00  0.367895121620E-01
  0.579493951800E+00  0.512820512820E-01  0.367895121620E-01
  0.655612654280E+00  0.000000000000E+00  0.301299886120E-01
  0.655612654280E+00  0.512820512820E-01  0.301299886120E-01
  0.725530751590E+00  0.000000000000E+00  0.240129477220E-01
  0.725530751590E+00  0.512820512820E-01  0.240129477220E-01
  0.787342649140E+00  0.000000000000E+00  0.186051074160E-01
  0.787342649140E+00  0.512820512820E-01  0.186051074160E-01
  0.840166851150E+00  0.000000000000E+00  0.139835885800E-01
  0.840166851150E+00  0.512820512820E-01  0.139835885800E-01
  0.884018106510E+00  0.000000000000E+00  0.101471008550E-01
  0.884018106510E+00  0.512820512820E-01  0.101471008550E-01
  0.919551441300E+00  0.000000000000E+00  0.703833688330E-02
  0.919551441300E+00  0.512820512820E-01  0.703833688330E-02
  0.947785033200E+00  0.000000000000E+00  0.456821766120E-02
  0.947785033200E+00  0.512820512820E-01  0.456821766120E-02
  0.969870673510E+00  0.000000000000E+00  0.263597450740E-02
  0.969870673510E+00  0.512820512820E-01  0.263597450740E-02
  0.986936852140E+00  0.000000000000E+00  0.114287734800E-02
  0.986936852140E+00  0.512820512820E-01  0.114287734800E-02
  0.986936852140E+00  0.102564102560E+00 -0.114287734800E-02
  0.100000000000E+01  0.102564102560E+00  0.000000000000E+00
  0.969870673510E+00  0.102564102560E+00 -0.263597450740E-02
  0.947785033200E+00  0.102564102560E+00 -0.456821766120E-02
  0.919551441300E+00  0.102564102560E+00 -0.703833688330E-02
  0.884018106510E+00  0.102564102560E+00 -0.101471008550E-01
  0.840166851150E+00  0.102564102560E+00 -0.139835885800E-01
  0.787342649140E+00  0.102564102560E+00 -0.186051074160E-01
  0.725530751590E+00  0.102564102560E+00 -0.240129477220E-01
  0.655612654280E+00  0.102564102560E+00 -0.301299886120E-01
  0.579493951800E+00  0.102564102560E+00 -0.367895121620E-01
  0.500000000000E+00  0.102564102560E+00 -0.437443317630E-01
  0.420506048200E+00  0.102564102560E+00 -0.367895121620E-01
  0.344387345720E+00  0.102564102560E+00 -0.301299886120E-01
  0.274469248410E+00  0.102564102560E+00 -0.240129477220E-01
  0.212657350860E+00  0.102564102560E+00 -0.186051074160E-01
  0.159833148850E+00  0.102564102560E+00 -0.139835885800E-01
  0.115981893490E+00  0.102564102560E+00 -0.101471008550E-01
  0.804485587010E-01  0.102564102560E+00 -0.703833688330E-02
  0.522149667970E-01  0.102564102560E+00 -0.456821766120E-02
  0.301293264890E-01  0.102564102560E+00 -0.263597450740E-02
  0.130631478640E-01  0.102564102560E+00 -0.114287734800E-02
  0.000000000000E+00  0.102564102560E+00  0.000000000000E+00
  0.130631478640E-01  0.102564102560E+00  0.114287734800E-02
  0.301293264890E-01  0.102564102560E+00  0.263597450740E-02
  0.522149667970E-01  0.102564102560E+00  0.456821766120E-02
  0.804485587010E-01  0.102564102560E+00  0.703833688330E-02
  0.115981893490E+00  0.102564102560E+00  0.101471008550E-01
  0.159833148850E+00  0.102564102560E+00  0.139835885800E-01
  0.212657350860E+00  0.102564102560E+00  0.186051074160E-01
  0.274469248410E+00  0.102564102560E+00  0.240129477220E-01
  0.344387345720E+00  0.102564102560E+00  0.301299886120E-01
  0.420506048200E+00  0.102564102560E+00  0.367895121620E-01
  0.500000000000E+00  0.102564102560E+00  0.437443317630E-01
  0.579493951800E+00  0.102564102560E+00  0.367895121620E-01
  0.655612654280E+00  0.102564102560E+00  0.301299886120E-01
  0.725530751590E+00  0.102564102560E+00  0.240129477220E-01
  0.787342649140E+00  0.102564102560E+00  0.186051074160E-01
  0.840166851150E+00  0.102564102560E+00  0.139835885800E-01
  0.884018106510E+00  0.102564102560E+00  0.101471008550E-01
  0.919551441300E+00  0.102564102560E+00  0.703833688330E-02
  0.947785033200E+00  0.102564102560E+00  0.456821766120E-02
  0.969870673510E+00  0.102564102560E+00  0.263597450740E-02
  0.986936852140E+00  0.102564102560E+00  0.114287734800E-02
  0.986936852140E+00  0.153846153850E+00 -0.114287734800E-02
  0.100000000000E+01  0.153846153850E+00  0.000000000000E+00
  0.969870673510E+00  0.153846153850E+00 -0.263597450740E-02
  0.947785033200E+00  0.153846153850E+00 -0.456821766120E-02
  0.919551441300E+00  0.153846153850E+00 -0.703833688330E-02
  0.884018106510E+00  0.153846153850E+00 -0.101471008550E-01
  0.840166851150E+00  0.153846153850E+00 -0.139835885800E-01
  0.787342649140E+00  0.153846153850E+00 -0.186051074160E-01
  0.725530751590E+00  0.153846153850E+00 -0.240129477220E-01
  0.655612654280E+00  0.153846153850E+00 -0.301299886120E-01
  0.579493951800E+00  0.153846153850E+00 -0.367895121620E-01
  0.500000000000E+00  0.153846153850E+00 -0.437443317630E-01
  0.420506048200E+00  0.153846153850E+00 -0.367895121620E-01
  0.344387345720E+00  0.153846153850E+00 -0.301299886120E-01
  0.274469248410E+00  0.153846153850E+00 -0.240129477220E-01
  0.212657350860E+00  0.153846153850E+00 -0.186051074160E-01
  0.159833148850E+00  0.153846153850E+00 -0.139835885800E-01
  0.115981893490E+00  0.153846153850E+00 -0.101471008550E-01
  0.804485587010E-01  0.153846153850E+00 -0.703833688330E-02
  0.522149667970E-01  0.153846153850E+00 -0.456821766120E-02
  0.301293264890E-01  0.153846153850E+00 -0.263597450740E-02
  0.130631478640E-01  0.153846153850E+00 -0.114287734800E-02
  0.000000000000E+00  0.153846153850E+00  0.000000000000E+00
  0.130631478640E-01  0.153846153850E+00  0.114287734800E-02
  0.301293264890E-01  0.153846153850E+00  0.263597450740E-02
  0.522149667970E-01  0.153846153850E+00  0.456821766120E-02
  0.804485587010E-01  0.153846153850E+00  0.703833688330E-02
  0.115981893490E+00  0.153846153850E+00  0.101471008550E-01
  0.159833148850E+00  0.153846153850E+00  0.139835885800E-01
[...]
CELL_DATA                7536
SCALARS C_p_ise float 1
LOOKUP_TABLE default
 -0.882077888667E-01
 -0.882051602706E-01
 -0.882114698981E-01
 -0.882114731104E-01
 -0.882114708578E-01
 -0.882114722287E-01
 -0.882114722691E-01
 -0.882114698624E-01
 -0.882114740804E-01
 -0.882114718037E-01
 -0.882114653236E-01
 -0.882114740488E-01
 -0.882114827502E-01
 -0.882114713003E-01
 -0.882114527747E-01
 -0.882114738180E-01
 -0.882114863076E-01
 -0.882114758977E-01
 -0.882114571651E-01
 -0.882114669505E-01
 -0.882114864008E-01
 -0.882114679539E-01
  0.246228153987E+00
  0.246228159182E+00
  0.246228158430E+00
  0.246228161758E+00
  0.246228158033E+00
  0.246228149502E+00
  0.246228156935E+00
  0.246228164800E+00
  0.246228156685E+00
  0.246228156685E+00
  0.246228156652E+00
  0.246228156652E+00
  0.246228156695E+00
  0.246228156695E+00
  0.246228156662E+00
  0.246228156662E+00
  0.246228156685E+00
  0.246228156685E+00
  0.246228156672E+00
  0.246228156672E+00
  0.246228156661E+00
  0.246228156661E+00
  0.990831683429E-01
  0.990831683429E-01
  0.990831683529E-01
  0.990831683529E-01
  0.990831683649E-01
  0.990831683649E-01
  0.990831683442E-01
  0.990831683442E-01
  0.990831683742E-01
  0.990831683742E-01
  0.990831683353E-01
  0.990831683353E-01
  0.990831683645E-01
  0.990831683645E-01
  0.990831658617E-01
  0.990831666398E-01
  0.990831674452E-01
  0.990831661741E-01
  0.990831741763E-01
  0.990831696187E-01
  0.990831627095E-01
  0.990831674947E-01
 -0.189552146123E+00
 -0.189552149389E+00
 -0.189552149035E+00
 -0.189552144509E+00
 -0.189552151003E+00
 -0.189552155513E+00
 -0.189552141794E+00
 -0.189552136150E+00
 -0.189552155652E+00
 -0.189552152455E+00
 -0.189552140162E+00
 -0.189552148756E+00
 -0.189552148878E+00
 -0.189552148288E+00
 -0.189552149324E+00
 -0.189552143694E+00
 -0.189552146365E+00
 -0.189552148285E+00
 -0.189552145438E+00
 -0.189552149196E+00
 -0.189557926944E+00
 -0.189555520664E+00
 -0.882101505002E-01
 -0.882077888666E-01
 -0.882114726226E-01
 -0.882114698981E-01
 -0.882114722475E-01
 -0.882114708578E-01
 -0.882114694892E-01
 -0.882114722691E-01
 -0.882114732125E-01
 -0.882114740804E-01
 -0.882114691431E-01
 -0.882114653236E-01
 -0.882114774911E-01
 -0.882114827502E-01
 -0.882114623009E-01
 -0.882114527747E-01
 -0.882114884223E-01
 -0.882114863076E-01
 -0.882114595094E-01
 -0.882114571651E-01
 -0.882114710001E-01
 -0.882114864008E-01
  0.246228159182E+00
  0.246228157747E+00
  0.246228161758E+00
  0.246228151135E+00
  0.246228149502E+00
  0.246228155203E+00
  0.246228164800E+00
  0.246228164880E+00
  0.246228156685E+00
  0.246228156685E+00
  0.246228156652E+00
  0.246228156652E+00
  0.246228156695E+00
  0.246228156695E+00
  0.246228156662E+00
  0.246228156662E+00
  0.246228156685E+00
  0.246228156685E+00
  0.246228156672E+00
  0.246228156672E+00
  0.246228156661E+00
  0.246228156661E+00
  0.990831683429E-01
  0.990831683429E-01
  0.990831683529E-01
  0.990831683529E-01
  0.990831683649E-01
  0.990831683649E-01
  0.990831683442E-01
  0.990831683442E-01
  0.990831683742E-01
  0.990831683742E-01
  0.990831683353E-01
  0.990831683353E-01
  0.990831683645E-01
  0.990831683645E-01
  0.990831659614E-01
  0.990831658617E-01
  0.990831639510E-01
  0.990831674452E-01
  0.990831759661E-01
  0.990831741763E-01
  0.990831658536E-01
  0.990831627095E-01
 -0.189552149389E+00
 -0.189552152593E+00
 -0.189552144509E+00
 -0.189552142154E+00
 -0.189552155513E+00
 -0.189552154857E+00
 -0.189552136150E+00
 -0.189552138989E+00
 -0.189552152455E+00
 -0.189552155112E+00
 -0.189552148756E+00
 -0.189552141029E+00
 -0.189552148288E+00
 -0.189552149791E+00
 -0.189552143694E+00
 -0.189552149904E+00
 -0.189552148285E+00
 -0.189552147635E+00
 -0.189552149196E+00
 -0.189552146642E+00
 -0.189555520664E+00
 -0.189553357819E+00
 -0.882109405432E-01
 -0.882101505001E-01
 -0.882114724967E-01
 -0.882114726226E-01
 -0.882114727196E-01
 -0.882114722475E-01
 -0.882114719169E-01
 -0.882114694892E-01
 -0.882114735962E-01
 -0.882114732125E-01
 -0.882114655864E-01
 -0.882114691431E-01
 -0.882114798704E-01
 -0.882114774911E-01
 -0.882114527786E-01
 -0.882114623009E-01
 -0.882114925441E-01
 -0.882114884223E-01
 -0.882114606155E-01
 -0.882114595094E-01
 -0.882114795202E-01
 -0.882114710001E-01
  0.246228157747E+00
  0.246228164582E+00
  0.246228151135E+00
  0.246228158065E+00
  0.246228155203E+00
  0.246228148636E+00
  0.246228164880E+00
  0.246228164339E+00
  0.246228156685E+00
  0.246228156685E+00
  0.246228156652E+00
  0.246228156652E+00
  0.246228156695E+00
  0.246228156695E+00
  0.246228156662E+00
  0.246228156662E+00
  0.246228156685E+00
  0.246228156685E+00
  0.246228156672E+00
  0.246228156672E+00
  0.246228156661E+00
  0.246228156661E+00
  0.990831683429E-01
  0.990831683429E-01
  0.990831683529E-01
  0.990831683529E-01
  0.990831683649E-01
  0.990831683649E-01
  0.990831683442E-01
  0.990831683442E-01
  0.990831683742E-01
  0.990831683742E-01
  0.990831683353E-01
  0.990831683353E-01
  0.990831683645E-01
  0.990831683645E-01
  0.990831667986E-01
  0.990831659614E-01
  0.990831648863E-01
  0.990831639510E-01
  0.990831711376E-01
  0.990831759661E-01
  0.990831710968E-01
  0.990831658536E-01
 -0.189552152593E+00
 -0.189552155248E+00
 -0.189552142154E+00
 -0.189552141367E+00
 -0.189552154857E+00
 -0.189552154254E+00
 -0.189552138989E+00
 -0.189552140298E+00
 -0.189552155112E+00
 -0.189552150741E+00
 -0.189552141029E+00
 -0.189552145984E+00
 -0.189552149791E+00
 -0.189552149769E+00
 -0.189552149904E+00
 -0.189552147654E+00
 -0.189552147635E+00
 -0.189552148021E+00
 -0.189552146642E+00
 -0.189552148002E+00
 -0.189553357819E+00
 -0.189552634654E+00
 -0.882105729290E-01
 -0.882109405432E-01
 -0.882114716937E-01
 -0.882114724967E-01
 -0.882114724629E-01
 -0.882114727196E-01
 -0.882114724464E-01
 -0.882114719169E-01
 -0.882114739424E-01
 -0.882114735962E-01
 -0.882114667318E-01
 -0.882114655864E-01
 -0.882114778335E-01
 -0.882114798704E-01
 -0.882114698291E-01
 -0.882114527786E-01
 -0.882114776969E-01
 -0.882114925441E-01
 -0.882114619930E-01
 -0.882114606155E-01
 -0.882114793351E-01
 -0.882114795202E-01
  0.246228164582E+00
  0.246228171420E+00
  0.246228158065E+00
  0.246228152695E+00
  0.246228148636E+00
  0.246228154243E+00
  0.246228164339E+00
  0.246228156646E+00
  0.246228156685E+00
  0.246228156685E+00
  0.246228156652E+00
  0.246228156652E+00
  0.246228156695E+00
  0.246228156695E+00
  0.246228156662E+00
  0.246228156662E+00
  0.246228156685E+00
  0.246228156685E+00
  0.246228156672E+00
  0.246228156672E+00
  0.246228156661E+00
  0.246228156661E+00
  0.990831683429E-01
  0.990831683429E-01
  0.990831683529E-01
  0.990831683529E-01
  0.990831683649E-01
  0.990831683649E-01
  0.990831683442E-01
  0.990831683442E-01
  0.990831683742E-01
  0.990831683742E-01
  0.990831683353E-01
  0.990831683353E-01
  0.990831683645E-01
  0.990831683645E-01
  0.990831719006E-01
  0.990831667986E-01
  0.990831643311E-01
  0.990831648863E-01
  0.990831737994E-01
  0.990831711376E-01
  0.990831640885E-01
  0.990831710968E-01
 -0.189552155248E+00
 -0.189552153913E+00
 -0.189552141367E+00
 -0.189552142027E+00
 -0.189552154254E+00
 -0.189552154171E+00
 -0.189552140298E+00
 -0.189552135843E+00
 -0.189552150741E+00
 -0.189552157703E+00
 -0.189552145984E+00
 -0.189552146089E+00
 -0.189552149769E+00
 -0.189552148131E+00
 -0.189552147654E+00
 -0.189552145647E+00
 -0.189552148021E+00
 -0.189552147057E+00
 -0.189552148002E+00
 -0.189552147453E+00
 -0.189552634654E+00
 -0.189552970358E+00
 -0.882094520859E-01
 -0.882105729290E-01
 -0.882114704862E-01
 -0.882114716937E-01
 -0.882114703891E-01
 -0.882114724629E-01
 -0.882114709475E-01
 -0.882114724464E-01
 -0.882114725787E-01
 -0.882114739424E-01
 -0.882114698430E-01
 -0.882114667318E-01
 -0.882114770089E-01
 -0.882114778335E-01
 -0.882114549784E-01
 -0.882114698291E-01
 -0.882114897912E-01
 -0.882114776969E-01
 -0.882114638776E-01
 -0.882114619930E-01
 -0.882114779585E-01
 -0.882114793351E-01
  0.246228171420E+00
  0.246228170815E+00
  0.246228152695E+00
  0.246228151963E+00
  0.246228154243E+00
  0.246228154829E+00
  0.246228156646E+00
  0.246228156819E+00
  0.246228156685E+00
  0.246228156685E+00
  0.246228156652E+00
  0.246228156652E+00
  0.246228156695E+00
  0.246228156695E+00
  0.246228156662E+00
  0.246228156662E+00
  0.246228156685E+00
  0.246228156685E+00
  0.246228156672E+00
  0.246228156672E+00
  0.246228156661E+00
  0.246228156661E+00
  0.990831683429E-01
  0.990831683429E-01
  0.990831683529E-01
  0.990831683529E-01
  0.990831683649E-01
  0.990831683649E-01
  0.990831683442E-01
  0.990831683442E-01
  0.990831683742E-01
  0.990831683742E-01
  0.990831683353E-01
  0.990831683353E-01
  0.990831683645E-01
  0.990831683645E-01
  0.990831669807E-01
  0.990831719006E-01
  0.990831670323E-01
  0.990831643311E-01
  0.990831709109E-01
  0.990831737994E-01
  0.990831698511E-01
  0.990831640885E-01
 -0.189552153913E+00
 -0.189552154705E+00
 -0.189552142027E+00
 -0.189552143544E+00
 -0.189552154171E+00
 -0.189552152138E+00
 -0.189552135843E+00
 -0.189552141983E+00
 -0.189552157703E+00
 -0.189552151479E+00
 -0.189552146089E+00
 -0.189552144795E+00
 -0.189552148131E+00
 -0.189552148627E+00
 -0.189552145647E+00
 -0.189552146747E+00
 -0.189552147057E+00
 -0.189552148484E+00
 -0.189552147453E+00
 -0.189552148025E+00
 -0.189552970358E+00
 -0.189553997241E+00
 -0.882110495063E-01
 -0.882094520859E-01
 -0.882114713554E-01
 -0.882114704862E-01
 -0.882114714229E-01
 -0.882114703891E-01
 -0.882114688174E-01
 -0.882114709475E-01
 -0.882114708337E-01
 -0.882114725787E-01
 -0.882114697398E-01
 -0.882114698430E-01
 -0.882114784563E-01
 -0.882114770089E-01
 -0.882114713163E-01
 -0.882114549784E-01
 -0.882114744146E-01
 -0.882114897912E-01
 -0.882114629787E-01
 -0.882114638776E-01
 -0.882114747313E-01
 -0.882114779585E-01
  0.246228170815E+00
  0.246228159448E+00
  0.246228151963E+00
  0.246228156073E+00
  0.246228154829E+00
  0.246228149587E+00
  0.246228156819E+00
  0.246228165045E+00
  0.246228156685E+00
  0.246228156685E+00
  0.246228156652E+00
  0.246228156652E+00
  0.246228156695E+00
  0.246228156695E+00
  0.246228156662E+00
  0.246228156662E+00
  0.246228156685E+00
  0.246228156685E+00
  0.246228156672E+00
  0.246228156672E+00
  0.246228156661E+00
  0.246228156661E+00
  0.990831683429E-01
  0.990831683429E-01
  0.990831683529E-01
  0.990831683529E-01
  0.990831683649E-01
  0.990831683649E-01
  0.990831683442E-01
  0.990831683442E-01
  0.990831683742E-01
  0.990831683742E-01
  0.990831683353E-01
  0.990831683353E-01
  0.990831683645E-01
  0.990831683645E-01
  0.990831658892E-01
  0.990831669807E-01
  0.990831651581E-01
  0.990831670323E-01
  0.990831735525E-01
  0.990831709109E-01
  0.990831687110E-01
  0.990831698511E-01
 -0.189552154705E+00
 -0.189552152652E+00
 -0.189552143544E+00
 -0.189552143757E+00
 -0.189552152138E+00
 -0.189552152475E+00
 -0.189552141983E+00
 -0.189552143988E+00
 -0.189552151479E+00
 -0.189552148662E+00
 -0.189552144795E+00
 -0.189552145043E+00
 -0.189552148627E+00
 -0.189552149448E+00
 -0.189552146747E+00
 -0.189552149373E+00
 -0.189552148484E+00
 -0.189552148832E+00
 -0.189552148025E+00
 -0.189552147968E+00
 -0.189553997241E+00
 -0.189552534319E+00
 -0.882114291314E-01
 -0.882110495062E-01
 -0.882114702676E-01
 -0.882114713554E-01
 -0.882114709966E-01
 -0.882114714229E-01
 -0.882114707091E-01
 -0.882114688174E-01
 -0.882114738023E-01
 -0.882114708337E-01
 -0.882114658048E-01
 -0.882114697398E-01
 -0.882114786949E-01
 -0.882114784563E-01
 -0.882114621930E-01
 -0.882114713163E-01
 -0.882114833786E-01
 -0.882114744146E-01
 -0.882114636957E-01
 -0.882114629787E-01
 -0.882114736313E-01
 -0.882114747313E-01
  0.246228159448E+00
  0.246228158028E+00
  0.246228156073E+00
  0.246228151701E+00
  0.246228149587E+00
  0.246228155832E+00
  0.246228165045E+00
  0.246228164801E+00
  0.246228156685E+00
  0.246228156685E+00
  0.246228156652E+00
  0.246228156652E+00
  0.246228156695E+00
  0.246228156695E+00
  0.246228156662E+00
  0.246228156662E+00
  0.246228156685E+00
  0.246228156685E+00
  0.246228156672E+00
  0.246228156672E+00
  0.246228156661E+00
  0.246228156661E+00
  0.990831683429E-01
  0.990831683429E-01
  0.990831683529E-01
  0.990831683529E-01
  0.990831683649E-01
  0.990831683649E-01
  0.990831683442E-01
  0.990831683442E-01
  0.990831683742E-01
  0.990831683742E-01
  0.990831683353E-01
  0.990831683353E-01
  0.990831683645E-01
  0.990831683645E-01
  0.990831658787E-01
  0.990831658892E-01
  0.990831625025E-01
  0.990831651581E-01
  0.990831758891E-01
  0.990831735525E-01
  0.990831682300E-01
  0.990831687110E-01
 -0.189552152652E+00
 -0.189552148642E+00
 -0.189552143757E+00
 -0.189552146457E+00
 -0.189552152475E+00
 -0.189552155711E+00
 -0.189552143988E+00
 -0.189552137351E+00
 -0.189552148662E+00
 -0.189552152776E+00
 -0.189552145043E+00
 -0.189552146826E+00
 -0.189552149448E+00
 -0.189552150117E+00
 -0.189552149373E+00
 -0.189552147022E+00
 -0.189552148832E+00
 -0.189552147467E+00
 -0.189552147968E+00
 -0.189552148435E+00
 -0.189552534319E+00
 -0.189552186444E+00
 -0.882114072471E-01
 -0.882114291314E-01
 -0.882114711113E-01
 -0.882114702676E-01
 -0.882114711085E-01
 -0.882114709966E-01
 -0.882114718922E-01
 -0.882114707091E-01
 -0.882114720011E-01
 -0.882114738023E-01
 -0.882114687664E-01
 -0.882114658048E-01
 -0.882114744608E-01
 -0.882114786949E-01
 -0.882114569619E-01
 -0.882114621930E-01
 -0.882114895785E-01
 -0.882114833786E-01
 -0.882114637074E-01
 -0.882114636957E-01
 -0.882114803695E-01
 -0.882114736313E-01
  0.246228158028E+00
  0.246228166513E+00
  0.246228151701E+00
  0.246228151204E+00
  0.246228155832E+00
  0.246228155611E+00
  0.246228164801E+00
  0.246228164892E+00
  0.246228156685E+00
  0.246228156685E+00
  0.246228156652E+00
  0.246228156652E+00
  0.246228156695E+00
  0.246228156695E+00
  0.246228156662E+00
  0.246228156662E+00
  0.246228156685E+00
  0.246228156685E+00
  0.246228156672E+00
  0.246228156672E+00
  0.246228156661E+00
  0.246228156661E+00
  0.990831683429E-01
  0.990831683429E-01
  0.990831683529E-01
  0.990831683529E-01
  0.990831683649E-01
  0.990831683649E-01
  0.990831683442E-01
  0.990831683442E-01
  0.990831683742E-01
  0.990831683742E-01
  0.990831683353E-01
  0.990831683353E-01
  0.990831683645E-01
  0.990831683645E-01
  0.990831658809E-01
  0.990831658787E-01
  0.990831687784E-01
  0.990831625025E-01
  0.990831659197E-01
  0.990831758891E-01
  0.990831753415E-01
  0.990831682300E-01
 -0.189552148642E+00
 -0.189552155001E+00
 -0.189552146457E+00
 -0.189552141912E+00
 -0.189552155711E+00
 -0.189552153472E+00
 -0.189552137351E+00
 -0.189552140361E+00
 -0.189552152776E+00
 -0.189552156750E+00
 -0.189552146826E+00
 -0.189552143823E+00
 -0.189552150117E+00
 -0.189552147733E+00
 -0.189552147022E+00
 -0.189552147908E+00
 -0.189552147467E+00
 -0.189552148551E+00
 -0.189552148435E+00
 -0.189552148364E+00
 -0.189552186444E+00
 -0.189552206337E+00
 -0.882129440310E-01
 -0.882114072471E-01
 -0.882114742355E-01
 -0.882114711113E-01
 -0.882114718611E-01
 -0.882114711085E-01
 -0.882114713811E-01
 -0.882114718922E-01
 -0.882114699483E-01
 -0.882114720011E-01
 -0.882114717786E-01
 -0.882114687664E-01
 -0.882114718372E-01
 -0.882114744608E-01
 -0.882114669393E-01
 -0.882114569619E-01
 -0.882114745552E-01
 -0.882114895785E-01
 -0.882114709331E-01
 -0.882114637074E-01
 -0.882114743034E-01
 -0.882114803695E-01
  0.246228166513E+00
  0.246228160990E+00
  0.246228151204E+00
  0.246228156626E+00
  0.246228155611E+00
  0.246228149171E+00
  0.246228164892E+00
  0.246228164713E+00
  0.246228156685E+00
  0.246228156685E+00
  0.246228156652E+00
  0.246228156652E+00
  0.246228156695E+00
  0.246228156695E+00
  0.246228156662E+00
  0.246228156662E+00
  0.246228156685E+00
  0.246228156685E+00
  0.246228156672E+00
  0.246228156672E+00
  0.246228156661E+00
  0.246228156661E+00
  0.990831683429E-01
  0.990831683429E-01
  0.990831683529E-01
  0.990831683529E-01
  0.990831683649E-01
  0.990831683649E-01
  0.990831683442E-01
  0.990831683442E-01
  0.990831683742E-01
  0.990831683742E-01
  0.990831683353E-01
  0.990831683353E-01
  0.990831683645E-01
  0.990831683645E-01
  0.990831659639E-01
  0.990831658809E-01
  0.990831638865E-01
  0.990831687784E-01
  0.990831745321E-01
  0.990831659197E-01
  0.990831667476E-01
  0.990831753415E-01
 -0.189552155001E+00
 -0.189552149472E+00
 -0.189552141912E+00
 -0.189552146767E+00
 -0.189552153472E+00
 -0.189552145876E+00
 -0.189552140361E+00
 -0.189552152155E+00
 -0.189552156750E+00
 -0.189552145137E+00
 -0.189552143823E+00
 -0.189552149494E+00
 -0.189552147733E+00
 -0.189552147400E+00
 -0.189552147908E+00
 -0.189552148522E+00
 -0.189552148551E+00
 -0.189552147097E+00
 -0.189552148364E+00
 -0.189552146815E+00
 -0.189552206337E+00
 -0.189550799716E+00
 -0.882126497375E-01
 -0.882129440310E-01
 -0.882114736045E-01
 -0.882114742355E-01
 -0.882114729589E-01
 -0.882114718611E-01
 -0.882114729433E-01
 -0.882114713811E-01
 -0.882114748173E-01
 -0.882114699483E-01
 -0.882114687739E-01
 -0.882114717786E-01
 -0.882114694733E-01
 -0.882114718372E-01
 -0.882114867836E-01
 -0.882114669393E-01
 -0.882114562306E-01
 -0.882114745552E-01
 -0.882114761426E-01
 -0.882114709331E-01
 -0.882114698320E-01
 -0.882114743034E-01
  0.246228160990E+00
  0.246228158389E+00
  0.246228156626E+00
  0.246228158342E+00
  0.246228149171E+00
  0.246228148250E+00
  0.246228164713E+00
  0.246228164537E+00
  0.246228156685E+00
  0.246228156685E+00
  0.246228156652E+00
  0.246228156652E+00
  0.246228156695E+00
  0.246228156695E+00
  0.246228156662E+00
  0.246228156662E+00
  0.246228156685E+00
  0.246228156685E+00
  0.246228156672E+00
  0.246228156672E+00
  0.246228156661E+00
  0.246228156661E+00
  0.990831683429E-01
  0.990831683429E-01
  0.990831683529E-01
  0.990831683529E-01
  0.990831683649E-01
  0.990831683649E-01
  0.990831683442E-01
  0.990831683442E-01
  0.990831683742E-01
  0.990831683742E-01
  0.990831683353E-01
  0.990831683353E-01
  0.990831683645E-01
  0.990831683645E-01
  0.990831699299E-01
  0.990831659639E-01
  0.990831632773E-01
  0.990831638865E-01
  0.990831711197E-01
  0.990831745321E-01
  0.990831667125E-01
  0.990831667476E-01
 -0.189552149472E+00
 -0.189552148447E+00
 -0.189552146767E+00
 -0.189552148794E+00
 -0.189552145876E+00
 -0.189552143538E+00
 -0.189552152155E+00
 -0.189552150498E+00
 -0.189552145137E+00
 -0.189552149026E+00
 -0.189552149494E+00
 -0.189552147434E+00
 -0.189552147400E+00
 -0.189552149590E+00
 -0.189552148522E+00
 -0.189552145950E+00
 -0.189552147097E+00
 -0.189552145339E+00
 -0.189552146815E+00
 -0.189552144463E+00
 -0.189550799716E+00
 -0.189551067716E+00
 -0.882099179844E-01
 -0.882126497375E-01
 -0.882114828364E-01
 -0.882114736045E-01
 -0.882114762343E-01
 -0.882114729589E-01
 -0.882114751402E-01
 -0.882114729433E-01
 -0.882114735885E-01
 -0.882114748173E-01
 -0.882114696012E-01
 -0.882114687739E-01
 -0.882114868817E-01
 -0.882114694733E-01
 -0.882114457934E-01
 -0.882114867836E-01
 -0.882114815627E-01
 -0.882114562306E-01
 -0.882114720910E-01
 -0.882114761426E-01
 -0.882114735739E-01
 -0.882114698320E-01
  0.246228158389E+00
  0.246228161537E+00
  0.246228158342E+00
  0.246228157151E+00
  0.246228148250E+00
  0.246228148005E+00
  0.246228164537E+00
  0.246228164631E+00
  0.246228156685E+00
  0.246228156685E+00
  0.246228156652E+00
  0.246228156652E+00
  0.246228156695E+00
  0.246228156695E+00
  0.246228156662E+00
  0.246228156662E+00
  0.246228156685E+00
  0.246228156685E+00
  0.246228156672E+00
  0.246228156672E+00
  0.246228156661E+00
  0.246228156661E+00
  0.990831683429E-01
  0.990831683429E-01
  0.990831683529E-01
  0.990831683529E-01
  0.990831683649E-01
  0.990831683649E-01
  0.990831683442E-01
  0.990831683442E-01
  0.990831683742E-01
  0.990831683742E-01
  0.990831683353E-01
  0.990831683353E-01
  0.990831683645E-01
  0.990831683645E-01
  0.990831659831E-01
  0.990831699299E-01
  0.990831688108E-01
  0.990831632773E-01
  0.990831710125E-01
  0.990831711197E-01
  0.990831641374E-01
  0.990831667125E-01
 -0.189552148447E+00
 -0.189552148779E+00