# vtk DataFile Version 3.0
MachLine results file. Generated by MachLine, USU AeroLab (c) 2022.
ASCII
DATASET POLYDATA
POINTS                1127 float
  0.100000000000E+01  0.000000000000E+00  0.000000000000E+00
  0.973034464140E+00  0.105263157890E+00 -0.235917869390E-02
  0.100000000000E+01  0.105263157890E+00  0.000000000000E+00
  0.973034464140E+00  0.000000000000E+00 -0.235917869390E-02
  0.929717765040E+00  0.105263157890E+00 -0.614889880620E-02
  0.929717765040E+00  0.000000000000E+00 -0.614889880620E-02
  0.863184801440E+00  0.105263157890E+00 -0.119697788720E-01
  0.863184801440E+00  0.000000000000E+00 -0.119697788720E-01
  0.767714243180E+00  0.105263157890E+00 -0.203223704200E-01
  0.767714243180E+00  0.000000000000E+00 -0.203223704200E-01
  0.643290544900E+00  0.105263157890E+00 -0.312080334940E-01
  0.643290544900E+00  0.000000000000E+00 -0.312080334940E-01
  0.500000000000E+00  0.105263157890E+00 -0.437443317630E-01
  0.500000000000E+00  0.000000000000E+00 -0.437443317630E-01
  0.356709455100E+00  0.000000000000E+00 -0.312080334940E-01
  0.356709455100E+00  0.105263157890E+00 -0.312080334940E-01
  0.232285756820E+00  0.000000000000E+00 -0.203223704200E-01
  0.232285756820E+00  0.105263157890E+00 -0.203223704200E-01
  0.136815198560E+00  0.000000000000E+00 -0.119697788720E-01
  0.136815198560E+00  0.105263157890E+00 -0.119697788720E-01
  0.702822349590E-01  0.000000000000E+00 -0.614889880620E-02
  0.702822349590E-01  0.105263157890E+00 -0.614889880620E-02
  0.269655358630E-01  0.000000000000E+00 -0.235917869390E-02
  0.269655358630E-01  0.105263157890E+00 -0.235917869390E-02
  0.000000000000E+00  0.000000000000E+00  0.000000000000E+00
  0.000000000000E+00  0.105263157890E+00  0.000000000000E+00
  0.269655358630E-01  0.105263157890E+00  0.235917869390E-02
  0.269655358630E-01  0.000000000000E+00  0.235917869390E-02
  0.702822349590E-01  0.105263157890E+00  0.614889880620E-02
  0.702822349590E-01  0.000000000000E+00  0.614889880620E-02
  0.136815198560E+00  0.105263157890E+00  0.119697788720E-01
  0.136815198560E+00  0.000000000000E+00  0.119697788720E-01
  0.232285756820E+00  0.105263157890E+00  0.203223704200E-01
  0.232285756820E+00  0.000000000000E+00  0.203223704200E-01
  0.356709455100E+00  0.105263157890E+00  0.312080334940E-01
  0.356709455100E+00  0.000000000000E+00  0.312080334940E-01
  0.500000000000E+00  0.105263157890E+00  0.437443317630E-01
  0.500000000000E+00  0.000000000000E+00  0.437443317630E-01
  0.643290544900E+00  0.000000000000E+00  0.312080334940E-01
  0.643290544900E+00  0.105263157890E+00  0.312080334940E-01
  0.767714243180E+00  0.000000000000E+00  0.203223704200E-01
  0.767714243180E+00  0.105263157890E+00  0.203223704200E-01
  0.863184801440E+00  0.000000000000E+00  0.119697788720E-01
  0.863184801440E+00  0.105263157890E+00  0.119697788720E-01
  0.929717765040E+00  0.000000000000E+00  0.614889880620E-02
  0.929717765040E+00  0.105263157890E+00  0.614889880620E-02
  0.973034464140E+00  0.000000000000E+00  0.235917869390E-02
  0.973034464140E+00  0.105263157890E+00  0.235917869390E-02
  0.973034464140E+00  0.210526315790E+00 -0.235917869390E-02
  0.100000000000E+01  0.210526315790E+00  0.000000000000E+00
  0.929717765040E+00  0.210526315790E+00 -0.614889880620E-02
  0.863184801440E+00  0.210526315790E+00 -0.119697788720E-01
  0.767714243180E+00  0.210526315790E+00 -0.203223704200E-01
  0.643290544900E+00  0.210526315790E+00 -0.312080334940E-01
  0.500000000000E+00  0.210526315790E+00 -0.437443317630E-01
  0.356709455100E+00  0.210526315790E+00 -0.312080334940E-01
  0.232285756820E+00  0.210526315790E+00 -0.203223704200E-01
  0.136815198560E+00  0.210526315790E+00 -0.119697788720E-01
  0.702822349590E-01  0.210526315790E+00 -0.614889880620E-02
  0.269655358630E-01  0.210526315790E+00 -0.235917869390E-02
  0.000000000000E+00  0.210526315790E+00  0.000000000000E+00
  0.269655358630E-01  0.210526315790E+00  0.235917869390E-02
  0.702822349590E-01  0.210526315790E+00  0.614889880620E-02
  0.136815198560E+00  0.210526315790E+00  0.119697788720E-01
  0.232285756820E+00  0.210526315790E+00  0.203223704200E-01
  0.356709455100E+00  0.210526315790E+00  0.312080334940E-01
  0.500000000000E+00  0.210526315790E+00  0.437443317630E-01
  0.643290544900E+00  0.210526315790E+00  0.312080334940E-01
  0.767714243180E+00  0.210526315790E+00  0.203223704200E-01
  0.863184801440E+00  0.210526315790E+00  0.119697788720E-01
  0.929717765040E+00  0.210526315790E+00  0.614889880620E-02
  0.973034464140E+00  0.210526315790E+00  0.235917869390E-02
  0.973034464140E+00  0.315789473680E+00 -0.235917869390E-02
  0.100000000000E+01  0.315789473680E+00  0.000000000000E+00
  0.929717765040E+00  0.315789473680E+00 -0.614889880620E-02
  0.863184801440E+00  0.315789473680E+00 -0.119697788720E-01
  0.767714243180E+00  0.315789473680E+00 -0.203223704200E-01
  0.643290544900E+00  0.315789473680E+00 -0.312080334940E-01
  0.500000000000E+00  0.315789473680E+00 -0.437443317630E-01
  0.356709455100E+00  0.315789473680E+00 -0.312080334940E-01
  0.232285756820E+00  0.315789473680E+00 -0.203223704200E-01
  0.136815198560E+00  0.315789473680E+00 -0.119697788720E-01
  0.702822349590E-01  0.315789473680E+00 -0.614889880620E-02
  0.269655358630E-01  0.315789473680E+00 -0.235917869390E-02
  0.000000000000E+00  0.315789473680E+00  0.000000000000E+00
  0.269655358630E-01  0.315789473680E+00  0.235917869390E-02
  0.702822349590E-01  0.315789473680E+00  0.614889880620E-02
  0.136815198560E+00  0.315789473680E+00  0.119697788720E-01
  0.232285756820E+00  0.315789473680E+00  0.203223704200E-01
  0.356709455100E+00  0.315789473680E+00  0.312080334940E-01
  0.500000000000E+00  0.315789473680E+00  0.437443317630E-01
  0.643290544900E+00  0.315789473680E+00  0.312080334940E-01
  0.767714243180E+00  0.315789473680E+00  0.203223704200E-01
  0.863184801440E+00  0.315789473680E+00  0.119697788720E-01
  0.929717765040E+00  0.315789473680E+00  0.614889880620E-02
  0.973034464140E+00  0.315789473680E+00  0.235917869390E-02
  0.973034464140E+00  0.421052631580E+00 -0.235917869390E-02
  0.100000000000E+01  0.421052631580E+00  0.000000000000E+00
  0.929717765040E+00  0.421052631580E+00 -0.614889880620E-02
  0.863184801440E+00  0.421052631580E+00 -0.119697788720E-01
  0.767714243180E+00  0.421052631580E+00 -0.203223704200E-01
  0.643290544900E+00  0.421052631580E+00 -0.312080334940E-01
  0.500000000000E+00  0.421052631580E+00 -0.437443317630E-01
  0.356709455100E+00  0.421052631580E+00 -0.312080334940E-01
  0.232285756820E+00  0.421052631580E+00 -0.203223704200E-01
  0.136815198560E+00  0.421052631580E+00 -0.119697788720E-01
  0.702822349590E-01  0.421052631580E+00 -0.614889880620E-02
  0.269655358630E-01  0.421052631580E+00 -0.235917869390E-02
  0.000000000000E+00  0.421052631580E+00  0.000000000000E+00
  0.269655358630E-01  0.421052631580E+00  0.235917869390E-02
  0.702822349590E-01  0.421052631580E+00  0.614889880620E-02
  0.136815198560E+00  0.421052631580E+00  0.119697788720E-01
  0.232285756820E+00  0.421052631580E+00  0.203223704200E-01
  0.356709455100E+00  0.421052631580E+00  0.312080334940E-01
  0.500000000000E+00  0.421052631580E+00  0.437443317630E-01
  0.643290544900E+00  0.421052631580E+00  0.312080334940E-01
  0.767714243180E+00  0.421052631580E+00  0.203223704200E-01
  0.863184801440E+00  0.421052631580E+00  0.119697788720E-01
  0.929717765040E+00  0.421052631580E+00  0.614889880620E-02
  0.973034464140E+00  0.421052631580E+00  0.235917869390E-02
  0.973034464140E+00  0.526315789470E+00 -0.235917869390E-02
  0.100000000000E+01  0.526315789470E+00  0.000000000000E+00
  0.929717765040E+00  0.526315789470E+00 -0.614889880620E-02
  0.863184801440E+00  0.526315789470E+00 -0.119697788720E-01
  0.767714243180E+00  0.526315789470E+00 -0.203223704200E-01
  0.643290544900E+00  0.526315789470E+00 -0.312080334940E-01
  0.500000000000E+00  0.526315789470E+00 -0.437443317630E-01
  0.356709455100E+00  0.526315789470E+00 -0.312080334940E-01
  0.232285756820E+00  0.526315789470E+00 -0.203223704200E-01
  0.136815198560E+00  0.526315789470E+00 -0.119697788720E-01
  0.702822349590E-01  0.526315789470E+00 -0.614889880620E-02
  0.269655358630E-01  0.526315789470E+00 -0.235917869390E-02
  0.000000000000E+00  0.526315789470E+00  0.000000000000E+00
  0.269655358630E-01  0.526315789470E+00  0.235917869390E-02
  0.702822349590E-01  0.526315789470E+00  0.614889880620E-02
  0.136815198560E+00  0.526315789470E+00  0.119697788720E-01
  0.232285756820E+00  0.526315789470E+00  0.203223704200E-01
  0.356709455100E+00  0.526315789470E+00  0.312080334940E-01
  0.500000000000E+00  0.526315789470E+00  0.437443317630E-01
  0.643290544900E+00  0.526315789470E+00  0.312080334940E-01
  0.767714243180E+00  0.526315789470E+00  0.203223704200E-01
  0.863184801440E+00  0.526315789470E+00  0.119697788720E-01
  0.929717765040E+00  0.526315789470E+00  0.614889880620E-02
  0.973034464140E+00  0.526315789470E+00  0.235917869390E-02
  0.973034464140E+00  0.631578947370E+00 -0.235917869390E-02
  0.100000000000E+01  0.631578947370E+00  0.000000000000E+00
  0.929717765040E+00  0.631578947370E+00 -0.614889880620E-02
  0.863184801440E+00  0.631578947370E+00 -0.119697788720E-01
  0.767714243180E+00  0.631578947370E+00 -0.203223704200E-01
  0.643290544900E+00  0.631578947370E+00 -0.312080334940E-01
  0.500000000000E+00  0.631578947370E+00 -0.437443317630E-01
  0.356709455100E+00  0.631578947370E+00 -0.312080334940E-01
  0.232285756820E+00  0.631578947370E+00 -0.203223704200E-01
  0.136815198560E+00  0.631578947370E+00 -0.119697788720E-01
  0.702822349590E-01  0.631578947370E+00 -0.614889880620E-02
  0.269655358630E-01  0.631578947370E+00 -0.235917869390E-02
  0.000000000000E+00  0.631578947370E+00  0.000000000000E+00
  0.269655358630E-01  0.631578947370E+00  0.235917869390E-02
  0.702822349590E-01  0.631578947370E+00  0.614889880620E-02
  0.136815198560E+00  0.631578947370E+00  0.119697788720E-01
  0.232285756820E+00  0.631578947370E+00  0.203223704200E-01
[...]
CELL_DATA                2176
SCALARS C_p_ise float 1
LOOKUP_TABLE default
 -0.320045060430E-01
 -0.320045076417E-01
 -0.320045083790E-01
 -0.320045083790E-01
 -0.320045083829E-01
 -0.320045083829E-01
 -0.320045083814E-01
 -0.320045083814E-01
 -0.320045083850E-01
 -0.320045083850E-01
 -0.320045083820E-01
 -0.320045083820E-01
  0.114426811029E+00
  0.114426811029E+00
  0.114426811035E+00
  0.114426811035E+00
  0.114426811028E+00
  0.114426811028E+00
  0.114426811030E+00
  0.114426811030E+00
  0.114426811031E+00
  0.114426811031E+00
  0.114426811030E+00
  0.114426811030E+00
  0.428375013386E-01
  0.428375013386E-01
  0.428375013398E-01
  0.428375013398E-01
  0.428375013381E-01
  0.428375013381E-01
  0.428375013367E-01
  0.428375013367E-01
  0.428375013430E-01
  0.428375013430E-01
  0.428375013378E-01
  0.428375013378E-01
 -0.623357059935E-01
 -0.623357059935E-01
 -0.623357059955E-01
 -0.623357059955E-01
 -0.623357059931E-01
 -0.623357059931E-01
 -0.623357059941E-01
 -0.623357059941E-01
 -0.623357059914E-01
 -0.623357059914E-01
 -0.623357066463E-01
 -0.623357080375E-01
 -0.320047519185E-01
 -0.320045060430E-01
 -0.320045083790E-01
 -0.320045083790E-01
 -0.320045083829E-01
 -0.320045083829E-01
 -0.320045083814E-01
 -0.320045083814E-01
 -0.320045083850E-01
 -0.320045083850E-01
 -0.320045083820E-01
 -0.320045083820E-01
  0.114426811029E+00
  0.114426811029E+00
  0.114426811035E+00
  0.114426811035E+00
  0.114426811028E+00
  0.114426811028E+00
  0.114426811030E+00
  0.114426811030E+00
  0.114426811031E+00
  0.114426811031E+00
  0.114426811030E+00
  0.114426811030E+00
  0.428375013386E-01
  0.428375013386E-01
  0.428375013398E-01
  0.428375013398E-01
  0.428375013381E-01
  0.428375013381E-01
  0.428375013367E-01
  0.428375013367E-01
  0.428375013430E-01
  0.428375013430E-01
  0.428375013378E-01
  0.428375013378E-01
 -0.623357059935E-01
 -0.623357059935E-01
 -0.623357059955E-01
 -0.623357059955E-01
 -0.623357059931E-01
 -0.623357059931E-01
 -0.623357059941E-01
 -0.623357059941E-01
 -0.623357059914E-01
 -0.623357059914E-01
 -0.623357080375E-01
 -0.623354940686E-01
 -0.320046876416E-01
 -0.320047519185E-01
 -0.320045083790E-01
 -0.320045083790E-01
 -0.320045083829E-01
 -0.320045083829E-01
 -0.320045083814E-01
 -0.320045083814E-01
 -0.320045083850E-01
 -0.320045083850E-01
 -0.320045083820E-01
 -0.320045083820E-01
  0.114426811029E+00
  0.114426811029E+00
  0.114426811035E+00
  0.114426811035E+00
  0.114426811028E+00
  0.114426811028E+00
  0.114426811030E+00
  0.114426811030E+00
  0.114426811031E+00
  0.114426811031E+00
  0.114426811030E+00
  0.114426811030E+00
  0.428375013386E-01
  0.428375013386E-01
  0.428375013398E-01
  0.428375013398E-01
  0.428375013381E-01
  0.428375013381E-01
  0.428375013367E-01
  0.428375013367E-01
  0.428375013430E-01
  0.428375013430E-01
  0.428375013378E-01
  0.428375013378E-01
 -0.623357059935E-01
 -0.623357059935E-01
 -0.623357059955E-01
 -0.623357059955E-01
 -0.623357059931E-01
 -0.623357059931E-01
 -0.623357059941E-01
 -0.623357059941E-01
 -0.623357059914E-01
 -0.623357059914E-01
 -0.623354940686E-01
 -0.623355500045E-01
 -0.320046749472E-01
 -0.320046876416E-01
 -0.320045083790E-01
 -0.320045083790E-01
 -0.320045083829E-01
 -0.320045083829E-01
 -0.320045083814E-01
 -0.320045083814E-01
 -0.320045083850E-01
 -0.320045083850E-01
 -0.320045083820E-01
 -0.320045083820E-01
  0.114426811029E+00
  0.114426811029E+00
  0.114426811035E+00
  0.114426811035E+00
  0.114426811028E+00
  0.114426811028E+00
  0.114426811030E+00
  0.114426811030E+00
  0.114426811031E+00
  0.114426811031E+00
  0.114426811030E+00
  0.114426811030E+00
  0.428375013386E-01
  0.428375013386E-01
  0.428375013398E-01
  0.428375013398E-01
  0.428375013381E-01
  0.428375013381E-01
  0.428375013367E-01
  0.428375013367E-01
  0.428375013430E-01
  0.428375013430E-01
  0.428375013378E-01
  0.428375013378E-01
 -0.623357059935E-01
 -0.623357059935E-01
 -0.623357059955E-01
 -0.623357059955E-01
 -0.623357059931E-01
 -0.623357059931E-01
 -0.623357059941E-01
 -0.623357059941E-01
 -0.623357059914E-01
 -0.623357059914E-01
 -0.623355500045E-01
 -0.623355610516E-01
 -0.320045859982E-01
 -0.320046749472E-01
 -0.320045083790E-01
 -0.320045083790E-01
 -0.320045083829E-01
 -0.320045083829E-01
 -0.320045083814E-01
 -0.320045083814E-01
 -0.320045083850E-01
 -0.320045083850E-01
 -0.320045083820E-01
 -0.320045083820E-01
  0.114426811029E+00
  0.114426811029E+00
  0.114426811035E+00
  0.114426811035E+00
  0.114426811028E+00
  0.114426811028E+00
  0.114426811030E+00
  0.114426811030E+00
  0.114426811031E+00
  0.114426811031E+00
  0.114426811030E+00
  0.114426811030E+00
  0.428375013386E-01
  0.428375013386E-01
  0.428375013398E-01
  0.428375013398E-01
  0.428375013381E-01
  0.428375013381E-01
  0.428375013367E-01
  0.428375013367E-01
  0.428375013430E-01
  0.428375013430E-01
  0.428375013378E-01
  0.428375013378E-01
 -0.623357059935E-01
 -0.623357059935E-01
 -0.623357059955E-01
 -0.623357059955E-01
 -0.623357059931E-01
 -0.623357059931E-01
 -0.623357059941E-01
 -0.623357059941E-01
 -0.623357059914E-01
 -0.623357059914E-01
 -0.623355610516E-01
 -0.623356384580E-01
 -0.320045408763E-01
 -0.320045859982E-01
 -0.320045083790E-01
 -0.320045083790E-01
 -0.320045083829E-01
 -0.320045083829E-01
 -0.320045083814E-01
 -0.320045083814E-01
 -0.320045083850E-01
 -0.320045083850E-01
 -0.320045083820E-01
 -0.320045083820E-01
  0.114426811029E+00
  0.114426811029E+00
  0.114426811035E+00
  0.114426811035E+00
  0.114426811028E+00
  0.114426811028E+00
  0.114426811030E+00
  0.114426811030E+00
  0.114426811031E+00
  0.114426811031E+00
  0.114426811030E+00
  0.114426811030E+00
  0.428375013386E-01
  0.428375013386E-01
  0.428375013398E-01
  0.428375013398E-01
  0.428375013381E-01
  0.428375013381E-01
  0.428375013367E-01
  0.428375013367E-01
  0.428375013430E-01
  0.428375013430E-01
  0.428375013378E-01
  0.428375013378E-01
 -0.623357059935E-01
 -0.623357059935E-01
 -0.623357059955E-01
 -0.623357059955E-01
 -0.623357059931E-01
 -0.623357059931E-01
 -0.623357059941E-01
 -0.623357059941E-01
 -0.623357059914E-01
 -0.623357059914E-01
 -0.623356384580E-01
 -0.623356777245E-01
 -0.320046706612E-01
 -0.320045408763E-01
 -0.320045083796E-01
 -0.320045083790E-01
 -0.320045083831E-01
 -0.320045083829E-01
 -0.320045083815E-01
 -0.320045083814E-01
 -0.320045083850E-01
 -0.320045083850E-01
 -0.320045083820E-01
 -0.320045083820E-01
  0.114426811029E+00
  0.114426811029E+00
  0.114426811035E+00
  0.114426811035E+00
  0.114426811028E+00
  0.114426811028E+00
  0.114426811030E+00
  0.114426811030E+00
  0.114426811031E+00
  0.114426811031E+00
  0.114426811030E+00
  0.114426811030E+00
  0.428375013386E-01
  0.428375013386E-01
  0.428375013398E-01
  0.428375013398E-01
  0.428375013381E-01
  0.428375013381E-01
  0.428375013367E-01
  0.428375013367E-01
  0.428375013430E-01
  0.428375013430E-01
  0.428375013378E-01
  0.428375013378E-01
 -0.623357059935E-01
 -0.623357059935E-01
 -0.623357059955E-01
 -0.623357059955E-01
 -0.623357059931E-01
 -0.623357059930E-01
 -0.623357059941E-01
 -0.623357059939E-01
 -0.623357059914E-01
 -0.623357059909E-01
 -0.623356777245E-01
 -0.623355647814E-01
 -0.320045629534E-01
 -0.320046706612E-01
 -0.320045083902E-01
 -0.320045083796E-01
 -0.320045083863E-01
 -0.320045083831E-01
 -0.320045083824E-01
 -0.320045083815E-01
 -0.320045083851E-01
 -0.320045083850E-01
 -0.320045083821E-01
 -0.320045083820E-01
  0.114426811029E+00
  0.114426811029E+00
  0.114426811035E+00
  0.114426811035E+00
  0.114426811028E+00
  0.114426811028E+00
  0.114426811030E+00
  0.114426811030E+00
  0.114426811031E+00
  0.114426811031E+00
  0.114426811030E+00
  0.114426811030E+00
  0.428375013386E-01
  0.428375013386E-01
  0.428375013398E-01
  0.428375013398E-01
  0.428375013381E-01
  0.428375013381E-01
  0.428375013367E-01
  0.428375013367E-01
  0.428375013430E-01
  0.428375013430E-01
  0.428375013378E-01
  0.428375013378E-01
 -0.623357059935E-01
 -0.623357059934E-01
 -0.623357059955E-01
 -0.623357059954E-01
 -0.623357059930E-01
 -0.623357059921E-01
 -0.623357059939E-01
 -0.623357059911E-01
 -0.623357059909E-01
 -0.623357059810E-01
 -0.623355647814E-01
 -0.623356585133E-01
 -0.320045829940E-01
 -0.320045629534E-01
 -0.320045085781E-01
 -0.320045083902E-01
 -0.320045084458E-01
 -0.320045083863E-01
 -0.320045083987E-01
 -0.320045083824E-01
 -0.320045083882E-01
 -0.320045083851E-01
 -0.320045083838E-01
 -0.320045083821E-01
  0.114426811029E+00
  0.114426811029E+00
  0.114426811035E+00
  0.114426811035E+00
  0.114426811028E+00
  0.114426811028E+00
  0.114426811030E+00
  0.114426811029E+00
  0.114426811031E+00
  0.114426811031E+00
  0.114426811030E+00
  0.114426811030E+00
  0.428375013386E-01
  0.428375013386E-01
  0.428375013398E-01
  0.428375013398E-01
  0.428375013381E-01
  0.428375013381E-01
  0.428375013368E-01
  0.428375013367E-01
  0.428375013431E-01
  0.428375013430E-01
  0.428375013385E-01
  0.428375013378E-01
 -0.623357059934E-01
 -0.623357059920E-01
 -0.623357059954E-01
 -0.623357059927E-01
 -0.623357059921E-01
 -0.623357059755E-01
 -0.623357059911E-01
 -0.623357059400E-01
 -0.623357059810E-01
 -0.623357058074E-01
 -0.623356585133E-01
 -0.623356410886E-01
 -0.320045622681E-01
 -0.320045829940E-01
 -0.320045117233E-01
 -0.320045085781E-01
 -0.320045094650E-01
 -0.320045084458E-01
 -0.320045086876E-01
 -0.320045083987E-01
 -0.320045084441E-01
 -0.320045083882E-01
 -0.320045084157E-01
 -0.320045083838E-01
  0.114426811029E+00
  0.114426811020E+00
  0.114426811035E+00
  0.114426811032E+00
  0.114426811028E+00
  0.114426811027E+00
  0.114426811029E+00
  0.114426811029E+00
  0.114426811031E+00
  0.114426811031E+00
  0.114426811030E+00
  0.114426811030E+00
  0.428375013386E-01
  0.428375013386E-01
  0.428375013400E-01
  0.428375013398E-01
  0.428375013386E-01
  0.428375013381E-01
  0.428375013379E-01
  0.428375013368E-01
  0.428375013452E-01
  0.428375013431E-01
  0.428375013512E-01
  0.428375013385E-01
 -0.623357059920E-01
 -0.623357059658E-01
 -0.623357059927E-01
 -0.623357059448E-01
 -0.623357059755E-01
 -0.623357056809E-01
 -0.623357059400E-01
 -0.623357050387E-01
 -0.623357058074E-01
 -0.623357028435E-01
 -0.623356410886E-01
 -0.623356594101E-01
 -0.320051624557E-01
 -0.320045622681E-01
 -0.320045621005E-01
 -0.320045117233E-01
 -0.320045271330E-01
 -0.320045094650E-01
 -0.320045136533E-01
 -0.320045086876E-01
 -0.320045093913E-01
 -0.320045084441E-01
 -0.320045089655E-01
 -0.320045084157E-01
  0.114426811020E+00
  0.114426810863E+00
  0.114426811032E+00
  0.114426810976E+00
  0.114426811027E+00
  0.114426811011E+00
  0.114426811029E+00
  0.114426811022E+00
  0.114426811031E+00
  0.114426811029E+00
  0.114426811030E+00
  0.114426811030E+00
  0.428375013389E-01
  0.428375013386E-01
  0.428375013422E-01
  0.428375013400E-01
  0.428375013469E-01
  0.428375013386E-01
  0.428375013581E-01
  0.428375013379E-01
  0.428375013835E-01
  0.428375013452E-01
  0.428375015798E-01
  0.428375013512E-01
 -0.623357059658E-01
 -0.623357054844E-01
 -0.623357059448E-01
 -0.623357050633E-01
 -0.623357056809E-01
 -0.623357006985E-01
 -0.623357050387E-01
 -0.623356908240E-01
 -0.623357028435E-01
 -0.623356570334E-01
 -0.623356594101E-01
 -0.623351404160E-01
 -0.320134661284E-01
 -0.320051624558E-01
 -0.320052825083E-01
 -0.320045621006E-01
 -0.320047740784E-01
 -0.320045271330E-01
 -0.320045919099E-01
 -0.320045136533E-01
 -0.320045259685E-01
 -0.320045093913E-01
 -0.320045187829E-01
 -0.320045089655E-01
  0.114426810863E+00
  0.114426808099E+00
  0.114426810976E+00
  0.114426810011E+00
  0.114426811011E+00
  0.114426810725E+00
  0.114426811022E+00
  0.114426810886E+00
  0.114426811029E+00
  0.114426810986E+00
  0.114426811030E+00
  0.114426811022E+00
  0.428375013462E-01
  0.428375013389E-01
  0.428375013867E-01
  0.428375013422E-01
  0.428375015068E-01
  0.428375013469E-01
  0.428375017368E-01
  0.428375013581E-01
  0.428375020970E-01
  0.428375013835E-01
  0.428375056256E-01
  0.428375015798E-01
 -0.623357054844E-01
 -0.623356979123E-01
 -0.623357050633E-01
 -0.623356905102E-01
 -0.623357006985E-01
 -0.623356195620E-01
 -0.623356908240E-01
 -0.623354584192E-01
 -0.623356570335E-01
 -0.623349533783E-01
 -0.623351404161E-01
 -0.623280122579E-01
 -0.320972665051E-01
 -0.320134661453E-01
 -0.320144261336E-01
 -0.320052825137E-01
 -0.320091745198E-01
 -0.320047740792E-01
 -0.320057902676E-01
 -0.320045919100E-01
 -0.320047718365E-01
 -0.320045259685E-01
 -0.320046590911E-01
 -0.320045187829E-01
  0.114426808099E+00
  0.114426760363E+00
  0.114426810011E+00
  0.114426792346E+00
  0.114426810725E+00
  0.114426805401E+00
  0.114426810886E+00
  0.114426808307E+00
  0.114426810986E+00
  0.114426810133E+00
  0.114426811022E+00
  0.114426810858E+00
  0.428375015032E-01
  0.428375013462E-01
  0.428375022398E-01
  0.428375013867E-01
  0.428375043045E-01
  0.428375015068E-01
  0.428375081200E-01
  0.428375017368E-01
  0.428375140489E-01
  0.428375020970E-01
  0.428375716792E-01
  0.428375056256E-01
 -0.623356979123E-01
 -0.623355589629E-01
 -0.623356905102E-01
 -0.623354537083E-01
 -0.623356195621E-01
 -0.623345238900E-01
 -0.623354584199E-01
 -0.623326893477E-01
 -0.623349533815E-01
 -0.623270269576E-01
 -0.623280122694E-01
 -0.622543825128E-01
 -0.328238196909E-01
 -0.320972677494E-01
 -0.321023005120E-01
 -0.320144264904E-01
 -0.320335654321E-01
 -0.320091746390E-01
 -0.320196995359E-01
 -0.320057902867E-01
 -0.320081050670E-01
 -0.320047718419E-01
 -0.320071809073E-01
 -0.320046590914E-01
  0.114426760363E+00
  0.114426018546E+00
  0.114426792346E+00
  0.114426539907E+00
  0.114426805401E+00
  0.114426720259E+00
  0.114426808307E+00
  0.114426766074E+00
  0.114426810133E+00
  0.114426794374E+00
  0.114426810858E+00
  0.114426807353E+00
  0.428375048834E-01
  0.428375015032E-01
  0.428375189433E-01
  0.428375022398E-01
  0.428375572269E-01
  0.428375043045E-01
  0.428376259664E-01
  0.428375081200E-01
  0.428377308642E-01
  0.428375140489E-01
  0.428386256286E-01
  0.428375716784E-01
 -0.623355589634E-01
 -0.623340611720E-01
 -0.623354537115E-01
 -0.623315093069E-01
 -0.623345239086E-01
 -0.623156277606E-01
 -0.623326895378E-01
 -0.622939826462E-01
 -0.623270277002E-01
 -0.622483965196E-01
 -0.622543843810E-01
 -0.616672749243E-01
 -0.351601098770E-01
 -0.328239740235E-01
 -0.323842165425E-01
 -0.321024252661E-01
 -0.326308235712E-01
 -0.320335887594E-01
 -0.321978010826E-01
 -0.320197040161E-01
 -0.320813832418E-01
 -0.320081055182E-01
 -0.320255971535E-01
 -0.320071809714E-01
  0.114426018425E+00
  0.114414948509E+00
  0.114426539893E+00
  0.114421796403E+00
  0.114426720258E+00
  0.114425142283E+00
  0.114426766074E+00
  0.114425946016E+00
  0.114426794374E+00
  0.114426481217E+00
  0.114426807353E+00
  0.114426731253E+00
  0.428375767428E-01
  0.428375048834E-01
  0.428378076426E-01
  0.428375189433E-01
  0.428383156200E-01
  0.428375572268E-01
  0.428391705420E-01
  0.428376259655E-01
  0.428405774519E-01
  0.428377308578E-01
  0.428528965120E-01
  0.428386254912E-01
 -0.623340612499E-01
 -0.623019890058E-01
 -0.623315103933E-01
 -0.623269691622E-01
 -0.623156288802E-01
 -0.622751164381E-01
 -0.622939850986E-01
 -0.620842343097E-01
 -0.622484114144E-01
 -0.614360495293E-01
 -0.616673581759E-01
 -0.589378323920E-01
 -0.481894105033E-01
 -0.351644719733E-01
 -0.385968259332E-01
 -0.323847603134E-01
 -0.350238202345E-01
 -0.326306989094E-01
 -0.320681987326E-01
 -0.321977868983E-01
 -0.315509512957E-01
 -0.320815645702E-01
 -0.324862400464E-01
 -0.320256060669E-01
  0.114414932279E+00
  0.114270748075E+00
  0.114421795326E+00
  0.114384599539E+00
  0.114425142148E+00
  0.114407714156E+00
  0.114425946000E+00
  0.114416451730E+00
  0.114426481216E+00
  0.114421790397E+00
  0.114426731253E+00
  0.114425161435E+00
  0.428391801768E-01
  0.428375767427E-01
  0.428438079706E-01
  0.428378076407E-01
  0.428539415300E-01
  0.428383155836E-01
  0.428702069790E-01
  0.428391701684E-01
  0.428934415774E-01
  0.428405750656E-01
  0.430118408817E-01
  0.428528736914E-01
 -0.623020013802E-01
 -0.622463577135E-01
 -0.623269928614E-01
 -0.608820896097E-01
 -0.622763311786E-01
 -0.598938439060E-01
 -0.620895021274E-01
 -0.632988437562E-01
 -0.614394724308E-01
 -0.644183597891E-01
 -0.589387759397E-01
 -0.578247830698E-01
 -0.752497279925E-01
 -0.485147022954E-01
 -0.467696506094E-01
 -0.388890100387E-01
 -0.558089312420E-01
 -0.351244097582E-01
 -0.375727956947E-01
 -0.321244855906E-01
 -0.441507129611E-01
 -0.315513510072E-01
 -0.306603189887E-01
 -0.324865196292E-01
  0.114269942309E+00
  0.114063757683E+00
  0.114384017650E+00
  0.113510050631E+00
  0.114407644277E+00
  0.114027151573E+00
  0.114416442133E+00
  0.114185439897E+00
  0.114421789637E+00
  0.114306993036E+00
  0.114425161412E+00
  0.114386219321E+00
  0.428687706177E-01
  0.428391801640E-01
  0.429087379302E-01
  0.428438077080E-01
  0.429611134782E-01
  0.428539392071E-01
  0.430245603460E-01
  0.428701939373E-01
  0.432524175737E-01
  0.428933428669E-01
  0.454813033999E-01
  0.430082432744E-01
 -0.622484583073E-01
 -0.600197479953E-01
 -0.608908018997E-01
 -0.718011225668E-01
 -0.599064146339E-01
 -0.595770853809E-01
 -0.633115358456E-01
 -0.711674459857E-01
 -0.644633692562E-01
 -0.621766890634E-01
 -0.578644649876E-01
 -0.458453109769E-01
 -0.119444883025E+00
 -0.762473898822E-01
 -0.506731627005E-01
 -0.481217204806E-01
 -0.669930893353E-01
 -0.568617561606E-01
 -0.509154678011E-01
 -0.385237132559E-01
 -0.559773028596E-01
 -0.446981928382E-01
 -0.477307882252E-01
 -0.308305385413E-01
  0.113771479193E+00
  0.916387724065E-01
  0.113505486545E+00
  0.110456501707E+00
  0.114026993700E+00
  0.113605208855E+00
  0.114185390139E+00
  0.113860284287E+00
  0.114306977258E+00
  0.113931069827E+00
  0.114386216707E+00
  0.113972305051E+00
  0.438979519712E-01
  0.428687551423E-01
  0.451846793224E-01
  0.429084181709E-01
  0.467870836280E-01
  0.429582175785E-01
  0.486088594766E-01
  0.430079448421E-01
  0.425843311311E-01
  0.432386365177E-01
  0.302900472766E-01
  0.454425651533E-01
 -0.600328505585E-01
 -0.656576773524E-01
 -0.718597797574E-01
 -0.728946487076E-01
 -0.596565088856E-01
 -0.657291545930E-01
 -0.712748044653E-01
 -0.673645903640E-01
 -0.622645562406E-01
 -0.390229391480E-01
 -0.458652913052E-01
  0.786136736953E-01
 -0.982115578583E-01
 -0.119000613789E+00
 -0.650325305270E-01
 -0.503209027305E-01
 -0.470607663496E-01
 -0.672389325144E-01
 -0.385745324616E-01
 -0.520715764788E-01
 -0.396007135457E-01
 -0.587188939639E-01
 -0.539317103175E-01
 -0.507510751459E-01
  0.851999732326E-01
  0.662395257042E-01
  0.105848815854E+00
  0.699073328472E-01
  0.111539331505E+00
  0.718175600775E-01
  0.113135165603E+00
  0.720700054057E-01
  0.113739627542E+00
  0.722999555590E-01
  0.113944110490E+00
  0.723594027977E-01
  0.343949422506E-01
  0.438965931280E-01
  0.335821342396E-01
  0.451727377631E-01
  0.323274490129E-01
  0.467256703597E-01
  0.303384086689E-01
  0.483606370247E-01
  0.298417805400E-01
  0.420806152845E-01
  0.257723856415E-01
  0.296803501909E-01
 -0.659544706728E-01
 -0.604979105002E-01
 -0.730316786969E-01
 -0.324943844706E-01
 -0.656628978099E-01
 -0.753666223112E-02
 -0.685053455056E-01
  0.137694698693E-01
 -0.434244684061E-01
  0.459160089116E-01
  0.671368186471E-01
  0.120737482770E+00
 -0.109291253302E+00
 -0.836432210531E-01
 -0.715897158158E-01
 -0.576193786414E-01
 -0.510140663932E-01
 -0.415134290962E-01
 -0.427707164349E-01
 -0.415616759028E-01
 -0.445841688937E-01
 -0.554292213358E-01
 -0.586517249215E-01
  0.458763750508E-01
  0.457805054630E-01
  0.467375883204E-01
  0.467378982005E-01
  0.474110414232E-01
  0.475979631494E-01
  0.476140743201E-01
  0.476094517909E-01
  0.476848001485E-01
  0.477112991112E-01
  0.477586356316E-01
  0.306281074444E-01
  0.301055035554E-01
  0.301118674819E-01
  0.294471499765E-01
  0.293142274702E-01
  0.284691450686E-01
  0.280263300338E-01
  0.276738924039E-01
  0.276924440889E-01
  0.250037771012E-01
  0.243131083162E-01
 -0.602361389198E-01
 -0.524564033742E-01
 -0.337913885364E-01