# vtk DataFile Version 3.0
MachLine results file. Generated by MachLine, USU AeroLab (c) 2022.
ASCII
DATASET POLYDATA
POINTS                 419 float
  0.100000000000E+01  0.000000000000E+00  0.000000000000E+00
  0.953837434700E+00  0.222222222220E+00 -0.403870114270E-02
  0.100000000000E+01  0.222222222220E+00  0.000000000000E+00
  0.953837434700E+00  0.000000000000E+00 -0.403870114270E-02
  0.863184801440E+00  0.222222222220E+00 -0.119697788720E-01
  0.863184801440E+00  0.000000000000E+00 -0.119697788720E-01
  0.708754398800E+00  0.222222222220E+00 -0.254806884070E-01
  0.708754398800E+00  0.000000000000E+00 -0.254806884070E-01
  0.500000000000E+00  0.222222222220E+00 -0.437443317630E-01
  0.500000000000E+00  0.000000000000E+00 -0.437443317630E-01
  0.291245601200E+00  0.000000000000E+00 -0.254806884070E-01
  0.291245601200E+00  0.222222222220E+00 -0.254806884070E-01
  0.136815198560E+00  0.000000000000E+00 -0.119697788720E-01
  0.136815198560E+00  0.222222222220E+00 -0.119697788720E-01
  0.461625652960E-01  0.000000000000E+00 -0.403870114270E-02
  0.461625652960E-01  0.222222222220E+00 -0.403870114270E-02
  0.000000000000E+00  0.000000000000E+00  0.000000000000E+00
  0.000000000000E+00  0.222222222220E+00  0.000000000000E+00
  0.461625652960E-01  0.222222222220E+00  0.403870114270E-02
  0.461625652960E-01  0.000000000000E+00  0.403870114270E-02
  0.136815198560E+00  0.222222222220E+00  0.119697788720E-01
  0.136815198560E+00  0.000000000000E+00  0.119697788720E-01
  0.291245601200E+00  0.222222222220E+00  0.254806884070E-01
  0.291245601200E+00  0.000000000000E+00  0.254806884070E-01
  0.500000000000E+00  0.222222222220E+00  0.437443317630E-01
  0.500000000000E+00  0.000000000000E+00  0.437443317630E-01
  0.708754398800E+00  0.000000000000E+00  0.254806884070E-01
  0.708754398800E+00  0.222222222220E+00  0.254806884070E-01
  0.863184801440E+00  0.000000000000E+00  0.119697788720E-01
  0.863184801440E+00  0.222222222220E+00  0.119697788720E-01
  0.953837434700E+00  0.000000000000E+00  0.403870114270E-02
  0.953837434700E+00  0.222222222220E+00  0.403870114270E-02
  0.953837434700E+00  0.444444444440E+00 -0.403870114270E-02
  0.100000000000E+01  0.444444444440E+00  0.000000000000E+00
  0.863184801440E+00  0.444444444440E+00 -0.119697788720E-01
  0.708754398800E+00  0.444444444440E+00 -0.254806884070E-01
  0.500000000000E+00  0.444444444440E+00 -0.437443317630E-01
  0.291245601200E+00  0.444444444440E+00 -0.254806884070E-01
  0.136815198560E+00  0.444444444440E+00 -0.119697788720E-01
  0.461625652960E-01  0.444444444440E+00 -0.403870114270E-02
  0.000000000000E+00  0.444444444440E+00  0.000000000000E+00
  0.461625652960E-01  0.444444444440E+00  0.403870114270E-02
  0.136815198560E+00  0.444444444440E+00  0.119697788720E-01
  0.291245601200E+00  0.444444444440E+00  0.254806884070E-01
  0.500000000000E+00  0.444444444440E+00  0.437443317630E-01
  0.708754398800E+00  0.444444444440E+00  0.254806884070E-01
  0.863184801440E+00  0.444444444440E+00  0.119697788720E-01
  0.953837434700E+00  0.444444444440E+00  0.403870114270E-02
  0.953837434700E+00  0.666666666670E+00 -0.403870114270E-02
  0.100000000000E+01  0.666666666670E+00  0.000000000000E+00
  0.863184801440E+00  0.666666666670E+00 -0.119697788720E-01
  0.708754398800E+00  0.666666666670E+00 -0.254806884070E-01
  0.500000000000E+00  0.666666666670E+00 -0.437443317630E-01
  0.291245601200E+00  0.666666666670E+00 -0.254806884070E-01
  0.136815198560E+00  0.666666666670E+00 -0.119697788720E-01
  0.461625652960E-01  0.666666666670E+00 -0.403870114270E-02
  0.000000000000E+00  0.666666666670E+00  0.000000000000E+00
  0.461625652960E-01  0.666666666670E+00  0.403870114270E-02
  0.136815198560E+00  0.666666666670E+00  0.119697788720E-01
  0.291245601200E+00  0.666666666670E+00  0.254806884070E-01
  0.500000000000E+00  0.666666666670E+00  0.437443317630E-01
  0.708754398800E+00  0.666666666670E+00  0.254806884070E-01
  0.863184801440E+00  0.666666666670E+00  0.119697788720E-01
  0.953837434700E+00  0.666666666670E+00  0.403870114270E-02
  0.953837434700E+00  0.888888888890E+00 -0.403870114270E-02
  0.100000000000E+01  0.888888888890E+00  0.000000000000E+00
  0.863184801440E+00  0.888888888890E+00 -0.119697788720E-01
  0.708754398800E+00  0.888888888890E+00 -0.254806884070E-01
  0.500000000000E+00  0.888888888890E+00 -0.437443317630E-01
  0.291245601200E+00  0.888888888890E+00 -0.254806884070E-01
  0.136815198560E+00  0.888888888890E+00 -0.119697788720E-01
  0.461625652960E-01  0.888888888890E+00 -0.403870114270E-02
  0.000000000000E+00  0.888888888890E+00  0.000000000000E+00
  0.461625652960E-01  0.888888888890E+00  0.403870114270E-02
  0.136815198560E+00  0.888888888890E+00  0.119697788720E-01
  0.291245601200E+00  0.888888888890E+00  0.254806884070E-01
  0.500000000000E+00  0.888888888890E+00  0.437443317630E-01
  0.708754398800E+00  0.888888888890E+00  0.254806884070E-01
  0.863184801440E+00  0.888888888890E+00  0.119697788720E-01
  0.953837434700E+00  0.888888888890E+00  0.403870114270E-02
  0.953837434700E+00  0.111111111110E+01 -0.403870114270E-02
  0.100000000000E+01  0.111111111110E+01  0.000000000000E+00
  0.863184801440E+00  0.111111111110E+01 -0.119697788720E-01
  0.708754398800E+00  0.111111111110E+01 -0.254806884070E-01
  0.500000000000E+00  0.111111111110E+01 -0.437443317630E-01
  0.291245601200E+00  0.111111111110E+01 -0.254806884070E-01
  0.136815198560E+00  0.111111111110E+01 -0.119697788720E-01
  0.461625652960E-01  0.111111111110E+01 -0.403870114270E-02
  0.000000000000E+00  0.111111111110E+01  0.000000000000E+00
  0.461625652960E-01  0.111111111110E+01  0.403870114270E-02
  0.136815198560E+00  0.111111111110E+01  0.119697788720E-01
  0.291245601200E+00  0.111111111110E+01  0.254806884070E-01
  0.500000000000E+00  0.111111111110E+01  0.437443317630E-01
  0.708754398800E+00  0.111111111110E+01  0.254806884070E-01
  0.863184801440E+00  0.111111111110E+01  0.119697788720E-01
  0.953837434700E+00  0.111111111110E+01  0.403870114270E-02
  0.953837434700E+00  0.133333333330E+01 -0.403870114270E-02
  0.100000000000E+01  0.133333333330E+01  0.000000000000E+00
  0.863184801440E+00  0.133333333330E+01 -0.119697788720E-01
  0.708754398800E+00  0.133333333330E+01 -0.254806884070E-01
  0.500000000000E+00  0.133333333330E+01 -0.437443317630E-01
  0.291245601200E+00  0.133333333330E+01 -0.254806884070E-01
  0.136815198560E+00  0.133333333330E+01 -0.119697788720E-01
  0.461625652960E-01  0.133333333330E+01 -0.403870114270E-02
  0.000000000000E+00  0.133333333330E+01  0.000000000000E+00
  0.461625652960E-01  0.133333333330E+01  0.403870114270E-02
  0.136815198560E+00  0.133333333330E+01  0.119697788720E-01
  0.291245601200E+00  0.133333333330E+01  0.254806884070E-01
  0.500000000000E+00  0.133333333330E+01  0.437443317630E-01
  0.708754398800E+00  0.133333333330E+01  0.254806884070E-01
  0.863184801440E+00  0.133333333330E+01  0.119697788720E-01
  0.953837434700E+00  0.133333333330E+01  0.403870114270E-02
  0.953837434700E+00  0.155555555560E+01 -0.403870114270E-02
  0.100000000000E+01  0.155555555560E+01  0.000000000000E+00
  0.863184801440E+00  0.155555555560E+01 -0.119697788720E-01
  0.708754398800E+00  0.155555555560E+01 -0.254806884070E-01
  0.500000000000E+00  0.155555555560E+01 -0.437443317630E-01
  0.291245601200E+00  0.155555555560E+01 -0.254806884070E-01
  0.136815198560E+00  0.155555555560E+01 -0.119697788720E-01
  0.461625652960E-01  0.155555555560E+01 -0.403870114270E-02
  0.000000000000E+00  0.155555555560E+01  0.000000000000E+00
  0.461625652960E-01  0.155555555560E+01  0.403870114270E-02
  0.136815198560E+00  0.155555555560E+01  0.119697788720E-01
  0.291245601200E+00  0.155555555560E+01  0.254806884070E-01
  0.500000000000E+00  0.155555555560E+01  0.437443317630E-01
  0.708754398800E+00  0.155555555560E+01  0.254806884070E-01
  0.863184801440E+00  0.155555555560E+01  0.119697788720E-01
  0.953837434700E+00  0.155555555560E+01  0.403870114270E-02
  0.953837434700E+00  0.177777777780E+01 -0.403870114270E-02
  0.100000000000E+01  0.177777777780E+01  0.000000000000E+00
  0.863184801440E+00  0.177777777780E+01 -0.119697788720E-01
  0.708754398800E+00  0.177777777780E+01 -0.254806884070E-01
  0.500000000000E+00  0.177777777780E+01 -0.437443317630E-01
  0.291245601200E+00  0.177777777780E+01 -0.254806884070E-01
  0.136815198560E+00  0.177777777780E+01 -0.119697788720E-01
  0.461625652960E-01  0.177777777780E+01 -0.403870114270E-02
  0.000000000000E+00  0.177777777780E+01  0.000000000000E+00
  0.461625652960E-01  0.177777777780E+01  0.403870114270E-02
  0.136815198560E+00  0.177777777780E+01  0.119697788720E-01
  0.291245601200E+00  0.177777777780E+01  0.254806884070E-01
  0.500000000000E+00  0.177777777780E+01  0.437443317630E-01
  0.708754398800E+00  0.177777777780E+01  0.254806884070E-01
  0.863184801440E+00  0.177777777780E+01  0.119697788720E-01
  0.953837434700E+00  0.177777777780E+01  0.403870114270E-02
  0.953837434700E+00  0.200000000000E+01 -0.403870114270E-02
  0.100000000000E+01  0.200000000000E+01  0.000000000000E+00
  0.863184801440E+00  0.200000000000E+01 -0.119697788720E-01
  0.708754398800E+00  0.200000000000E+01 -0.254806884070E-01
  0.500000000000E+00  0.200000000000E+01 -0.437443317630E-01
  0.291245601200E+00  0.200000000000E+01 -0.254806884070E-01
  0.136815198560E+00  0.200000000000E+01 -0.119697788720E-01
  0.461625652960E-01  0.200000000000E+01 -0.403870114270E-02
  0.000000000000E+00  0.200000000000E+01  0.000000000000E+00
  0.461625652960E-01  0.200000000000E+01  0.403870114270E-02
  0.136815198560E+00  0.200000000000E+01  0.119697788720E-01
  0.291245601200E+00  0.200000000000E+01  0.254806884070E-01
  0.500000000000E+00  0.200000000000E+01  0.437443317630E-01
  0.708754398800E+00  0.200000000000E+01  0.254806884070E-01
  0.863184801440E+00  0.200000000000E+01  0.119697788720E-01
  0.953837434700E+00  0.200000000000E+01  0.403870114270E-02
  0.953837434700E+00  0.200157141480E+01 -0.372111000410E-02
[...]
CELL_DATA                 800
SCALARS C_p_ise float 1
LOOKUP_TABLE default
 -0.206774262898E-01
 -0.206774173748E-01
 -0.206774276111E-01
 -0.206774276111E-01
 -0.206774276108E-01
 -0.206774276108E-01
 -0.206774276103E-01
 -0.206774276103E-01
  0.503215717624E-01
  0.503215717624E-01
  0.503215717617E-01
  0.503215717617E-01
  0.503215717624E-01
  0.503215717624E-01
  0.503215717620E-01
  0.503215717620E-01
  0.383987818923E-01
  0.383987818923E-01
  0.383987818915E-01
  0.383987818915E-01
  0.383987818930E-01
  0.383987818930E-01
  0.383987818915E-01
  0.383987818915E-01
 -0.269586023255E-01
 -0.269586023255E-01
 -0.269586023259E-01
 -0.269586023259E-01
 -0.269586023261E-01
 -0.269586023261E-01
 -0.269586121160E-01
 -0.269586035867E-01
 -0.206774286269E-01
 -0.206774262898E-01
 -0.206774276113E-01
 -0.206774276111E-01
 -0.206774276109E-01
 -0.206774276108E-01
 -0.206774276104E-01
 -0.206774276103E-01
  0.503215717624E-01
  0.503215717624E-01
  0.503215717617E-01
  0.503215717617E-01
  0.503215717624E-01
  0.503215717624E-01
  0.503215717620E-01
  0.503215717620E-01
  0.383987818923E-01
  0.383987818923E-01
  0.383987818915E-01
  0.383987818915E-01
  0.383987818930E-01
  0.383987818930E-01
  0.383987818915E-01
  0.383987818915E-01
 -0.269586023255E-01
 -0.269586023254E-01
 -0.269586023259E-01
 -0.269586023258E-01
 -0.269586023261E-01
 -0.269586023255E-01
 -0.269586035867E-01
 -0.269586013515E-01
 -0.206774274384E-01
 -0.206774286269E-01
 -0.206774276393E-01
 -0.206774276113E-01
 -0.206774276148E-01
 -0.206774276109E-01
 -0.206774276157E-01
 -0.206774276104E-01
  0.503215717624E-01
  0.503215717616E-01
  0.503215717617E-01
  0.503215717613E-01
  0.503215717624E-01
  0.503215717623E-01
  0.503215717620E-01
  0.503215717619E-01
  0.383987818924E-01
  0.383987818923E-01
  0.383987818917E-01
  0.383987818915E-01
  0.383987818933E-01
  0.383987818930E-01
  0.383987818925E-01
  0.383987818915E-01
 -0.269586023254E-01
 -0.269586023261E-01
 -0.269586023258E-01
 -0.269586023195E-01
 -0.269586023255E-01
 -0.269586023090E-01
 -0.269586013515E-01
 -0.269586024601E-01
 -0.206774639445E-01
 -0.206774274384E-01
 -0.206774276170E-01
 -0.206774276393E-01
 -0.206774279050E-01
 -0.206774276148E-01
 -0.206774275451E-01
 -0.206774276157E-01
  0.503215717616E-01
  0.503215717419E-01
  0.503215717613E-01
  0.503215717514E-01
  0.503215717623E-01
  0.503215717581E-01
  0.503215717619E-01
  0.503215717592E-01
  0.383987818974E-01
  0.383987818924E-01
  0.383987819081E-01
  0.383987818917E-01
  0.383987819170E-01
  0.383987818933E-01
  0.383987820192E-01
  0.383987818925E-01
 -0.269586023261E-01
 -0.269586020193E-01
 -0.269586023195E-01
 -0.269586022900E-01
 -0.269586023090E-01
 -0.269585999930E-01
 -0.269586024601E-01
 -0.269585726942E-01
 -0.206782529432E-01
 -0.206774639445E-01
 -0.206775569941E-01
 -0.206774276170E-01
 -0.206774370096E-01
 -0.206774279050E-01
 -0.206774573235E-01
 -0.206774275451E-01
  0.503215717419E-01
  0.503215679830E-01
  0.503215717514E-01
  0.503215703009E-01
  0.503215717581E-01
  0.503215712294E-01
  0.503215717592E-01
  0.503215715548E-01
  0.383987821254E-01
  0.383987818974E-01
  0.383987822246E-01
  0.383987819081E-01
  0.383987823835E-01
  0.383987819170E-01
  0.383987827229E-01
  0.383987820192E-01
 -0.269586020193E-01
 -0.269586165105E-01
 -0.269586022900E-01
 -0.269585711381E-01
 -0.269585999930E-01
 -0.269585833440E-01
 -0.269585726942E-01
 -0.269575435307E-01
 -0.207330701005E-01
 -0.206782529435E-01
 -0.206757618149E-01
 -0.206775569941E-01
 -0.206785669388E-01
 -0.206774370100E-01
 -0.206763362540E-01
 -0.206774573235E-01
  0.503215679830E-01
  0.503216049360E-01
  0.503215703009E-01
  0.503215726162E-01
  0.503215712294E-01
  0.503215697655E-01
  0.503215715548E-01
  0.503215655209E-01
  0.383988047949E-01
  0.383987821254E-01
  0.383988629487E-01
  0.383987822246E-01
  0.383988968486E-01
  0.383987823835E-01
  0.383993898643E-01
  0.383987827228E-01
 -0.269586165106E-01
 -0.269568038927E-01
 -0.269585711394E-01
 -0.269592669827E-01
 -0.269585833447E-01
 -0.269532268106E-01
 -0.269575435350E-01
 -0.269233072877E-01
 -0.208498323600E-01
 -0.207330779680E-01
 -0.208096421066E-01
 -0.206757652036E-01
 -0.206744988720E-01
 -0.206785705152E-01
 -0.207680021563E-01
 -0.206763363831E-01
  0.503216046558E-01
  0.503034509702E-01
  0.503215725956E-01
  0.503144239330E-01
  0.503215697645E-01
  0.503187771453E-01
  0.503215655208E-01
  0.503204112207E-01
  0.383989114584E-01
  0.383988047949E-01
  0.383974897558E-01
  0.383988629486E-01
  0.383971165904E-01
  0.383988968479E-01
  0.383876563358E-01
  0.383993898297E-01
 -0.269568039066E-01
 -0.270246358317E-01
 -0.269592684953E-01
 -0.268717938223E-01
 -0.269532268371E-01
 -0.269512274319E-01
 -0.269233072779E-01
 -0.263307573229E-01
 -0.306098236768E-01
 -0.208500971184E-01
 -0.218151583671E-01
 -0.208102079616E-01
 -0.218994181401E-01
 -0.206760368843E-01
 -0.188960315136E-01
 -0.207680691414E-01
  0.503032980502E-01
  0.507134102888E-01
  0.503144106594E-01
  0.504857334659E-01
  0.503187762449E-01
  0.504021234902E-01
  0.503204111885E-01
  0.503586108601E-01
  0.385686547883E-01
  0.383989111956E-01
  0.388130181035E-01
  0.383974809053E-01
  0.389478211158E-01
  0.383970437866E-01
  0.397252464526E-01
  0.383869412221E-01
 -0.270249478618E-01
 -0.247846922239E-01
 -0.268746870221E-01
 -0.283671774676E-01
 -0.269524890885E-01
 -0.267259317215E-01
 -0.263321516790E-01
 -0.204158155287E-01
 -0.399210743706E-01
 -0.308228426647E-01
 -0.195143897945E-01
 -0.220959292020E-01
 -0.246987637061E-01
 -0.221464037073E-01
 -0.239990226563E-01
 -0.190784451972E-01
  0.503273912400E-01
  0.376565461468E-01
  0.503591298625E-01
  0.379448597837E-01
  0.503745564381E-01
  0.380097073004E-01
  0.503554988130E-01
  0.380447994586E-01
  0.272059800522E-01
  0.385673980768E-01
  0.270766310154E-01
  0.388014786866E-01
  0.270218756583E-01
  0.388940395826E-01
  0.264562731288E-01
  0.395492581917E-01
 -0.248620934902E-01
 -0.263090321595E-01
 -0.284526667465E-01
 -0.207784592737E-01
 -0.267690938453E-01
  0.614005876110E-02
 -0.204122094743E-01
  0.523802456627E-01
 -0.399891899354E-01
 -0.199808701814E-01
 -0.197232317739E-01
 -0.220865367502E-01
 -0.263986514287E-01
 -0.246131351316E-01
 -0.265326133273E-01
  0.264572987984E-01
  0.264065881901E-01
  0.265189817641E-01
  0.265242020789E-01
  0.265706844035E-01
  0.265455544862E-01
  0.265613161539E-01
  0.225927357342E-01
  0.225311186325E-01
  0.225450288447E-01
  0.225007144127E-01
  0.225007235305E-01
  0.222110197902E-01
  0.221578044995E-01
 -0.264778831969E-01
 -0.228006217816E-01
 -0.207141291831E-01
 -0.192217022027E-01
 -0.651459199193E-02
 -0.363643898690E-01
 -0.215431864136E-01
 -0.423591882461E-01
 -0.269191725359E-01
 -0.197752034298E-01
 -0.208318638925E-01
 -0.233202348316E-01
 -0.259753929924E-01
 -0.202842759091E-01
  0.264847287195E-01
  0.264783282047E-01
  0.265677039238E-01
  0.265636606500E-01
  0.266124060719E-01
  0.266150583185E-01
  0.266349947334E-01
  0.224883536251E-01
  0.224496632322E-01
  0.224402825562E-01
  0.223905349361E-01
  0.223823026796E-01
  0.222000175163E-01
  0.221322719861E-01
 -0.220163907546E-01
 -0.210538643255E-01
 -0.144260385654E-01
 -0.171417769230E-01
 -0.128879957362E-01
 -0.421381188876E-01
 -0.352916760723E-01
 -0.450221993655E-01
 -0.358332591508E-01
 -0.193428894217E-01
 -0.197348994621E-01
 -0.189507205116E-01
 -0.276093842430E-01
 -0.184147981910E-01
  0.253447081255E-01
  0.253454395913E-01
  0.254265023950E-01
  0.254239722130E-01
  0.254633587101E-01
  0.254646358692E-01
  0.254882958440E-01
  0.223214029398E-01
  0.222909204119E-01
  0.222837012268E-01
  0.222439848336E-01
  0.222278469049E-01
  0.221034965907E-01
  0.220429683210E-01
 -0.215074621663E-01
 -0.207806701962E-01
 -0.921140310402E-02
 -0.150687991359E-01
 -0.174288399617E-01
 -0.439247258296E-01
 -0.426282280022E-01
 -0.466347922978E-01
 -0.432560508375E-01
 -0.184848289979E-01
 -0.192402273920E-01
 -0.134473316520E-01
 -0.288765229350E-01
 -0.187124356235E-01
  0.238177400888E-01
  0.238145789914E-01
  0.239188655477E-01
  0.239190030454E-01
  0.239533189467E-01
  0.239536712282E-01
  0.239800466812E-01
  0.227620900945E-01
  0.227349081503E-01
  0.227314234846E-01
  0.226975240381E-01
  0.226881672892E-01
  0.225813352791E-01
  0.225541950031E-01
 -0.224997808563E-01
 -0.214966835913E-01
 -0.911402115387E-02
 -0.149517025850E-01
 -0.205410656462E-01
 -0.427074020601E-01
 -0.460162343341E-01
 -0.206774192192E-01
 -0.206774173748E-01
 -0.206774276111E-01
 -0.206774276111E-01
 -0.206774276108E-01
 -0.206774276108E-01
 -0.206774276103E-01
 -0.206774276103E-01
  0.503215717624E-01
  0.503215717624E-01
  0.503215717617E-01
  0.503215717617E-01
  0.503215717624E-01
  0.503215717624E-01
  0.503215717620E-01
  0.503215717620E-01
  0.383987818923E-01
  0.383987818923E-01
  0.383987818915E-01
  0.383987818915E-01
  0.383987818930E-01
  0.383987818930E-01
  0.383987818915E-01
  0.383987818915E-01
 -0.269586023255E-01
 -0.269586023255E-01
 -0.269586023259E-01
 -0.269586023259E-01
 -0.269586023261E-01
 -0.269586023261E-01
 -0.269586121160E-01
 -0.269586103513E-01
 -0.206774245344E-01
 -0.206774192192E-01
 -0.206774276113E-01
 -0.206774276111E-01
 -0.206774276109E-01
 -0.206774276108E-01
 -0.206774276104E-01
 -0.206774276103E-01
  0.503215717624E-01
  0.503215717624E-01
  0.503215717617E-01
  0.503215717617E-01
  0.503215717624E-01
  0.503215717624E-01
  0.503215717620E-01
  0.503215717620E-01
  0.383987818923E-01
  0.383987818923E-01
  0.383987818915E-01
  0.383987818915E-01
  0.383987818930E-01
  0.383987818930E-01
  0.383987818915E-01
  0.383987818915E-01
 -0.269586023255E-01
 -0.269586023254E-01
 -0.269586023259E-01
 -0.269586023258E-01
 -0.269586023261E-01
 -0.269586023255E-01
 -0.269586103513E-01
 -0.269586052670E-01
 -0.206774241544E-01
 -0.206774245344E-01
 -0.206774276393E-01
 -0.206774276113E-01
 -0.206774276148E-01
 -0.206774276109E-01
 -0.206774276157E-01
 -0.206774276104E-01
  0.503215717624E-01
  0.503215717616E-01
  0.503215717617E-01
  0.503215717613E-01
  0.503215717624E-01
  0.503215717623E-01
  0.503215717620E-01
  0.503215717619E-01
  0.383987818924E-01
  0.383987818923E-01
  0.383987818917E-01
  0.383987818915E-01
  0.383987818933E-01
  0.383987818930E-01
  0.383987818925E-01
  0.383987818915E-01
 -0.269586023254E-01
 -0.269586023261E-01
 -0.269586023258E-01
 -0.269586023195E-01
 -0.269586023255E-01
 -0.269586023090E-01
 -0.269586052670E-01
 -0.269586056020E-01
 -0.206774542217E-01
 -0.206774241544E-01
 -0.206774276170E-01
 -0.206774276393E-01
 -0.206774279050E-01
 -0.206774276148E-01
 -0.206774275451E-01
 -0.206774276157E-01
  0.503215717616E-01
  0.503215717419E-01
  0.503215717613E-01
  0.503215717514E-01
  0.503215717623E-01
  0.503215717581E-01
  0.503215717619E-01
  0.503215717592E-01
  0.383987818974E-01
  0.383987818924E-01
  0.383987819081E-01
  0.383987818917E-01
  0.383987819170E-01
  0.383987818933E-01
  0.383987820192E-01
  0.383987818925E-01
 -0.269586023261E-01
 -0.269586020193E-01
 -0.269586023195E-01
 -0.269586022900E-01
 -0.269586023090E-01
 -0.269585999930E-01
 -0.269586056020E-01
 -0.269585819964E-01
 -0.206782560511E-01
 -0.206774542217E-01
 -0.206775569941E-01
 -0.206774276170E-01
 -0.206774370096E-01
 -0.206774279050E-01
 -0.206774573235E-01
 -0.206774275451E-01
  0.503215717419E-01
  0.503215679830E-01
  0.503215717514E-01
  0.503215703009E-01
  0.503215717581E-01
  0.503215712294E-01
  0.503215717592E-01
  0.503215715548E-01
  0.383987821254E-01
  0.383987818974E-01
  0.383987822246E-01
  0.383987819081E-01
  0.383987823835E-01
  0.383987819170E-01
  0.383987827229E-01
  0.383987820192E-01
 -0.269586020193E-01
 -0.269586165105E-01
 -0.269586022900E-01
 -0.269585711381E-01
 -0.269585999930E-01
 -0.269585833440E-01
 -0.269585819964E-01
 -0.269575405572E-01
 -0.207330708460E-01
 -0.206782560514E-01
 -0.206757618149E-01
 -0.206775569941E-01
 -0.206785669388E-01
 -0.206774370100E-01
 -0.206763362540E-01
 -0.206774573235E-01
  0.503215679830E-01
  0.503216049360E-01
  0.503215703009E-01
  0.503215726162E-01
  0.503215712294E-01
  0.503215697655E-01
  0.503215715548E-01
  0.503215655209E-01
  0.383988047949E-01
  0.383987821254E-01
  0.383988629487E-01
  0.383987822246E-01
  0.383988968486E-01
  0.383987823835E-01
  0.383993898643E-01
  0.383987827228E-01
 -0.269586165105E-01
 -0.269568038927E-01
 -0.269585711394E-01
 -0.269592669827E-01
 -0.269585833447E-01
 -0.269532268106E-01
 -0.269575405615E-01
 -0.269233065735E-01
 -0.208498278720E-01
 -0.207330787135E-01
 -0.208096421074E-01
 -0.206757652036E-01
 -0.206744988720E-01
 -0.206785705152E-01
 -0.207680021566E-01
 -0.206763363831E-01
  0.503216046558E-01
  0.503034509702E-01
  0.503215725956E-01
  0.503144239330E-01
  0.503215697645E-01
  0.503187771453E-01
  0.503215655208E-01
  0.503204112207E-01
  0.383989114584E-01
  0.383988047949E-01
  0.383974897558E-01
  0.383988629486E-01
  0.383971165904E-01
  0.383988968479E-01
  0.383876563358E-01
  0.383993898297E-01
 -0.269568039066E-01
 -0.270246358319E-01
 -0.269592684953E-01
 -0.268717938220E-01
 -0.269532268371E-01
 -0.269512274323E-01
 -0.269233065637E-01
 -0.263307616670E-01
 -0.306098238059E-01
 -0.208500926306E-01
 -0.218151583855E-01
 -0.208102079624E-01
 -0.218994181449E-01
 -0.206760368844E-01
 -0.188960314989E-01
 -0.207680691417E-01
  0.503032980502E-01
  0.507134102902E-01
  0.503144106594E-01
  0.504857334659E-01
  0.503187762449E-01
  0.504021234902E-01
  0.503204111885E-01
  0.503586108601E-01
  0.385686547883E-01
  0.383989111956E-01
  0.388130181036E-01
  0.383974809053E-01
  0.389478211159E-01
  0.383970437866E-01
  0.397252464587E-01
  0.383869412221E-01
 -0.270249478620E-01
 -0.247846922092E-01
 -0.268746870219E-01
 -0.283671774799E-01
 -0.269524890889E-01
 -0.267259317336E-01
 -0.263321560231E-01
 -0.204158153483E-01
 -0.399210745398E-01
 -0.308228427916E-01
 -0.195143894522E-01
 -0.220959292218E-01
 -0.246987639842E-01
 -0.221464037099E-01
 -0.239990223865E-01
 -0.190784451845E-01
  0.503273912371E-01
  0.376565460461E-01
  0.503591298615E-01
  0.379448596919E-01
  0.503745564381E-01
  0.380097072990E-01
  0.503554988130E-01
  0.380447994592E-01
  0.272059800522E-01
  0.385673980768E-01
  0.270766310149E-01
  0.388014786867E-01
  0.270218756012E-01
  0.388940395824E-01
  0.264562729188E-01
  0.395492581947E-01
 -0.248620934770E-01
 -0.263090318627E-01
 -0.284526667576E-01
 -0.207784596193E-01
 -0.267690938581E-01
  0.614005914719E-02
 -0.204122092918E-01
  0.523802455353E-01
 -0.399891901386E-01
 -0.199808699699E-01
 -0.197232314646E-01
 -0.220865371948E-01
 -0.263986516539E-01
 -0.246131348349E-01
 -0.265326130247E-01
  0.264572988527E-01
  0.264065886395E-01
  0.265189828506E-01
  0.265242025558E-01
  0.265706843987E-01
  0.265455544801E-01
  0.265613161490E-01
  0.225927357329E-01
  0.225311186299E-01
  0.225450288420E-01
  0.225007143725E-01
  0.225007234899E-01
  0.222110196119E-01
  0.221578043183E-01
 -0.264778829019E-01
 -0.228006214799E-01
 -0.207141295275E-01
 -0.192217024930E-01
 -0.651459150032E-02
 -0.363643897844E-01
 -0.215431866827E-01
 -0.423591884645E-01
 -0.269191726516E-01
 -0.197752028886E-01
 -0.208318640636E-01
 -0.233202350221E-01
 -0.259753924743E-01
 -0.202842756271E-01
  0.264847283582E-01
  0.264783279832E-01
  0.265677053304E-01
  0.265636617510E-01
  0.266124060899E-01
  0.266150583278E-01
  0.266349947345E-01
  0.224883536256E-01
  0.224496632286E-01
  0.224402825537E-01
  0.223905348064E-01
  0.223823025979E-01
  0.222000172948E-01
  0.221322717619E-01
 -0.220163904488E-01
 -0.210538639565E-01
 -0.144260389794E-01
 -0.171417771328E-01
 -0.128879950328E-01
 -0.421381184740E-01
 -0.352916758509E-01
 -0.450221995537E-01
 -0.358332593299E-01
 -0.193428892061E-01
 -0.197348995646E-01
 -0.189507213126E-01
 -0.276093845636E-01
 -0.184147978628E-01
  0.253447073013E-01
  0.253454387588E-01
  0.254265037876E-01
  0.254239735609E-01
  0.254633587050E-01
  0.254646358690E-01
  0.254882958448E-01
  0.223214029404E-01
  0.222909204154E-01
  0.222837012238E-01
  0.222439846923E-01
  0.222278467765E-01
  0.221034965551E-01
  0.220429681028E-01
 -0.215074618455E-01
 -0.207806699600E-01
 -0.921140359058E-02
 -0.150687998542E-01
 -0.174288399945E-01
 -0.439247256400E-01
 -0.426282279657E-01
 -0.466347923730E-01
 -0.432560508952E-01
 -0.184848288171E-01
 -0.192402274250E-01
 -0.134473318564E-01
 -0.288765228436E-01
 -0.187124355398E-01
  0.238177390427E-01
  0.238145781520E-01
  0.239188662432E-01
  0.239190037240E-01
  0.239533189427E-01
  0.239536712261E-01
  0.239800466887E-01
  0.227620900932E-01
  0.227349081392E-01
  0.227314234898E-01
  0.226975247454E-01
  0.226881669609E-01
  0.225813341213E-01
  0.225541949420E-01
 -0.224997806778E-01
 -0.214966834516E-01
 -0.911402146841E-02
 -0.149517032581E-01
 -0.205410659847E-01
 -0.427074018946E-01
 -0.460162342239E-01
SCALARS C_p_2nd float 1
LOOKUP_TABLE default
 -0.212633228265E-01
 -0.212633140765E-01
 -0.212633241236E-01
 -0.212633241236E-01
 -0.212633241233E-01
 -0.212633241233E-01
 -0.212633241228E-01
 -0.212633241228E-01
  0.884537894953E-01
  0.884537894953E-01
  0.884537894996E-01
  0.884537894996E-01
  0.884537894953E-01
  0.884537894953E-01
  0.884537894977E-01
  0.884537894977E-01
  0.434228772353E-01
  0.434228772353E-01
  0.434228772341E-01
  0.434228772341E-01
  0.434228772364E-01
  0.434228772364E-01
  0.434228772341E-01
  0.434228772341E-01
 -0.283243286337E-01
 -0.283243286337E-01
 -0.283243286342E-01
 -0.283243286342E-01
 -0.283243286344E-01
 -0.283243286344E-01
 -0.283243375620E-01
 -0.283243297837E-01
 -0.212633251204E-01
 -0.212633228265E-01
 -0.212633241238E-01
 -0.212633241236E-01
 -0.212633241234E-01
 -0.212633241233E-01
 -0.212633241228E-01
 -0.212633241228E-01
  0.884537894953E-01
  0.884537894953E-01
  0.884537894996E-01
  0.884537894996E-01
  0.884537894953E-01
  0.884537894953E-01
  0.884537894977E-01
  0.884537894977E-01
  0.434228772353E-01
  0.434228772353E-01
  0.434228772341E-01
  0.434228772341E-01
  0.434228772364E-01
  0.434228772364E-01
  0.434228772341E-01
  0.434228772341E-01
 -0.283243286337E-01
 -0.283243286337E-01
 -0.283243286342E-01
 -0.283243286341E-01
 -0.283243286344E-01
 -0.283243286339E-01
 -0.283243297837E-01
 -0.283243277452E-01
 -0.212633239539E-01
 -0.212633251204E-01
 -0.212633241512E-01
 -0.212633241238E-01
 -0.212633241272E-01
 -0.212633241234E-01
 -0.212633241280E-01
 -0.212633241228E-01
  0.884537894953E-01
  0.884537894934E-01
  0.884537894996E-01
  0.884537894988E-01
  0.884537894953E-01
  0.884537894950E-01
  0.884537894977E-01
  0.884537894975E-01
  0.434228772354E-01
  0.434228772353E-01
  0.434228772343E-01
  0.434228772341E-01
  0.434228772367E-01
  0.434228772364E-01
  0.434228772353E-01
  0.434228772341E-01
 -0.283243286337E-01
 -0.283243286343E-01
 -0.283243286341E-01
 -0.283243286284E-01
 -0.283243286339E-01
 -0.283243286188E-01
 -0.283243277452E-01
 -0.283243287562E-01
 -0.212633597844E-01
 -0.212633239539E-01
 -0.212633241294E-01
 -0.212633241512E-01
 -0.212633244121E-01
 -0.212633241272E-01
 -0.212633240588E-01
 -0.212633241280E-01
  0.884537894934E-01
  0.884537894471E-01
  0.884537894988E-01
  0.884537894753E-01
  0.884537894950E-01
  0.884537894852E-01
  0.884537894975E-01
  0.884537894912E-01
  0.434228772413E-01
  0.434228772354E-01
  0.434228772534E-01
  0.434228772343E-01
  0.434228772643E-01
  0.434228772367E-01
  0.434228773827E-01
  0.434228772353E-01
 -0.283243286343E-01
 -0.283243283545E-01
 -0.283243286284E-01
 -0.283243286015E-01
 -0.283243286188E-01
 -0.283243265067E-01
 -0.283243287562E-01
 -0.283243016110E-01
 -0.212641341779E-01
 -0.212633597844E-01
 -0.212634511119E-01
 -0.212633241294E-01
 -0.212633333481E-01
 -0.212633244121E-01
 -0.212633532860E-01
 -0.212633240588E-01
  0.884537894471E-01
  0.884537805847E-01
  0.884537894753E-01
  0.884537860556E-01
  0.884537894852E-01
  0.884537882387E-01
  0.884537894912E-01
  0.884537890092E-01
  0.434228775063E-01
  0.434228772413E-01