# vtk DataFile Version 3.0
TriPan results file. Generated by TriPan, USU AeroLab (c) 2021.
ASCII
DATASET POLYDATA
POINTS                 309 float
      0.000000000000      0.000000000000      0.000000000000
      0.420131176710      0.000000000000     -0.412075400352
      0.420131176710      0.000000000000      0.412075400352
      0.928174138069      0.928174138069      0.000000000000
      1.348305344580      0.928174138069     -0.412075400352
      1.348305344580      0.928174138069      0.412075400352
      1.813530921940      0.000000000000     -0.806821227074
      1.813530921940      0.000000000000      0.806821227074
      2.261965751650      2.261965751650      0.000000000000
      2.682096958160      2.261965751650     -0.412075400352
      2.682096958160      2.261965751650      0.412075400352
      2.741705179210      0.928174138069     -0.806821227074
      2.741705179210      0.928174138069      0.806821227074
      4.075496673580      2.261965751650     -0.806821227074
      4.075496673580      2.261965751650      0.806821227074
      4.138934612270      4.138934612270      0.000000000000
      4.559065818790      4.138934612270     -0.412075400352
      4.559065818790      4.138934612270      0.412075400352
      4.796296119690      0.000000000000     -1.117076516150
      4.796296119690      0.000000000000      1.117076516150
      5.724470138550      0.928174138069     -1.117076516150
      5.724470138550      0.928174138069      1.117076516150
      5.952465534210      4.138934612270     -0.806821227074
      5.952465534210      4.138934612270      0.806821227074
      6.703944683070      6.703944683070      0.000000000000
      7.058261871340      2.261965751650     -1.117076516150
      7.058261871340      2.261965751650      1.117076516150
      7.124075889590      6.703944683070     -0.412075400352
      7.124075889590      6.703944683070      0.412075400352
      8.517476081850      6.703944683070     -0.806821227074
      8.517476081850      6.703944683070      0.806821227074
      8.935231208800      4.138934612270     -1.117076516150
      8.935231208800      4.138934612270      1.117076516150
      9.395236968990      0.000000000000     -0.980761349201
      9.395236968990      0.000000000000      0.980761349201
     10.072214126600     10.072214126600      0.000000000000
     10.323410987900      0.928174138069     -0.980761349201
     10.323410987900      0.928174138069      0.980761349201
     10.492345809900     10.072214126600     -0.412075400352
     10.492345809900     10.072214126600      0.412075400352
     11.500241279600      6.703944683070     -1.117076516150
     11.500241279600      6.703944683070      1.117076516150
     11.657202720600      2.261965751650     -0.980761349201
     11.657202720600      2.261965751650      0.980761349201
     11.885745048500     10.072214126600     -0.806821227074
     11.885745048500     10.072214126600      0.806821227074
     13.534171104400      4.138934612270     -0.980761349201
     13.534171104400      4.138934612270      0.980761349201
     13.977208137500      0.000000000000     -0.540150463581
     13.977208137500      0.000000000000      0.540150463581
     14.271034240700     14.271034240700      0.000000000000
     14.691165924100     14.271034240700     -0.412075400352
     14.691165924100     14.271034240700      0.412075400352
     14.868510246300     10.072214126600     -1.117076516150
     14.868510246300     10.072214126600      1.117076516150
     14.905382156400      0.928174138069     -0.540150463581
     14.905382156400      0.928174138069      0.540150463581
     16.084566116300     14.271034240700     -0.806821227074
     16.084566116300     14.271034240700      0.806821227074
     16.099182128900      6.703944683070     -0.980761349201
     16.099182128900      6.703944683070      0.980761349201
     16.239173889200      2.261965751650     -0.540150463581
     16.239173889200      2.261965751650      0.540150463581
     16.960582733200      0.000000000000     -0.218344569206
     16.960582733200      0.000000000000      0.218344569206
     17.888757705700      0.928174138069     -0.218344569206
     17.888757705700      0.928174138069      0.218344569206
     18.116142272900      4.138934612270     -0.540150463581
     18.116142272900      4.138934612270      0.540150463581
     18.403219223000      0.000000000000     -0.063683047891
     18.403219223000      0.000000000000      0.063683047891
     19.000301361100      0.000000000000      0.000000000000
     19.067331314100     14.271034240700     -1.117076516150
     19.067331314100     14.271034240700      1.117076516150
     19.178466796900     19.178466796900      0.000000000000
     19.222549438500      2.261965751650     -0.218344569206
     19.222549438500      2.261965751650      0.218344569206
     19.331394195600      0.928174138069     -0.063683047891
     19.331394195600      0.928174138069      0.063683047891
     19.467451095600     10.072214126600     -0.980761349201
     19.467451095600     10.072214126600      0.980761349201
     19.598598480200     19.178466796900     -0.412075400352
     19.598598480200     19.178466796900      0.412075400352
     19.928474426300      0.928174138069      0.000000000000
     20.665184021000      2.261965751650     -0.063683047891
     20.665184021000      2.261965751650      0.063683047891
     20.681152343800      6.703944683070     -0.540150463581
     20.681152343800      6.703944683070      0.540150463581
     20.991998672500     19.178466796900     -0.806821227074
     20.991998672500     19.178466796900      0.806821227074
     21.099517822300      4.138934612270     -0.218344569206
     21.099517822300      4.138934612270      0.218344569206
     21.262266159100      2.261965751650      0.000000000000
     22.542154312100      4.138934612270     -0.063683047891
     22.542154312100      4.138934612270      0.063683047891
     23.139236450200      4.138934612270      0.000000000000
     23.664527893100      6.703944683070     -0.218344569206
     23.664527893100      6.703944683070      0.218344569206
     23.666271209700     14.271034240700     -0.980761349201
     23.666271209700     14.271034240700      0.980761349201
     23.974763870200     19.178466796900     -1.117076516150
     23.974763870200     19.178466796900      1.117076516150
     24.049423217800     10.072214126600     -0.540150463581
     24.049423217800     10.072214126600      0.540150463581
     24.500000000000     24.500000000000      0.000000000000
     24.920131683300     24.500000000000     -0.412075400352
     24.920131683300     24.500000000000      0.412075400352
     25.107164382900      6.703944683070     -0.063683047891
     25.107164382900      6.703944683070      0.063683047891
     25.704246521000      6.703944683070      0.000000000000
     26.313531875600     24.500000000000     -0.806821227074
     26.313531875600     24.500000000000      0.806821227074
     27.032796859700     10.072214126600     -0.218344569206
     27.032796859700     10.072214126600      0.218344569206
     28.248241424600     14.271034240700     -0.540150463581
     28.248241424600     14.271034240700      0.540150463581
     28.475433349600     10.072214126600     -0.063683047891
     28.475433349600     10.072214126600      0.063683047891
     28.573703765900     19.178466796900     -0.980761349201
     28.573703765900     19.178466796900      0.980761349201
     29.072515487700     10.072214126600      0.000000000000
     29.296295166000     24.500000000000     -1.117076516150
     29.296295166000     24.500000000000      1.117076516150
     29.821533203100     29.821533203100      0.000000000000
     30.241664886500     29.821533203100     -0.412075400352
     30.241664886500     29.821533203100      0.412075400352
     31.231616973900     14.271034240700     -0.218344569206
     31.231616973900     14.271034240700      0.218344569206
     31.635063171400     29.821533203100     -0.806821227074
     31.635063171400     29.821533203100      0.806821227074
     32.674255371100     14.271034240700     -0.063683047891
     32.674255371100     14.271034240700      0.063683047891
     33.155673980700     19.178466796900     -0.540150463581
     33.155673980700     19.178466796900      0.540150463581
     33.271335601800     14.271034240700      0.000000000000
     33.895236969000     24.500000000000     -0.980761349201
     33.895236969000     24.500000000000      0.980761349201
     34.617828369100     29.821533203100     -1.117076516150
     34.617828369100     29.821533203100      1.117076516150
     34.728965759300     34.728965759300      0.000000000000
     35.149097442600     34.728965759300     -0.412075400352
     35.149097442600     34.728965759300      0.412075400352
     36.139049530000     19.178466796900     -0.218344569206
     36.139049530000     19.178466796900      0.218344569206
     36.542495727500     34.728965759300     -0.806821227074
     36.542495727500     34.728965759300      0.806821227074
     37.581687927200     19.178466796900     -0.063683047891
     37.581687927200     19.178466796900      0.063683047891
     38.178768158000     19.178466796900      0.000000000000
     38.477207183800     24.500000000000     -0.540150463581
     38.477207183800     24.500000000000      0.540150463581
     38.927783966100     38.927783966100      0.000000000000
     39.216770172100     29.821533203100     -0.980761349201
     39.216770172100     29.821533203100      0.980761349201
     39.347915649400     38.927783966100     -0.412075400352
     39.347915649400     38.927783966100      0.412075400352
     39.525260925300     34.728965759300     -1.117076516150
     39.525260925300     34.728965759300      1.117076516150
     40.741317749000     38.927783966100     -0.806821227074
     40.741317749000     38.927783966100      0.806821227074
     41.460582733200     24.500000000000     -0.218344569206
[...]
CELL_DATA                 568
SCALARS sigma float 1
LOOKUP_TABLE default
      0.000000000000
      0.000000000000
      0.000000000000
      0.000000000000
      0.000000000000
      0.000000000000
      0.000000000000
      0.000000000000
      0.000000000000
      0.000000000000
      0.000000000000
      0.000000000000
      0.000000000000
      0.000000000000
      0.000000000000
      0.000000000000
      0.000000000000
      0.000000000000
      0.000000000000
      0.000000000000
      0.000000000000
      0.000000000000
      0.000000000000
      0.000000000000
      0.000000000000
      0.000000000000
      0.000000000000
      0.000000000000
      0.000000000000
      0.000000000000
      0.000000000000
      0.000000000000
      0.000000000000
      0.000000000000
      0.000000000000
      0.000000000000
      0.000000000000
      0.000000000000
      0.000000000000
      0.000000000000
      0.000000000000
      0.000000000000
      0.000000000000
      0.000000000000
      0.000000000000
      0.000000000000
      0.000000000000
      0.000000000000
      0.000000000000
      0.000000000000
      0.000000000000
      0.000000000000
      0.000000000000
      0.000000000000
      0.000000000000
      0.000000000000
      0.000000000000
      0.000000000000
      0.000000000000
      0.000000000000
      0.000000000000
      0.000000000000
      0.000000000000
      0.000000000000
      0.000000000000
      0.000000000000
      0.000000000000
      0.000000000000
      0.000000000000
      0.000000000000
      0.000000000000
      0.000000000000
      0.000000000000
      0.000000000000
      0.000000000000
      0.000000000000
      0.000000000000
      0.000000000000
      0.000000000000
      0.000000000000
      0.000000000000
      0.000000000000
      0.000000000000
      0.000000000000
      0.000000000000
      0.000000000000
      0.000000000000
      0.000000000000
      0.000000000000
      0.000000000000
      0.000000000000
      0.000000000000
      0.000000000000
      0.000000000000
      0.000000000000
      0.000000000000
      0.000000000000
      0.000000000000
      0.000000000000
      0.000000000000
      0.000000000000
      0.000000000000
      0.000000000000
      0.000000000000
      0.000000000000
      0.000000000000
      0.000000000000
      0.000000000000
      0.000000000000
      0.000000000000
      0.000000000000
      0.000000000000
      0.000000000000
      0.000000000000
      0.000000000000
      0.000000000000
      0.000000000000
      0.000000000000
      0.000000000000
      0.000000000000
      0.000000000000
      0.000000000000
      0.000000000000
      0.000000000000
      0.000000000000
      0.000000000000
      0.000000000000
      0.000000000000
      0.000000000000
      0.000000000000
      0.000000000000
      0.000000000000
      0.000000000000
      0.000000000000
      0.000000000000
      0.000000000000
      0.000000000000
      0.000000000000
      0.000000000000
      0.000000000000
      0.000000000000
      0.000000000000
      0.000000000000
      0.000000000000
      0.000000000000
      0.000000000000
      0.000000000000
      0.000000000000
      0.000000000000
      0.000000000000
      0.000000000000
      0.000000000000
      0.000000000000
      0.000000000000
      0.000000000000
      0.000000000000
      0.000000000000
      0.000000000000
      0.000000000000
      0.000000000000
      0.000000000000
      0.000000000000
      0.000000000000
      0.000000000000
      0.000000000000
      0.000000000000
      0.000000000000
      0.000000000000
      0.000000000000
      0.000000000000
      0.000000000000
      0.000000000000
      0.000000000000
      0.000000000000
      0.000000000000
      0.000000000000
      0.000000000000
      0.000000000000
      0.000000000000
      0.000000000000
      0.000000000000
      0.000000000000
      0.000000000000
      0.000000000000
      0.000000000000
      0.000000000000
      0.000000000000
      0.000000000000
      0.000000000000
      0.000000000000
      0.000000000000
      0.000000000000
      0.000000000000
      0.000000000000
      0.000000000000
      0.000000000000
      0.000000000000
      0.000000000000
      0.000000000000
      0.000000000000
      0.000000000000
      0.000000000000
      0.000000000000
      0.000000000000
      0.000000000000
      0.000000000000
      0.000000000000
      0.000000000000
      0.000000000000
      0.000000000000
      0.000000000000
      0.000000000000
      0.000000000000
      0.000000000000
      0.000000000000
      0.000000000000
      0.000000000000
      0.000000000000
      0.000000000000
      0.000000000000
      0.000000000000
      0.000000000000
      0.000000000000
      0.000000000000
      0.000000000000
      0.000000000000
      0.000000000000
      0.000000000000
      0.000000000000
      0.000000000000
      0.000000000000
      0.000000000000
      0.000000000000
      0.000000000000
      0.000000000000
      0.000000000000
      0.000000000000
      0.000000000000
      0.000000000000
      0.000000000000
      0.000000000000
      0.000000000000
      0.000000000000
      0.000000000000
      0.000000000000
      0.000000000000
      0.000000000000
      0.000000000000
      0.000000000000
      0.000000000000
      0.000000000000
      0.000000000000
      0.000000000000
      0.000000000000
      0.000000000000
      0.000000000000
      0.000000000000
      0.000000000000
      0.000000000000
      0.000000000000
      0.000000000000
      0.000000000000
      0.000000000000
      0.000000000000
      0.000000000000
      0.000000000000
      0.000000000000
      0.000000000000
      0.000000000000
      0.000000000000
      0.000000000000
      0.000000000000
      0.000000000000
      0.000000000000
      0.000000000000
      0.000000000000
      0.000000000000
      0.000000000000
      0.000000000000
      0.000000000000
      0.000000000000
      0.000000000000
      0.000000000000
      0.000000000000
      0.000000000000
      0.000000000000
      0.000000000000
      0.000000000000
      0.000000000000
      0.000000000000
      0.000000000000
      0.000000000000
      0.000000000000
      0.000000000000
      0.000000000000
      0.000000000000
      0.000000000000
      0.000000000000
      0.000000000000
      0.000000000000
      0.000000000000
      0.000000000000
      0.000000000000
      0.000000000000
      0.000000000000
      0.000000000000
      0.000000000000
      0.000000000000
      0.000000000000
      0.000000000000
      0.000000000000
      0.000000000000
      0.000000000000
      0.000000000000
      0.000000000000
      0.000000000000
      0.000000000000
      0.000000000000
      0.000000000000
      0.000000000000
      0.000000000000
      0.000000000000
      0.000000000000
      0.000000000000
      0.000000000000
      0.000000000000
      0.000000000000
      0.000000000000
      0.000000000000
      0.000000000000
      0.000000000000
      0.000000000000
      0.000000000000
      0.000000000000
      0.000000000000
      0.000000000000
      0.000000000000
      0.000000000000
      0.000000000000
      0.000000000000
      0.000000000000
      0.000000000000
      0.000000000000
      0.000000000000
      0.000000000000
      0.000000000000
      0.000000000000
      0.000000000000
      0.000000000000
      0.000000000000
      0.000000000000
      0.000000000000
      0.000000000000
      0.000000000000
      0.000000000000
      0.000000000000
      0.000000000000
      0.000000000000
      0.000000000000
      0.000000000000
      0.000000000000
      0.000000000000
      0.000000000000
      0.000000000000
      0.000000000000
      0.000000000000
      0.000000000000
      0.000000000000
      0.000000000000
      0.000000000000
      0.000000000000
      0.000000000000
      0.000000000000
      0.000000000000
      0.000000000000
      0.000000000000
      0.000000000000
      0.000000000000
      0.000000000000
      0.000000000000
      0.000000000000
      0.000000000000
      0.000000000000
      0.000000000000
      0.000000000000
      0.000000000000
      0.000000000000
      0.000000000000
      0.000000000000
      0.000000000000
      0.000000000000
      0.000000000000
      0.000000000000
      0.000000000000
      0.000000000000
      0.000000000000
      0.000000000000
      0.000000000000
      0.000000000000
      0.000000000000
      0.000000000000
      0.000000000000
      0.000000000000
      0.000000000000
      0.000000000000
      0.000000000000
      0.000000000000
      0.000000000000
      0.000000000000
      0.000000000000
      0.000000000000
      0.000000000000
      0.000000000000
      0.000000000000
      0.000000000000
      0.000000000000
      0.000000000000
      0.000000000000
      0.000000000000
      0.000000000000
      0.000000000000
      0.000000000000
      0.000000000000
      0.000000000000
      0.000000000000
      0.000000000000
      0.000000000000
      0.000000000000
      0.000000000000
      0.000000000000
      0.000000000000
      0.000000000000
      0.000000000000
      0.000000000000
      0.000000000000
      0.000000000000
      0.000000000000
      0.000000000000
      0.000000000000
      0.000000000000
      0.000000000000
      0.000000000000
      0.000000000000
      0.000000000000
      0.000000000000
      0.000000000000
      0.000000000000
      0.000000000000
      0.000000000000
      0.000000000000
      0.000000000000
      0.000000000000
      0.000000000000
      0.000000000000
      0.000000000000
      0.000000000000
      0.000000000000
      0.000000000000
      0.000000000000
      0.000000000000
      0.000000000000
      0.000000000000
      0.000000000000
      0.000000000000
      0.000000000000
      0.000000000000
      0.000000000000
      0.000000000000
      0.000000000000
      0.000000000000
      0.000000000000
      0.000000000000
      0.000000000000
      0.000000000000
      0.000000000000
      0.000000000000
      0.000000000000
      0.000000000000
      0.000000000000
      0.000000000000
      0.000000000000
      0.000000000000
      0.000000000000
      0.000000000000
      0.000000000000
      0.000000000000
      0.000000000000
      0.000000000000
      0.000000000000
      0.000000000000
      0.000000000000
      0.000000000000
      0.000000000000
      0.000000000000
      0.000000000000
      0.000000000000
      0.000000000000
      0.000000000000
      0.000000000000
      0.000000000000
      0.000000000000
      0.000000000000
      0.000000000000
      0.000000000000
      0.000000000000
      0.000000000000
      0.000000000000
      0.000000000000
      0.000000000000
      0.000000000000
      0.000000000000
      0.000000000000
      0.000000000000
      0.000000000000
      0.000000000000
      0.000000000000
      0.000000000000
      0.000000000000
      0.000000000000
      0.000000000000
      0.000000000000
      0.000000000000
      0.000000000000
      0.000000000000
      0.000000000000
      0.000000000000
      0.000000000000
      0.000000000000
      0.000000000000
      0.000000000000
      0.000000000000
      0.000000000000
      0.000000000000
      0.000000000000
      0.000000000000
      0.000000000000
      0.000000000000
      0.000000000000
      0.000000000000
      0.000000000000
      0.000000000000
      0.000000000000
      0.000000000000
      0.000000000000
      0.000000000000
      0.000000000000
      0.000000000000
      0.000000000000
      0.000000000000
      0.000000000000
      0.000000000000
      0.000000000000
      0.000000000000
      0.000000000000
      0.000000000000
      0.000000000000
      0.000000000000
      0.000000000000
      0.000000000000
      0.000000000000
      0.000000000000
      0.000000000000
      0.000000000000
      0.000000000000
      0.000000000000
      0.000000000000
      0.000000000000
      0.000000000000
SCALARS C_p float 1
LOOKUP_TABLE default
      0.170247874343
      0.153603968124
      0.127628296650
      0.115202079182
      0.094638227484
      0.087779965498
      0.067714310659
      0.062500947085
      0.109776179225
      0.095591659905
      0.279272414205
      0.235892177281
      0.524788594433
      0.495055449084
      0.692489519636
      0.641090862558
     -0.576441631172
      0.034676375029
     -0.769421030970
     -0.463733208168
     -0.630411989833
     -0.558413458309
     -0.517179047107
     -0.535177659703
     -0.382342726688
     -0.344420375640
     -0.202392854704
     -0.159116433741
     -0.068597246277
     -0.000747945295
      0.073791155104
      0.149377829939
      0.168280851083
      0.169147939460
      0.127380770747
      0.127414332595
      0.100466491889
      0.094659050642
      0.069352460142
      0.067745399326
      0.096084700806
      0.084191377925
      0.233035277909
      0.216520827823
      0.453754481165
      0.457693205752
      0.523647457249
      0.425209985573
     -0.934108644899
     -0.580065571045
     -0.967913728343
     -0.734751555425
     -0.719626826014
     -0.633189453264
     -0.520588761721
     -0.527490629581
     -0.342893206052
     -0.309948948449
     -0.158369723547
     -0.110966210195
     -0.001594729769
      0.032977661243
      0.143728138603
      0.147439901415
      0.168154017004
      0.167591946248
      0.124711310141
      0.127103656615
      0.101417017389
      0.100388429899
      0.071429864468
      0.069417589130
      0.084743575515
      0.080370137871
      0.212553175946
      0.211090356364
      0.442451774490
      0.449776340471
      0.415177690634
      0.315433036797
     -1.239267406146
     -0.933388496049
     -1.144831975934
     -0.944286998339
     -0.792638289171
     -0.717144439375
     -0.524947019180
     -0.533254063797
     -0.308976299713
     -0.276268801172
     -0.110432914042
     -0.076953545877
      0.032038195022
      0.045194953886
      0.145673830620
      0.146701585505
      0.166332927781
      0.167457951296
      0.122441010239
      0.124393014404
      0.099668626995
      0.101268173955
      0.072927253833
      0.071482590477
      0.080461014225
      0.082785363984
      0.209120935521
      0.215963378458
      0.446056129956
      0.454654347795
      0.322308594494
      0.225412049323
     -1.500808556691
     -1.236559115887
     -1.290854832425
     -1.132498163106
     -0.851684008035
     -0.794686686396
     -0.526129940164
     -0.538450042246
     -0.275977585589
     -0.250620034380
     -0.076836979034
     -0.059829446950
      0.045044827286
      0.052158363699
      0.146738938278
      0.150552158408
      0.169349993672
      0.165707779578
      0.122066749205
      0.122084872529
      0.098268689287
      0.099459016476
      0.073281089967
      0.072891347793
      0.082746206323
      0.087788182424
      0.215676597980
      0.226604111513
      0.456706515232
      0.464752964354
      0.238827780792
      0.151286019022
     -1.711701327817
     -1.498870234624
     -1.402067177149
     -1.287454076468
     -0.893386324329
     -0.857298387552
     -0.527933427326
     -0.537676635986
     -0.251164990957
     -0.237882289242
     -0.059864183076
     -0.052305962999
      0.052435348011
      0.055276673654
      0.151194226333
      0.149952773005
      0.165783845431
      0.168473553998
      0.120158403145
      0.121605529183
      0.096912140316
      0.097989631322
      0.073323535027
      0.073159943344
      0.087710809494
      0.092235003853
      0.226968304553
      0.237387268618
      0.468455827282
      0.474686473404
      0.164612962758
      0.093529488741
     -1.867759543339
     -1.710933484287
     -1.480126454550
     -1.403012988334
     -0.922547982362
     -0.899088663221
     -0.532944980511
     -0.535345001849
     -0.238969912126
     -0.233831548010
     -0.052430588374
     -0.048505990293
      0.055757184252
      0.059532195699
      0.151211373610
      0.157104762572
      0.164257578484
      0.164960704699
      0.118114024300
      0.119650982579
      0.094907387525
      0.096575829870
      0.072577959628
      0.073142267881
      0.092093435952
      0.094825937857
      0.237612220890
      0.244897926441
      0.477493170492
      0.481477008448
      0.102907286758
      0.052143407384
     -1.974008823677
     -1.867508370809
     -1.532032135867
     -1.481579779301
     -0.942762589744
     -0.926254621825
     -0.538193636960
     -0.537107655473
     -0.235074143831
     -0.232573452206
     -0.048709910302
     -0.045478201717
      0.059983168906
      0.063294178687
      0.158236603419
      0.161651328698
      0.163285891114
      0.163217648129
      0.114964262354
      0.117474733504
      0.091139489215
      0.094496737436
      0.069732338146
      0.072356845838
      0.094581702313
      0.094435277203
      0.244711755689
      0.248025835994
      0.482699064890
      0.484703038800
      0.057183115380
      0.027234088195
     -2.035908142621
     -1.973860788922
     -1.561487813883
     -1.533066501403
     -0.953557256450
     -0.945204523958
     -0.539925807763
     -0.541115555156
     -0.233779555527
     -0.230047009844
     -0.045759251525
     -0.040930434495
      0.063726786642
      0.068279136680
      0.162922459851
      0.166045614574
      0.158643358804
      0.161649302191
      0.108041533678
      0.113980806654
      0.083400035139
      0.090555045715
      0.062812083976
      0.069459352936
      0.093984008114
      0.089530763260
      0.247260928319
      0.246045838199
      0.484354291751
      0.484697591881
      0.028891354718
      0.019721090294
     -2.055117505884
     -2.035883733363
     -1.568724557803
     -1.562737626282
     -0.953106148566
     -0.956163957566
     -0.534939356072
     -0.543201342488
     -0.231222653596
     -0.222637317572
     -0.041345492068
     -0.031152142444
      0.068738685990
      0.078872888481
      0.167717483682
      0.176520269200
      0.150610981144
      0.155865795851
      0.096500591223
      0.106333948412
      0.069922928339
      0.082421179369
      0.049508684173
      0.062423918612
      0.088645015299
      0.078110893855
      0.244357167067
      0.237867639956
      0.482493203998
      0.481352518670
      0.018258211954
      0.029944369633
     -2.032163526967
     -2.055315481326
     -1.553093853457
     -1.570909400203
     -0.939447868768
     -0.957092105090
     -0.520057231515
     -0.539986817672
     -0.223843612727
     -0.206588811296
     -0.031830963539
     -0.012151146769
      0.079337038707
      0.098865305151
      0.178818506078
      0.196276511596
      0.143277774496
      0.145627045267
      0.082328299917
      0.093264155333
      0.050985199702
      0.068027334084
      0.028137078670
      0.048830866473
      0.076314699172
      0.057717617192
      0.234589090679
      0.221876811639
      0.476439132161
      0.473923282752
      0.024558562976
      0.056432955578
     -1.969710298780
     -2.032630290810
     -1.515016243141
     -1.556780002755
     -0.911190995413
     -0.946001481710
     -0.492192555396
     -0.528693407667
     -0.207838268977
     -0.178449322442
     -0.013384927807
      0.019203849068
      0.099099548437
      0.131138761846
      0.199350290306
      0.227025072885
      0.135525048532
      0.133631237042
      0.066208533053
      0.075714916638
      0.027438664736
      0.046945964644
     -0.000526249779
      0.026669887343
      0.053939182697
      0.026291103737
      0.215720416476
      0.195593782483
      0.464644584885
      0.460924925868
      0.045186222696
      0.095638060960
     -1.873826479688
     -1.970421823206
     -1.456723731993
     -1.520679686878
     -0.867643826760
     -0.921833813178
     -0.448334394121
     -0.507446397488
     -0.179703147626
     -0.137604340060