# vtk DataFile Version 3.0
TriPan results file. Generated by TriPan, USU AeroLab (c) 2021.
ASCII
DATASET POLYDATA
POINTS                 144 float
  0.000000000000E+00  0.000000000000E+00  0.000000000000E+00
  0.113538098335E+01  0.000000000000E+00 -0.658124566078E+00
  0.113538098335E+01  0.000000000000E+00  0.658124566078E+00
  0.192375373840E+01  0.192375373840E+01  0.000000000000E+00
  0.305913543701E+01  0.192375373840E+01 -0.658124983311E+00
  0.305913543701E+01  0.192375373840E+01  0.658124983311E+00
  0.423028087616E+01  0.000000000000E+00 -0.108747220039E+01
  0.423028087616E+01  0.000000000000E+00  0.108747220039E+01
  0.547033166885E+01  0.547033166885E+01  0.000000000000E+00
  0.615403699875E+01  0.192375373840E+01 -0.108747279644E+01
  0.615403699875E+01  0.192375373840E+01  0.108747279644E+01
  0.660571479797E+01  0.547033166885E+01 -0.658125698566E+00
  0.660571479797E+01  0.547033166885E+01  0.658125698566E+00
  0.939508819580E+01  0.000000000000E+00 -0.980745851994E+00
  0.939508819580E+01  0.000000000000E+00  0.980745851994E+00
  0.970061969757E+01  0.547033166885E+01 -0.108747410774E+01
  0.970061969757E+01  0.547033166885E+01  0.108747410774E+01
  0.113188476562E+02  0.192375373840E+01 -0.980746448040E+00
  0.113188476562E+02  0.192375373840E+01  0.980746448040E+00
  0.113820018768E+02  0.113820018768E+02  0.000000000000E+00
  0.125173873901E+02  0.113820018768E+02 -0.658127009869E+00
  0.125173873901E+02  0.113820018768E+02  0.658127009869E+00
  0.145402030945E+02  0.000000000000E+00 -0.479613035917E+00
  0.145402030945E+02  0.000000000000E+00  0.479613035917E+00
  0.148654365540E+02  0.547033166885E+01 -0.980747580528E+00
  0.148654365540E+02  0.547033166885E+01  0.980747580528E+00
  0.156122989655E+02  0.113820018768E+02 -0.108747613430E+01
  0.156122989655E+02  0.113820018768E+02  0.108747613430E+01
  0.164639663696E+02  0.192375373840E+01 -0.479613333941E+00
  0.164639663696E+02  0.192375373840E+01  0.479613333941E+00
  0.176505107880E+02  0.000000000000E+00 -0.144198849797E+00
  0.176505107880E+02  0.000000000000E+00  0.144198849797E+00
  0.190000000000E+02  0.000000000000E+00  0.000000000000E+00
  0.195742740631E+02  0.192375373840E+01 -0.144198939204E+00
  0.195742740631E+02  0.192375373840E+01  0.144198939204E+00
  0.197561950684E+02  0.197561950684E+02  0.000000000000E+00
  0.200105609894E+02  0.547033166885E+01 -0.479613870382E+00
  0.200105609894E+02  0.547033166885E+01  0.479613870382E+00
  0.207771244049E+02  0.113820018768E+02 -0.980749428272E+00
  0.207771244049E+02  0.113820018768E+02  0.980749428272E+00
  0.208915824890E+02  0.197561950684E+02 -0.658128738403E+00
  0.208915824890E+02  0.197561950684E+02  0.658128738403E+00
  0.209237651825E+02  0.192375373840E+01  0.000000000000E+00
  0.231208724976E+02  0.547033166885E+01 -0.144199103117E+00
  0.231208724976E+02  0.547033166885E+01  0.144199103117E+00
  0.239865016937E+02  0.197561950684E+02 -0.108747911453E+01
  0.239865016937E+02  0.197561950684E+02  0.108747911453E+01
  0.244703655243E+02  0.547033166885E+01  0.000000000000E+00
  0.259222583771E+02  0.113820018768E+02 -0.479614794254E+00
  0.259222583771E+02  0.113820018768E+02  0.479614794254E+00
  0.290325775146E+02  0.113820018768E+02 -0.144199386239E+00
  0.290325775146E+02  0.113820018768E+02  0.144199386239E+00
  0.291513423920E+02  0.197561950684E+02 -0.980752110481E+00
  0.291513423920E+02  0.197561950684E+02  0.980752110481E+00
  0.292438049316E+02  0.292438049316E+02  0.000000000000E+00
  0.303791980743E+02  0.292438049316E+02 -0.658130764961E+00
  0.303791980743E+02  0.292438049316E+02  0.658130764961E+00
  0.303820724487E+02  0.113820018768E+02  0.000000000000E+00
  0.334741249084E+02  0.292438049316E+02 -0.108748245239E+01
  0.334741249084E+02  0.292438049316E+02  0.108748245239E+01
  0.342964897156E+02  0.197561950684E+02 -0.479616105556E+00
  0.342964897156E+02  0.197561950684E+02  0.479616105556E+00
  0.374068183899E+02  0.197561950684E+02 -0.144199773669E+00
  0.374068183899E+02  0.197561950684E+02  0.144199773669E+00
  0.376179962158E+02  0.376179962158E+02  0.000000000000E+00
  0.386389808655E+02  0.292438049316E+02 -0.980755090714E+00
  0.386389808655E+02  0.292438049316E+02  0.980755090714E+00
  0.387533912659E+02  0.376179962158E+02 -0.658132553101E+00
  0.387533912659E+02  0.376179962158E+02  0.658132553101E+00
  0.387563171387E+02  0.197561950684E+02  0.000000000000E+00
  0.418483314514E+02  0.376179962158E+02 -0.108748543262E+01
  0.418483314514E+02  0.376179962158E+02  0.108748543262E+01
  0.435296669006E+02  0.435296669006E+02  0.000000000000E+00
  0.437841453552E+02  0.292438049316E+02 -0.479617565870E+00
  0.437841453552E+02  0.292438049316E+02  0.479617565870E+00
  0.446650657654E+02  0.435296669006E+02 -0.658133804798E+00
  0.446650657654E+02  0.435296669006E+02  0.658133804798E+00
  0.468944816589E+02  0.292438049316E+02 -0.144200220704E+00
  0.468944816589E+02  0.292438049316E+02  0.144200220704E+00
  0.470131988525E+02  0.376179962158E+02 -0.980757772923E+00
  0.470131988525E+02  0.376179962158E+02  0.980757772923E+00
  0.470762481689E+02  0.470762481689E+02  0.000000000000E+00
  0.477600097656E+02  0.435296669006E+02 -0.108748745918E+01
  0.477600097656E+02  0.435296669006E+02  0.108748745918E+01
  0.482116432190E+02  0.470762481689E+02 -0.658134579659E+00
  0.482116432190E+02  0.470762481689E+02  0.658134579659E+00
  0.482439842224E+02  0.292438049316E+02  0.000000000000E+00
  0.490000000000E+02  0.490000000000E+02  0.000000000000E+00
  0.501353988647E+02  0.490000000000E+02 -0.658134996891E+00
  0.501353988647E+02  0.490000000000E+02  0.658134996891E+00
  0.506007728577E+02  0.494653701782E+02 -0.465371757746E+00
  0.506007728577E+02  0.494653701782E+02  0.465371757746E+00
  0.507935333252E+02  0.496581344604E+02 -0.771266485397E-15
  0.513065910339E+02  0.470762481689E+02 -0.108748877048E+01
  0.513065910339E+02  0.470762481689E+02  0.108748877048E+01
  0.521583786011E+02  0.376179962158E+02 -0.479618877172E+00
  0.521583786011E+02  0.376179962158E+02  0.479618877172E+00
  0.529248886108E+02  0.435296669006E+02 -0.980759620667E+00
  0.529248886108E+02  0.435296669006E+02  0.980759620667E+00
  0.532303466797E+02  0.490000000000E+02 -0.108748936653E+01
  0.532303466797E+02  0.490000000000E+02  0.108748936653E+01
  0.539993209839E+02  0.497689704895E+02 -0.768971264362E+00
  0.539993209839E+02  0.497689704895E+02  0.768971264362E+00
  0.543178405762E+02  0.500874900818E+02 -0.157378642191E-15
  0.552687225342E+02  0.376179962158E+02 -0.144200608134E+00
  0.552687225342E+02  0.376179962158E+02  0.144200608134E+00
  0.564714775085E+02  0.470762481689E+02 -0.980760753155E+00
  0.564714775085E+02  0.470762481689E+02  0.980760753155E+00
  0.566182289124E+02  0.376179962158E+02  0.000000000000E+00
  0.580700759888E+02  0.435296669006E+02 -0.479619771242E+00
  0.580700759888E+02  0.435296669006E+02  0.479619771242E+00
  0.583952369690E+02  0.490000000000E+02 -0.980761349201E+00
  0.583952369690E+02  0.490000000000E+02  0.980761349201E+00
  0.590887413025E+02  0.496935043335E+02 -0.693503141403E+00
  0.590887413025E+02  0.496935043335E+02  0.693503141403E+00
  0.593759994507E+02  0.499807624817E+02  0.000000000000E+00
  0.611804275513E+02  0.435296669006E+02 -0.144200876355E+00
  0.611804275513E+02  0.435296669006E+02  0.144200876355E+00
  0.616166725159E+02  0.470762481689E+02 -0.479620337486E+00
  0.616166725159E+02  0.470762481689E+02  0.479620337486E+00
  0.625299339294E+02  0.435296669006E+02  0.000000000000E+00
  0.635404319763E+02  0.490000000000E+02 -0.479620635509E+00
  0.635404319763E+02  0.490000000000E+02  0.479620635509E+00
  0.638795776367E+02  0.493391418457E+02 -0.339143037796E+00
  0.638795776367E+02  0.493391418457E+02  0.339143037796E+00
  0.640200576782E+02  0.494796218872E+02  0.296956834055E-15
  0.647270278931E+02  0.470762481689E+02 -0.144201040268E+00
  0.647270278931E+02  0.470762481689E+02  0.144201040268E+00
  0.660765380859E+02  0.470762481689E+02  0.000000000000E+00
  0.666507873535E+02  0.490000000000E+02 -0.144201144576E+00
  0.666507873535E+02  0.490000000000E+02  0.144201144576E+00
  0.667527542114E+02  0.491019668579E+02 -0.101965606213E+00
  0.667527542114E+02  0.491019668579E+02  0.101965606213E+00
  0.667949905396E+02  0.491441993713E+02 -0.260488604752E-16
  0.680002975464E+02  0.490000000000E+02  0.000000000000E+00
  0.209237651825E+02  0.192375373840E+01  0.000000000000E+00
  0.190000000000E+02  0.000000000000E+00  0.000000000000E+00
  0.244703655243E+02  0.547033166885E+01  0.000000000000E+00
  0.303820724487E+02  0.113820018768E+02  0.000000000000E+00
  0.387563171387E+02  0.197561950684E+02  0.000000000000E+00
  0.482439842224E+02  0.292438049316E+02  0.000000000000E+00
  0.566182289124E+02  0.376179962158E+02  0.000000000000E+00
  0.625299339294E+02  0.435296669006E+02  0.000000000000E+00
  0.660765380859E+02  0.470762481689E+02  0.000000000000E+00
POLYGONS                 256                1024
3                  32                  33                  42
3                  32                  30                  33
3                  30                  28                  33
3                  30                  22                  28
3                  22                  17                  28
3                  22                  13                  17
3                  13                   6                  17
3                  17                   6                   9
3                   6                   1                   9
3                   9                   1                   4
3                   1                   0                   4
3                   4                   0                   3
3                   0                   5                   3
3                   0                   2                   5
3                   2                  10                   5
3                   2                   7                  10
[...]
CELL_DATA                 256
SCALARS sigma float 1
LOOKUP_TABLE default
  0.000000000000E+00
  0.000000000000E+00
  0.000000000000E+00
  0.000000000000E+00
  0.000000000000E+00
  0.000000000000E+00
  0.000000000000E+00
  0.000000000000E+00
  0.000000000000E+00
  0.000000000000E+00
  0.000000000000E+00
  0.000000000000E+00
  0.000000000000E+00
  0.000000000000E+00
  0.000000000000E+00
  0.000000000000E+00
  0.000000000000E+00
  0.000000000000E+00
  0.000000000000E+00
  0.000000000000E+00
  0.000000000000E+00
  0.000000000000E+00
  0.000000000000E+00
  0.000000000000E+00
  0.000000000000E+00
  0.000000000000E+00
  0.000000000000E+00
  0.000000000000E+00
  0.000000000000E+00
  0.000000000000E+00
  0.000000000000E+00
  0.000000000000E+00
  0.000000000000E+00
  0.000000000000E+00
  0.000000000000E+00
  0.000000000000E+00
  0.000000000000E+00
  0.000000000000E+00
  0.000000000000E+00
  0.000000000000E+00
  0.000000000000E+00
  0.000000000000E+00
  0.000000000000E+00
  0.000000000000E+00
  0.000000000000E+00
  0.000000000000E+00
  0.000000000000E+00
  0.000000000000E+00
  0.000000000000E+00
  0.000000000000E+00
  0.000000000000E+00
  0.000000000000E+00
  0.000000000000E+00
  0.000000000000E+00
  0.000000000000E+00
  0.000000000000E+00
  0.000000000000E+00
  0.000000000000E+00
  0.000000000000E+00
  0.000000000000E+00
  0.000000000000E+00
  0.000000000000E+00
  0.000000000000E+00
  0.000000000000E+00
  0.000000000000E+00
  0.000000000000E+00
  0.000000000000E+00
  0.000000000000E+00
  0.000000000000E+00
  0.000000000000E+00
  0.000000000000E+00
  0.000000000000E+00
  0.000000000000E+00
  0.000000000000E+00
  0.000000000000E+00
  0.000000000000E+00
  0.000000000000E+00
  0.000000000000E+00
  0.000000000000E+00
  0.000000000000E+00
  0.000000000000E+00
  0.000000000000E+00
  0.000000000000E+00
  0.000000000000E+00
  0.000000000000E+00
  0.000000000000E+00
  0.000000000000E+00
  0.000000000000E+00
  0.000000000000E+00
  0.000000000000E+00
  0.000000000000E+00
  0.000000000000E+00
  0.000000000000E+00
  0.000000000000E+00
  0.000000000000E+00
  0.000000000000E+00
  0.000000000000E+00
  0.000000000000E+00
  0.000000000000E+00
  0.000000000000E+00
  0.000000000000E+00
  0.000000000000E+00
  0.000000000000E+00
  0.000000000000E+00
  0.000000000000E+00
  0.000000000000E+00
  0.000000000000E+00
  0.000000000000E+00
  0.000000000000E+00
  0.000000000000E+00
  0.000000000000E+00
  0.000000000000E+00
  0.000000000000E+00
  0.000000000000E+00
  0.000000000000E+00
  0.000000000000E+00
  0.000000000000E+00
  0.000000000000E+00
  0.000000000000E+00
  0.000000000000E+00
  0.000000000000E+00
  0.000000000000E+00
  0.000000000000E+00
  0.000000000000E+00
  0.000000000000E+00
  0.000000000000E+00
  0.000000000000E+00
  0.000000000000E+00
  0.000000000000E+00
  0.000000000000E+00
  0.000000000000E+00
  0.000000000000E+00
  0.000000000000E+00
  0.000000000000E+00
  0.000000000000E+00
  0.000000000000E+00
  0.000000000000E+00
  0.000000000000E+00
  0.000000000000E+00
  0.000000000000E+00
  0.000000000000E+00
  0.000000000000E+00
  0.000000000000E+00
  0.000000000000E+00
  0.000000000000E+00
  0.000000000000E+00
  0.000000000000E+00
  0.000000000000E+00
  0.000000000000E+00
  0.000000000000E+00
  0.000000000000E+00
  0.000000000000E+00
  0.000000000000E+00
  0.000000000000E+00
  0.000000000000E+00
  0.000000000000E+00
  0.000000000000E+00
  0.000000000000E+00
  0.000000000000E+00
  0.000000000000E+00
  0.000000000000E+00
  0.000000000000E+00
  0.000000000000E+00
  0.000000000000E+00
  0.000000000000E+00
  0.000000000000E+00
  0.000000000000E+00
  0.000000000000E+00
  0.000000000000E+00
  0.000000000000E+00
  0.000000000000E+00
  0.000000000000E+00
  0.000000000000E+00
  0.000000000000E+00
  0.000000000000E+00
  0.000000000000E+00
  0.000000000000E+00
  0.000000000000E+00
  0.000000000000E+00
  0.000000000000E+00
  0.000000000000E+00
  0.000000000000E+00
  0.000000000000E+00
  0.000000000000E+00
  0.000000000000E+00
  0.000000000000E+00
  0.000000000000E+00
  0.000000000000E+00
  0.000000000000E+00
  0.000000000000E+00
  0.000000000000E+00
  0.000000000000E+00
  0.000000000000E+00
  0.000000000000E+00
  0.000000000000E+00
  0.000000000000E+00
  0.000000000000E+00
  0.000000000000E+00
  0.000000000000E+00
  0.000000000000E+00
  0.000000000000E+00
  0.000000000000E+00
  0.000000000000E+00
  0.000000000000E+00
  0.000000000000E+00
  0.000000000000E+00
  0.000000000000E+00
  0.000000000000E+00
  0.000000000000E+00
  0.000000000000E+00
  0.000000000000E+00
  0.000000000000E+00
  0.000000000000E+00
  0.000000000000E+00
  0.000000000000E+00
  0.000000000000E+00
  0.000000000000E+00
  0.000000000000E+00
  0.000000000000E+00
  0.000000000000E+00
  0.000000000000E+00
  0.000000000000E+00
  0.000000000000E+00
  0.000000000000E+00
  0.000000000000E+00
  0.000000000000E+00
  0.000000000000E+00
  0.000000000000E+00
  0.000000000000E+00
  0.000000000000E+00
  0.000000000000E+00
  0.000000000000E+00
  0.000000000000E+00
  0.000000000000E+00
  0.000000000000E+00
  0.000000000000E+00
  0.000000000000E+00
  0.000000000000E+00
  0.000000000000E+00
  0.000000000000E+00
  0.000000000000E+00
  0.000000000000E+00
  0.000000000000E+00
  0.000000000000E+00
  0.000000000000E+00
  0.000000000000E+00
  0.000000000000E+00
  0.000000000000E+00
  0.000000000000E+00
  0.000000000000E+00
  0.000000000000E+00
  0.000000000000E+00
  0.000000000000E+00
  0.000000000000E+00
  0.000000000000E+00
  0.000000000000E+00
SCALARS inclination float 1
LOOKUP_TABLE default
  0.100000000000E+01
  0.100000000000E+01
  0.100000000000E+01
  0.100000000000E+01
  0.100000000000E+01
  0.100000000000E+01
  0.100000000000E+01
  0.100000000000E+01
  0.100000000000E+01
  0.100000000000E+01
  0.100000000000E+01
  0.100000000000E+01
  0.100000000000E+01
  0.100000000000E+01
  0.100000000000E+01
  0.100000000000E+01
  0.100000000000E+01
  0.100000000000E+01
  0.100000000000E+01
  0.100000000000E+01
  0.100000000000E+01
  0.100000000000E+01
  0.100000000000E+01
  0.100000000000E+01
  0.100000000000E+01
  0.100000000000E+01
  0.100000000000E+01
  0.100000000000E+01
  0.100000000000E+01
  0.100000000000E+01
  0.100000000000E+01
  0.100000000000E+01
  0.100000000000E+01
  0.100000000000E+01
  0.100000000000E+01
  0.100000000000E+01
  0.100000000000E+01
  0.100000000000E+01
  0.100000000000E+01
  0.100000000000E+01
  0.100000000000E+01
  0.100000000000E+01
  0.100000000000E+01
  0.100000000000E+01
  0.100000000000E+01
  0.100000000000E+01
  0.100000000000E+01
  0.100000000000E+01
  0.100000000000E+01
  0.100000000000E+01
  0.100000000000E+01
  0.100000000000E+01
  0.100000000000E+01
  0.100000000000E+01
  0.100000000000E+01
  0.100000000000E+01
  0.100000000000E+01
  0.100000000000E+01
  0.100000000000E+01
  0.100000000000E+01
  0.100000000000E+01
  0.100000000000E+01
  0.100000000000E+01
  0.100000000000E+01
  0.100000000000E+01
  0.100000000000E+01
  0.100000000000E+01
  0.100000000000E+01
  0.100000000000E+01
  0.100000000000E+01
  0.100000000000E+01
  0.100000000000E+01
  0.100000000000E+01
  0.100000000000E+01
  0.100000000000E+01
  0.100000000000E+01
  0.100000000000E+01
  0.100000000000E+01
  0.100000000000E+01
  0.100000000000E+01
  0.100000000000E+01
  0.100000000000E+01
  0.100000000000E+01
  0.100000000000E+01
  0.100000000000E+01
  0.100000000000E+01
  0.100000000000E+01
  0.100000000000E+01
  0.100000000000E+01
  0.100000000000E+01
  0.100000000000E+01
  0.100000000000E+01
  0.100000000000E+01
  0.100000000000E+01
  0.100000000000E+01
  0.100000000000E+01
  0.100000000000E+01
  0.100000000000E+01
  0.100000000000E+01
  0.100000000000E+01
  0.100000000000E+01
  0.100000000000E+01
  0.100000000000E+01
  0.100000000000E+01
  0.100000000000E+01
  0.100000000000E+01
  0.100000000000E+01
  0.100000000000E+01
  0.100000000000E+01
  0.100000000000E+01
  0.100000000000E+01
  0.100000000000E+01
  0.100000000000E+01
  0.100000000000E+01
  0.100000000000E+01
  0.100000000000E+01
  0.100000000000E+01
  0.100000000000E+01
  0.100000000000E+01
  0.100000000000E+01
  0.100000000000E+01
  0.100000000000E+01
  0.100000000000E+01
  0.100000000000E+01
  0.100000000000E+01
  0.100000000000E+01
  0.100000000000E+01
  0.100000000000E+01
  0.100000000000E+01
  0.100000000000E+01
  0.100000000000E+01
  0.100000000000E+01
  0.100000000000E+01
  0.100000000000E+01
  0.100000000000E+01
  0.100000000000E+01
  0.100000000000E+01
  0.100000000000E+01
  0.100000000000E+01
  0.100000000000E+01
  0.100000000000E+01
  0.100000000000E+01
  0.100000000000E+01
  0.100000000000E+01
  0.100000000000E+01
  0.100000000000E+01
  0.100000000000E+01
  0.100000000000E+01
  0.100000000000E+01
  0.100000000000E+01
  0.100000000000E+01
  0.100000000000E+01
  0.100000000000E+01
  0.100000000000E+01
  0.100000000000E+01
  0.100000000000E+01
  0.100000000000E+01
  0.100000000000E+01
  0.100000000000E+01
  0.100000000000E+01
  0.100000000000E+01
  0.100000000000E+01
  0.100000000000E+01
  0.100000000000E+01
  0.100000000000E+01
  0.100000000000E+01
  0.100000000000E+01
  0.100000000000E+01
  0.100000000000E+01
  0.100000000000E+01
  0.100000000000E+01
  0.100000000000E+01
  0.100000000000E+01
  0.100000000000E+01
  0.100000000000E+01
  0.100000000000E+01
  0.100000000000E+01
  0.100000000000E+01
  0.100000000000E+01
  0.100000000000E+01
  0.100000000000E+01
  0.100000000000E+01
  0.100000000000E+01
  0.100000000000E+01
  0.100000000000E+01
  0.100000000000E+01
  0.100000000000E+01
  0.100000000000E+01
  0.100000000000E+01
  0.100000000000E+01
  0.100000000000E+01
  0.100000000000E+01
  0.100000000000E+01
  0.100000000000E+01
  0.100000000000E+01
  0.100000000000E+01
  0.100000000000E+01
  0.100000000000E+01
  0.100000000000E+01
  0.100000000000E+01
  0.100000000000E+01
  0.100000000000E+01
  0.100000000000E+01
  0.100000000000E+01
  0.100000000000E+01
  0.100000000000E+01
  0.100000000000E+01
  0.100000000000E+01
  0.100000000000E+01
  0.100000000000E+01
  0.100000000000E+01
  0.100000000000E+01
  0.100000000000E+01
  0.100000000000E+01
  0.100000000000E+01
  0.100000000000E+01
  0.100000000000E+01
  0.100000000000E+01
  0.100000000000E+01
  0.100000000000E+01
  0.100000000000E+01
  0.100000000000E+01
  0.100000000000E+01
  0.100000000000E+01
  0.100000000000E+01
  0.100000000000E+01
  0.100000000000E+01
  0.100000000000E+01
  0.100000000000E+01
  0.100000000000E+01
  0.100000000000E+01
  0.100000000000E+01
  0.100000000000E+01
  0.100000000000E+01
  0.100000000000E+01
  0.100000000000E+01
  0.100000000000E+01
  0.100000000000E+01
  0.100000000000E+01
  0.100000000000E+01
  0.100000000000E+01
  0.100000000000E+01
  0.100000000000E+01
  0.100000000000E+01
  0.100000000000E+01
  0.100000000000E+01
  0.100000000000E+01
  0.100000000000E+01
  0.100000000000E+01
  0.100000000000E+01
  0.100000000000E+01
  0.100000000000E+01
  0.100000000000E+01
  0.100000000000E+01
  0.100000000000E+01
  0.100000000000E+01
VECTORS v float
  0.151782599319E+03  0.362403865538E+01  0.158313781141E+02
  0.154357599232E+03  0.288192562288E+01  0.161858394062E+02
  0.157988417051E+03 -0.748910151823E+00  0.171181732247E+02
  0.160128651349E+03  0.586290904143E+00  0.172049761620E+02
  0.163828195594E+03 -0.311327182724E+01  0.162600539107E+02
  0.165373272595E+03 -0.551804529266E+00  0.161610584985E+02
  0.164294538038E+03  0.526929277737E+00  0.338411808541E+01
  0.165818453004E+03 -0.509652216995E+01  0.353181195341E+01
  0.146894614430E+03  0.138273330433E+02 -0.184600892915E+02
  0.153939457817E+03 -0.536342820747E+01 -0.220996828595E+02
  0.903703978247E+02  0.582056561697E+02 -0.186443203168E+02
  0.936277445939E+02  0.509389136486E+02 -0.247446177685E+02
  0.157624992026E+03 -0.130583337830E+02  0.989367373869E+02
  0.137343231509E+03  0.321877951415E+02  0.609534394136E+02
  0.198317015787E+03 -0.287860054204E+02  0.315054191025E+02
  0.188942438452E+03 -0.324884806881E+01  0.266622106286E+02
  0.193510530196E+03 -0.781693592450E+01 -0.416026070649E+01
  0.193841001814E+03 -0.903642089375E+01 -0.419229266197E+01
  0.185115804522E+03 -0.311193352755E+00 -0.180605402234E+02
  0.180938165515E+03 -0.723698684688E+01 -0.183282114757E+02
  0.172543876278E+03  0.115734402814E+01 -0.184822459413E+02
  0.166968465908E+03 -0.232091993308E+01 -0.182561041149E+02
  0.160658117056E+03  0.398946013101E+01 -0.167407318450E+02
  0.154020241233E+03  0.590249242475E+01 -0.158270157433E+02
  0.151810437649E+03  0.728997720384E+01  0.154426245435E+02
  0.151823891153E+03  0.728173717509E+01  0.154449469504E+02
  0.157340313786E+03  0.176528271095E+01  0.167771488566E+02
  0.158016451574E+03  0.168977286818E+01  0.168582082624E+02
  0.162741827399E+03 -0.303562530148E+01  0.161466803174E+02
  0.163833626371E+03 -0.253538349589E+01  0.162042962938E+02
  0.165818698879E+03 -0.452046619278E+01  0.351991335801E+01
  0.166111229761E+03 -0.523963403640E+01  0.354082127089E+01
  0.154167319080E+03  0.670428383057E+01 -0.204571726241E+02
  0.154767631223E+03  0.555065477073E+01 -0.207004984137E+02
  0.967931214674E+02  0.635251881958E+02 -0.192837842452E+02
  0.934794513732E+02  0.688263197352E+02 -0.142902065963E+02
  0.171595121651E+03 -0.928935054307E+01  0.104849822557E+03
  0.162308997950E+03  0.556636792398E+01  0.908560008437E+02
  0.204085491044E+03 -0.362101304198E+02  0.333356047515E+02
  0.198383726304E+03 -0.252529674143E+02  0.310245444478E+02
  0.193322104151E+03 -0.201913253546E+02 -0.441208060864E+01
  0.193505056422E+03 -0.206411013170E+02 -0.442515317778E+01
  0.180930371279E+03 -0.806637282316E+01 -0.184082346696E+02
  0.177251181810E+03 -0.975210880175E+01 -0.182140752080E+02
  0.167000874369E+03  0.498246835734E+00 -0.179555794856E+02
  0.163740304597E+03  0.862382053772E+00 -0.175646903990E+02
  0.154072484181E+03  0.105302582595E+02 -0.153380981733E+02
  0.152752013312E+03  0.113390399672E+02 -0.151105735188E+02
  0.151762318559E+03  0.856129196215E+01  0.153016450487E+02
  0.151824253178E+03  0.851378022791E+01  0.153133313613E+02
  0.157302016390E+03  0.303598482535E+01  0.166359769478E+02
  0.157354640230E+03  0.301151995664E+01  0.166442992996E+02
  0.162335583326E+03 -0.196944614002E+01  0.160032658770E+02
  0.162751376409E+03 -0.201951535983E+01  0.160486409262E+02
  0.166111170140E+03 -0.537932302645E+01  0.354370652273E+01
  0.165286867548E+03 -0.383396997884E+01  0.349473908403E+01
  0.154788657993E+03  0.666424742324E+01 -0.205489295427E+02
  0.153218351627E+03  0.909698334049E+01 -0.199935883297E+02
  0.934813786611E+02  0.688339816641E+02 -0.142868816842E+02
  0.896231266552E+02  0.740166600970E+02 -0.904629929679E+01
  0.177535486001E+03 -0.138956992484E+02  0.110963220922E+03
  0.172229234972E+03 -0.676796702155E+01  0.103755865024E+03
  0.206713497724E+03 -0.412522282973E+02  0.343996406960E+02
  0.204067682046E+03 -0.371533040290E+02  0.334639787068E+02
  0.192584078124E+03 -0.256696694899E+02 -0.451003687969E+01
  0.193319177600E+03 -0.270477898871E+02 -0.455370521058E+01
  0.177239752406E+03 -0.109683123984E+02 -0.183314205559E+02
  0.175518831015E+03 -0.107610814178E+02 -0.181436187460E+02
  0.163742067517E+03  0.101573613243E+01 -0.175483427834E+02
  0.162671509599E+03  0.151344936035E+01 -0.173792112403E+02
  0.152753062233E+03  0.114319550185E+02 -0.151007571460E+02
  0.152157183635E+03  0.118890679371E+02 -0.149882485911E+02
  0.151845804919E+03  0.958924722761E+01  0.152007217026E+02
  0.151774594797E+03  0.964874183937E+01  0.151867574472E+02
  0.157427688135E+03  0.399561637559E+01  0.165460373761E+02
  0.157313861421E+03  0.406636935173E+01  0.165261375485E+02
  0.162314735336E+03 -0.934527441368E+00  0.159004360995E+02
  0.162345200990E+03 -0.946030489866E+00  0.159045216181E+02
  0.165286844620E+03 -0.388768680401E+01  0.349584866988E+01
  0.164824708688E+03 -0.314020629642E+01  0.347085212544E+01
  0.153206661110E+03  0.847784613175E+01 -0.200778580161E+02
  0.151768480396E+03  0.104719597395E+02 -0.196017136288E+02
  0.893419221736E+02  0.728985342584E+02 -0.953142677196E+01
  0.867148031183E+02  0.761496232279E+02 -0.612411973756E+01
  0.179953571099E+03 -0.170891447531E+02  0.114216056689E+03
  0.177496928783E+03 -0.140490136219E+02  0.111029738943E+03
  0.207632024209E+03 -0.441841002042E+02  0.349338114100E+02
  0.206682985195E+03 -0.428682062712E+02  0.346195865990E+02
  0.192355059810E+03 -0.285402506244E+02 -0.456462299542E+01
  0.192582695708E+03 -0.289084396961E+02 -0.457693614839E+01
  0.175508744066E+03 -0.118344331207E+02 -0.182471811435E+02
  0.174963924064E+03 -0.116287253051E+02 -0.181740822735E+02
  0.162661852620E+03  0.673402067570E+00 -0.174687607531E+02
  0.162111799048E+03  0.101530588904E+01 -0.173725668212E+02
  0.152146923819E+03  0.109802377539E+02 -0.150842654332E+02
  0.151654512407E+03  0.113916372033E+02 -0.149876869280E+02
  0.152340870030E+03  0.107030939242E+02  0.151346057566E+02
  0.151862990375E+03  0.111115640678E+02  0.150398910034E+02
  0.158056906827E+03  0.491761281919E+01  0.165144731681E+02
  0.157442986204E+03  0.532637514845E+01  0.164041777807E+02
  0.162842873324E+03 -0.735381072824E-01  0.158680111356E+02
  0.162325017727E+03  0.159621567064E+00  0.157948671162E+02
  0.164825050062E+03 -0.234042218291E+01  0.345433201633E+01
  0.165113686530E+03 -0.278635746746E+01  0.346951286764E+01
  0.151770090843E+03  0.105572488848E+02 -0.195901049155E+02
  0.151579829352E+03  0.108123707682E+02 -0.195283292516E+02
  0.866199187437E+02  0.757723233827E+02 -0.628781191367E+01
  0.858995638838E+02  0.766428516017E+02 -0.536565433248E+01
  0.180526426180E+03 -0.179840106944E+02  0.115066597427E+03
  0.179914493144E+03 -0.172445236321E+02  0.114283473010E+03
  0.207643335650E+03 -0.449733659356E+02  0.350448959950E+02
  0.207617768604E+03 -0.449390819867E+02  0.350365711813E+02
  0.191889867358E+03 -0.292111446739E+02 -0.456887575177E+01
  0.192354467075E+03 -0.299289382173E+02 -0.459330722294E+01
  0.174955455445E+03 -0.125298698268E+02 -0.182610293088E+02
  0.174158464452E+03 -0.121710327003E+02 -0.181484464223E+02
  0.162098847216E+03 -0.111357379266E+00 -0.174926696664E+02
  0.161016640920E+03  0.609201148691E+00 -0.172982697368E+02
  0.151638658092E+03  0.998723666341E+01 -0.151360601011E+02
  0.150509874940E+03  0.109520702011E+02 -0.149123516055E+02
  0.152822320833E+03  0.133162279767E+02  0.149068218627E+02
  0.152374592669E+03  0.136902952442E+02  0.148190113101E+02
  0.159256056288E+03  0.680879094932E+01  0.164398486004E+02
  0.158087000924E+03  0.753545387066E+01  0.162354096012E+02
  0.164468616293E+03  0.115380647283E+01  0.159068105732E+02
  0.162860114756E+03  0.176112279786E+01  0.156909938506E+02
  0.165114665223E+03 -0.493438787877E+00  0.342215100368E+01
  0.166722425173E+03 -0.309391221450E+01  0.350911362262E+01
  0.151602741119E+03  0.120257912495E+02 -0.193631727024E+02
  0.153002459124E+03  0.100850054907E+02 -0.198265627933E+02
  0.860090956847E+02  0.770783873172E+02 -0.517669240826E+01
  0.872116574527E+02  0.755902018888E+02 -0.673638503207E+01
  0.179480266313E+03 -0.166784069716E+02  0.113703515310E+03
  0.180528532155E+03 -0.179756393558E+02  0.115062964244E+03
  0.206533611567E+03 -0.439807075422E+02  0.347531819872E+02
  0.207633288261E+03 -0.455054737146E+02  0.351173213174E+02
  0.190531745753E+03 -0.284038859386E+02 -0.452413266647E+01
  0.191889274706E+03 -0.305996228553E+02 -0.459755591833E+01
  0.174151968597E+03 -0.128622558248E+02 -0.182151391807E+02
  0.172156335941E+03 -0.121087722580E+02 -0.179473716221E+02
  0.160998704250E+03 -0.951084733931E+00 -0.174645970818E+02
  0.158043175242E+03  0.886017460961E+00 -0.169477656093E+02
  0.150481602340E+03  0.844763505979E+01 -0.151769416688E+02
  0.147148583443E+03  0.112323004767E+02 -0.145232365301E+02
  0.142015087441E+03  0.300328052673E+02  0.119657960397E+02
  0.152916626734E+03  0.216699991315E+02  0.140242568299E+02
  0.161234410291E+03  0.133521673559E+02  0.159475447094E+02
  0.159341394458E+03  0.142322405387E+02  0.156485051230E+02
  0.168118742935E+03  0.545485244384E+01  0.158434154106E+02