# vtk DataFile Version 3.0
TriPan results file. Generated by TriPan, USU AeroLab (c) 2021.
ASCII
DATASET POLYDATA
POINTS                 144 float
  0.000000000000E+00  0.000000000000E+00  0.000000000000E+00
  0.113538098335E+01  0.000000000000E+00 -0.658124566078E+00
  0.113538098335E+01  0.000000000000E+00  0.658124566078E+00
  0.192375373840E+01  0.192375373840E+01  0.000000000000E+00
  0.305913543701E+01  0.192375373840E+01 -0.658124983311E+00
  0.305913543701E+01  0.192375373840E+01  0.658124983311E+00
  0.423028087616E+01  0.000000000000E+00 -0.108747220039E+01
  0.423028087616E+01  0.000000000000E+00  0.108747220039E+01
  0.547033166885E+01  0.547033166885E+01  0.000000000000E+00
  0.615403699875E+01  0.192375373840E+01 -0.108747279644E+01
  0.615403699875E+01  0.192375373840E+01  0.108747279644E+01
  0.660571479797E+01  0.547033166885E+01 -0.658125698566E+00
  0.660571479797E+01  0.547033166885E+01  0.658125698566E+00
  0.939508819580E+01  0.000000000000E+00 -0.980745851994E+00
  0.939508819580E+01  0.000000000000E+00  0.980745851994E+00
  0.970061969757E+01  0.547033166885E+01 -0.108747410774E+01
  0.970061969757E+01  0.547033166885E+01  0.108747410774E+01
  0.113188476562E+02  0.192375373840E+01 -0.980746448040E+00
  0.113188476562E+02  0.192375373840E+01  0.980746448040E+00
  0.113820018768E+02  0.113820018768E+02  0.000000000000E+00
  0.125173873901E+02  0.113820018768E+02 -0.658127009869E+00
  0.125173873901E+02  0.113820018768E+02  0.658127009869E+00
  0.145402030945E+02  0.000000000000E+00 -0.479613035917E+00
  0.145402030945E+02  0.000000000000E+00  0.479613035917E+00
  0.148654365540E+02  0.547033166885E+01 -0.980747580528E+00
  0.148654365540E+02  0.547033166885E+01  0.980747580528E+00
  0.156122989655E+02  0.113820018768E+02 -0.108747613430E+01
  0.156122989655E+02  0.113820018768E+02  0.108747613430E+01
  0.164639663696E+02  0.192375373840E+01 -0.479613333941E+00
  0.164639663696E+02  0.192375373840E+01  0.479613333941E+00
  0.176505107880E+02  0.000000000000E+00 -0.144198849797E+00
  0.176505107880E+02  0.000000000000E+00  0.144198849797E+00
  0.190000000000E+02  0.000000000000E+00  0.000000000000E+00
  0.195742740631E+02  0.192375373840E+01 -0.144198939204E+00
  0.195742740631E+02  0.192375373840E+01  0.144198939204E+00
  0.197561950684E+02  0.197561950684E+02  0.000000000000E+00
  0.200105609894E+02  0.547033166885E+01 -0.479613870382E+00
  0.200105609894E+02  0.547033166885E+01  0.479613870382E+00
  0.207771244049E+02  0.113820018768E+02 -0.980749428272E+00
  0.207771244049E+02  0.113820018768E+02  0.980749428272E+00
  0.208915824890E+02  0.197561950684E+02 -0.658128738403E+00
  0.208915824890E+02  0.197561950684E+02  0.658128738403E+00
  0.209237651825E+02  0.192375373840E+01  0.000000000000E+00
  0.231208724976E+02  0.547033166885E+01 -0.144199103117E+00
  0.231208724976E+02  0.547033166885E+01  0.144199103117E+00
  0.239865016937E+02  0.197561950684E+02 -0.108747911453E+01
  0.239865016937E+02  0.197561950684E+02  0.108747911453E+01
  0.244703655243E+02  0.547033166885E+01  0.000000000000E+00
  0.259222583771E+02  0.113820018768E+02 -0.479614794254E+00
  0.259222583771E+02  0.113820018768E+02  0.479614794254E+00
  0.290325775146E+02  0.113820018768E+02 -0.144199386239E+00
  0.290325775146E+02  0.113820018768E+02  0.144199386239E+00
  0.291513423920E+02  0.197561950684E+02 -0.980752110481E+00
  0.291513423920E+02  0.197561950684E+02  0.980752110481E+00
  0.292438049316E+02  0.292438049316E+02  0.000000000000E+00
  0.303791980743E+02  0.292438049316E+02 -0.658130764961E+00
  0.303791980743E+02  0.292438049316E+02  0.658130764961E+00
  0.303820724487E+02  0.113820018768E+02  0.000000000000E+00
  0.334741249084E+02  0.292438049316E+02 -0.108748245239E+01
  0.334741249084E+02  0.292438049316E+02  0.108748245239E+01
  0.342964897156E+02  0.197561950684E+02 -0.479616105556E+00
  0.342964897156E+02  0.197561950684E+02  0.479616105556E+00
  0.374068183899E+02  0.197561950684E+02 -0.144199773669E+00
  0.374068183899E+02  0.197561950684E+02  0.144199773669E+00
  0.376179962158E+02  0.376179962158E+02  0.000000000000E+00
  0.386389808655E+02  0.292438049316E+02 -0.980755090714E+00
  0.386389808655E+02  0.292438049316E+02  0.980755090714E+00
  0.387533912659E+02  0.376179962158E+02 -0.658132553101E+00
  0.387533912659E+02  0.376179962158E+02  0.658132553101E+00
  0.387563171387E+02  0.197561950684E+02  0.000000000000E+00
  0.418483314514E+02  0.376179962158E+02 -0.108748543262E+01
  0.418483314514E+02  0.376179962158E+02  0.108748543262E+01
  0.435296669006E+02  0.435296669006E+02  0.000000000000E+00
  0.437841453552E+02  0.292438049316E+02 -0.479617565870E+00
  0.437841453552E+02  0.292438049316E+02  0.479617565870E+00
  0.446650657654E+02  0.435296669006E+02 -0.658133804798E+00
  0.446650657654E+02  0.435296669006E+02  0.658133804798E+00
  0.468944816589E+02  0.292438049316E+02 -0.144200220704E+00
  0.468944816589E+02  0.292438049316E+02  0.144200220704E+00
  0.470131988525E+02  0.376179962158E+02 -0.980757772923E+00
  0.470131988525E+02  0.376179962158E+02  0.980757772923E+00
  0.470762481689E+02  0.470762481689E+02  0.000000000000E+00
  0.477600097656E+02  0.435296669006E+02 -0.108748745918E+01
  0.477600097656E+02  0.435296669006E+02  0.108748745918E+01
  0.482116432190E+02  0.470762481689E+02 -0.658134579659E+00
  0.482116432190E+02  0.470762481689E+02  0.658134579659E+00
  0.482439842224E+02  0.292438049316E+02  0.000000000000E+00
  0.490000000000E+02  0.490000000000E+02  0.000000000000E+00
  0.501353988647E+02  0.490000000000E+02 -0.658134996891E+00
  0.501353988647E+02  0.490000000000E+02  0.658134996891E+00
  0.506007728577E+02  0.494653701782E+02 -0.465371757746E+00
  0.506007728577E+02  0.494653701782E+02  0.465371757746E+00
  0.507935333252E+02  0.496581344604E+02 -0.771266485397E-15
  0.513065910339E+02  0.470762481689E+02 -0.108748877048E+01
  0.513065910339E+02  0.470762481689E+02  0.108748877048E+01
  0.521583786011E+02  0.376179962158E+02 -0.479618877172E+00
  0.521583786011E+02  0.376179962158E+02  0.479618877172E+00
  0.529248886108E+02  0.435296669006E+02 -0.980759620667E+00
  0.529248886108E+02  0.435296669006E+02  0.980759620667E+00
  0.532303466797E+02  0.490000000000E+02 -0.108748936653E+01
  0.532303466797E+02  0.490000000000E+02  0.108748936653E+01
  0.539993209839E+02  0.497689704895E+02 -0.768971264362E+00
  0.539993209839E+02  0.497689704895E+02  0.768971264362E+00
  0.543178405762E+02  0.500874900818E+02 -0.157378642191E-15
  0.552687225342E+02  0.376179962158E+02 -0.144200608134E+00
  0.552687225342E+02  0.376179962158E+02  0.144200608134E+00
  0.564714775085E+02  0.470762481689E+02 -0.980760753155E+00
  0.564714775085E+02  0.470762481689E+02  0.980760753155E+00
  0.566182289124E+02  0.376179962158E+02  0.000000000000E+00
  0.580700759888E+02  0.435296669006E+02 -0.479619771242E+00
  0.580700759888E+02  0.435296669006E+02  0.479619771242E+00
  0.583952369690E+02  0.490000000000E+02 -0.980761349201E+00
  0.583952369690E+02  0.490000000000E+02  0.980761349201E+00
  0.590887413025E+02  0.496935043335E+02 -0.693503141403E+00
  0.590887413025E+02  0.496935043335E+02  0.693503141403E+00
  0.593759994507E+02  0.499807624817E+02  0.000000000000E+00
  0.611804275513E+02  0.435296669006E+02 -0.144200876355E+00
  0.611804275513E+02  0.435296669006E+02  0.144200876355E+00
  0.616166725159E+02  0.470762481689E+02 -0.479620337486E+00
  0.616166725159E+02  0.470762481689E+02  0.479620337486E+00
  0.625299339294E+02  0.435296669006E+02  0.000000000000E+00
  0.635404319763E+02  0.490000000000E+02 -0.479620635509E+00
  0.635404319763E+02  0.490000000000E+02  0.479620635509E+00
  0.638795776367E+02  0.493391418457E+02 -0.339143037796E+00
  0.638795776367E+02  0.493391418457E+02  0.339143037796E+00
  0.640200576782E+02  0.494796218872E+02  0.296956834055E-15
  0.647270278931E+02  0.470762481689E+02 -0.144201040268E+00
  0.647270278931E+02  0.470762481689E+02  0.144201040268E+00
  0.660765380859E+02  0.470762481689E+02  0.000000000000E+00
  0.666507873535E+02  0.490000000000E+02 -0.144201144576E+00
  0.666507873535E+02  0.490000000000E+02  0.144201144576E+00
  0.667527542114E+02  0.491019668579E+02 -0.101965606213E+00
  0.667527542114E+02  0.491019668579E+02  0.101965606213E+00
  0.667949905396E+02  0.491441993713E+02 -0.260488604752E-16
  0.680002975464E+02  0.490000000000E+02  0.000000000000E+00
  0.209237651825E+02  0.192375373840E+01  0.000000000000E+00
  0.190000000000E+02  0.000000000000E+00  0.000000000000E+00
  0.244703655243E+02  0.547033166885E+01  0.000000000000E+00
  0.303820724487E+02  0.113820018768E+02  0.000000000000E+00
  0.387563171387E+02  0.197561950684E+02  0.000000000000E+00
  0.482439842224E+02  0.292438049316E+02  0.000000000000E+00
  0.566182289124E+02  0.376179962158E+02  0.000000000000E+00
  0.625299339294E+02  0.435296669006E+02  0.000000000000E+00
  0.660765380859E+02  0.470762481689E+02  0.000000000000E+00
POLYGONS                 256                1024
3                  32                  33                  42
3                  32                  30                  33
3                  30                  28                  33
3                  30                  22                  28
3                  22                  17                  28
3                  22                  13                  17
3                  13                   6                  17
3                  17                   6                   9
3                   6                   1                   9
3                   9                   1                   4
3                   1                   0                   4
3                   4                   0                   3
3                   0                   5                   3
3                   0                   2                   5
3                   2                  10                   5
3                   2                   7                  10
[...]
CELL_DATA                 256
SCALARS sigma float 1
LOOKUP_TABLE default
  0.522126978855E-02
  0.522118642470E-02
  0.425221241017E-02
  0.425227831457E-02
  0.145389372660E-01
  0.145389232104E-01
  0.908947586616E-01
  0.908947720437E-01
  0.244667601269E+00
  0.244667586669E+00
  0.531692439293E+00
  0.531692439967E+00
  0.359280647767E+00
  0.359280646733E+00
  0.259002102300E-01
  0.259002266256E-01
 -0.131947955838E+00
 -0.131947968932E+00
 -0.206313609873E+00
 -0.206313595614E+00
 -0.216137310242E+00
 -0.216137375549E+00
 -0.215213973554E+00
 -0.215213892725E+00
  0.522129884465E-02
  0.522126977311E-02
  0.425222465194E-02
  0.425221237537E-02
  0.145389298744E-01
  0.145389372900E-01
  0.908947719541E-01
  0.908947621363E-01
  0.244667587255E+00
  0.244667625125E+00
  0.531692434045E+00
  0.531692399837E+00
  0.359280595640E+00
  0.359280643765E+00
  0.259002517695E-01
  0.259002102919E-01
 -0.131947965369E+00
 -0.131947955708E+00
 -0.206313595954E+00
 -0.206313603282E+00
 -0.216137373781E+00
 -0.216137361830E+00
 -0.215213892088E+00
 -0.215213864119E+00
  0.522124103996E-02
  0.522129884364E-02
  0.425228218108E-02
  0.425222465982E-02
  0.145389308434E-01
  0.145389298833E-01
  0.908947621801E-01
  0.908947618985E-01
  0.244667624617E+00
  0.244667563797E+00
  0.531692397633E+00
  0.531692374940E+00
  0.359280563300E+00
  0.359280594150E+00
  0.259001858707E-01
  0.259002517158E-01
 -0.131947965711E+00
 -0.131947965433E+00
 -0.206313603407E+00
 -0.206313602470E+00
 -0.216137362230E+00
 -0.216137306712E+00
 -0.215213864078E+00
 -0.215213919484E+00
  0.522125575880E-02
  0.522124104484E-02
  0.425231525083E-02
  0.425228219678E-02
  0.145389173241E-01
  0.145389308370E-01
  0.908947618853E-01
  0.908947652273E-01
  0.244667564844E+00
  0.244667620914E+00
  0.531692388653E+00
  0.531692594350E+00
  0.359280848302E+00
  0.359280572566E+00
  0.259002463772E-01
  0.259001859815E-01
 -0.131947962390E+00
 -0.131947965691E+00
 -0.206313602380E+00
 -0.206313615492E+00
 -0.216137307510E+00
 -0.216137275728E+00
 -0.215213919685E+00
 -0.215213905604E+00
  0.522122703259E-02
  0.522125576345E-02
  0.425225501980E-02
  0.425231524460E-02
  0.145389464675E-01
  0.145389173136E-01
  0.908947652329E-01
  0.908947570551E-01
  0.244667620319E+00
  0.244667693790E+00
  0.531692569282E+00
  0.531692139919E+00
  0.359280258020E+00
  0.359280831363E+00
  0.259003253407E-01
  0.259002463141E-01
 -0.131947970480E+00
 -0.131947962398E+00
 -0.206313615343E+00
 -0.206313587098E+00
 -0.216137275411E+00
 -0.216137333257E+00
 -0.215213905796E+00
 -0.215213933277E+00
  0.522124172764E-02
  0.522122701372E-02
  0.425222303769E-02
  0.425225500062E-02
  0.145389685633E-01
  0.145389464578E-01
  0.908947570451E-01
  0.908947451507E-01
  0.244667692913E+00
  0.244667501437E+00
  0.531692154942E+00
  0.531692380300E+00
  0.359280570263E+00
  0.359280268171E+00
  0.259001190017E-01
  0.259003252479E-01
 -0.131947982216E+00
 -0.131947970465E+00
 -0.206313586960E+00
 -0.206313565510E+00
 -0.216137332282E+00
 -0.216137363015E+00
 -0.215213932499E+00
 -0.215213918419E+00
  0.522104623733E-02
  0.522124173610E-02
  0.425228529228E-02
  0.425222305854E-02
  0.145389282332E-01
  0.145389685881E-01
  0.908947451776E-01
  0.908947563286E-01
  0.244667500844E+00
  0.244667571701E+00
  0.531692350383E+00
  0.531692042367E+00
  0.359280131305E+00
  0.359280550046E+00
  0.259001956501E-01
  0.259001189389E-01
 -0.131947971252E+00
 -0.131947982255E+00
 -0.206313565862E+00
 -0.206313605241E+00
 -0.216137364075E+00
 -0.216137304008E+00
 -0.215213918768E+00
 -0.215214106157E+00
  0.522122384432E-02
  0.522104623715E-02
  0.425228817198E-02
  0.425228531380E-02
  0.145389621856E-01
  0.145389283198E-01
  0.908947563394E-01
  0.908947522437E-01
  0.244667579791E+00
  0.244667581851E+00
  0.531692197563E+00
  0.531693094051E+00
  0.359281497388E+00
  0.359280236176E+00
  0.259001987631E-01
  0.259001965065E-01
 -0.131947975298E+00
 -0.131947971267E+00
 -0.206313606470E+00
 -0.206313573003E+00
 -0.216137305102E+00
 -0.216137302320E+00
 -0.215214106150E+00
 -0.215213935278E+00
  0.522114796355E-02
  0.522122395975E-02
  0.425222699575E-02
  0.425228819151E-02
  0.145389050517E-01
  0.145389620225E-01
  0.908947522024E-01
  0.908947674964E-01
  0.244667570969E+00
  0.244667620494E+00
  0.531692922163E+00
  0.531692462241E+00
  0.359280676699E+00
  0.359281381238E+00
  0.259002532286E-01
  0.259001976111E-01
 -0.131947960273E+00
 -0.131947975238E+00
 -0.206313570688E+00
 -0.206313628483E+00
 -0.216137303313E+00
 -0.216137363954E+00
 -0.215213940035E+00
 -0.215214013720E+00
  0.502127612075E-02
  0.409155201871E-02
  0.409101352993E-02
  0.139307552696E-01
  0.139309144383E-01
  0.846009972055E-01
  0.846010908468E-01
  0.216606501697E+00
  0.216606656531E+00
  0.451004073448E+00
  0.304757092135E+00
  0.229300588154E-01
  0.229297331358E-01
 -0.122811394083E+00
 -0.122811569090E+00
 -0.197685967108E+00
 -0.197686059605E+00
 -0.207943009897E+00
 -0.207942753866E+00
 -0.206975361642E+00
 -0.606067304449E-01
 -0.616460958634E-01
 -0.616404330406E-01
 -0.507277624747E-01
 -0.507292583993E-01
  0.241054532851E-01
  0.241053723556E-01
  0.150893360167E+00
  0.150893273473E+00
  0.359061896582E+00
  0.305771716839E+00
  0.751786268253E-01
  0.751789905924E-01
 -0.627225395438E-01
 -0.627220775595E-01
 -0.143270113375E+00
 -0.143269955931E+00
 -0.154963514979E+00
 -0.154963184778E+00
 -0.153850016893E+00
SCALARS inclination float 1
LOOKUP_TABLE default
  0.100000000000E+01
  0.100000000000E+01
  0.100000000000E+01
  0.100000000000E+01
  0.100000000000E+01
  0.100000000000E+01
  0.100000000000E+01
  0.100000000000E+01
  0.100000000000E+01
  0.100000000000E+01
  0.100000000000E+01
  0.100000000000E+01
  0.100000000000E+01
  0.100000000000E+01
  0.100000000000E+01
  0.100000000000E+01
  0.100000000000E+01
  0.100000000000E+01
  0.100000000000E+01
  0.100000000000E+01
  0.100000000000E+01
  0.100000000000E+01
  0.100000000000E+01
  0.100000000000E+01
  0.100000000000E+01
  0.100000000000E+01
  0.100000000000E+01
  0.100000000000E+01
  0.100000000000E+01
  0.100000000000E+01
  0.100000000000E+01
  0.100000000000E+01
  0.100000000000E+01
  0.100000000000E+01
  0.100000000000E+01
  0.100000000000E+01
  0.100000000000E+01
  0.100000000000E+01
  0.100000000000E+01
  0.100000000000E+01
  0.100000000000E+01
  0.100000000000E+01
  0.100000000000E+01
  0.100000000000E+01
  0.100000000000E+01
  0.100000000000E+01
  0.100000000000E+01
  0.100000000000E+01
  0.100000000000E+01
  0.100000000000E+01
  0.100000000000E+01
  0.100000000000E+01
  0.100000000000E+01
  0.100000000000E+01
  0.100000000000E+01
  0.100000000000E+01
  0.100000000000E+01
  0.100000000000E+01
  0.100000000000E+01
  0.100000000000E+01
  0.100000000000E+01
  0.100000000000E+01
  0.100000000000E+01
  0.100000000000E+01
  0.100000000000E+01
  0.100000000000E+01
  0.100000000000E+01
  0.100000000000E+01
  0.100000000000E+01
  0.100000000000E+01
  0.100000000000E+01
  0.100000000000E+01
  0.100000000000E+01
  0.100000000000E+01
  0.100000000000E+01
  0.100000000000E+01
  0.100000000000E+01
  0.100000000000E+01
  0.100000000000E+01
  0.100000000000E+01
  0.100000000000E+01
  0.100000000000E+01
  0.100000000000E+01
  0.100000000000E+01
  0.100000000000E+01
  0.100000000000E+01
  0.100000000000E+01
  0.100000000000E+01
  0.100000000000E+01
  0.100000000000E+01
  0.100000000000E+01
  0.100000000000E+01
  0.100000000000E+01
  0.100000000000E+01
  0.100000000000E+01
  0.100000000000E+01
  0.100000000000E+01
  0.100000000000E+01
  0.100000000000E+01
  0.100000000000E+01
  0.100000000000E+01
  0.100000000000E+01
  0.100000000000E+01
  0.100000000000E+01
  0.100000000000E+01
  0.100000000000E+01
  0.100000000000E+01
  0.100000000000E+01
  0.100000000000E+01
  0.100000000000E+01
  0.100000000000E+01
  0.100000000000E+01
  0.100000000000E+01
  0.100000000000E+01
  0.100000000000E+01
  0.100000000000E+01
  0.100000000000E+01
  0.100000000000E+01
  0.100000000000E+01
  0.100000000000E+01
  0.100000000000E+01
  0.100000000000E+01
  0.100000000000E+01
  0.100000000000E+01
  0.100000000000E+01
  0.100000000000E+01
  0.100000000000E+01
  0.100000000000E+01
  0.100000000000E+01
  0.100000000000E+01
  0.100000000000E+01
  0.100000000000E+01
  0.100000000000E+01
  0.100000000000E+01
  0.100000000000E+01
  0.100000000000E+01
  0.100000000000E+01
  0.100000000000E+01
  0.100000000000E+01
  0.100000000000E+01
  0.100000000000E+01
  0.100000000000E+01
  0.100000000000E+01
  0.100000000000E+01
  0.100000000000E+01
  0.100000000000E+01
  0.100000000000E+01
  0.100000000000E+01
  0.100000000000E+01
  0.100000000000E+01
  0.100000000000E+01
  0.100000000000E+01
  0.100000000000E+01
  0.100000000000E+01
  0.100000000000E+01
  0.100000000000E+01
  0.100000000000E+01
  0.100000000000E+01
  0.100000000000E+01
  0.100000000000E+01
  0.100000000000E+01
  0.100000000000E+01
  0.100000000000E+01
  0.100000000000E+01
  0.100000000000E+01
  0.100000000000E+01
  0.100000000000E+01
  0.100000000000E+01
  0.100000000000E+01
  0.100000000000E+01
  0.100000000000E+01
  0.100000000000E+01
  0.100000000000E+01
  0.100000000000E+01
  0.100000000000E+01
  0.100000000000E+01
  0.100000000000E+01
  0.100000000000E+01
  0.100000000000E+01
  0.100000000000E+01
  0.100000000000E+01
  0.100000000000E+01
  0.100000000000E+01
  0.100000000000E+01
  0.100000000000E+01
  0.100000000000E+01
  0.100000000000E+01
  0.100000000000E+01
  0.100000000000E+01
  0.100000000000E+01
  0.100000000000E+01
  0.100000000000E+01
  0.100000000000E+01
  0.100000000000E+01
  0.100000000000E+01
  0.100000000000E+01
  0.100000000000E+01
  0.100000000000E+01
  0.100000000000E+01
  0.100000000000E+01
  0.100000000000E+01
  0.100000000000E+01
  0.100000000000E+01
  0.100000000000E+01
  0.100000000000E+01
  0.100000000000E+01
  0.100000000000E+01
  0.100000000000E+01
  0.100000000000E+01
  0.100000000000E+01
  0.100000000000E+01
  0.100000000000E+01
  0.100000000000E+01
  0.100000000000E+01
  0.100000000000E+01
  0.100000000000E+01
  0.100000000000E+01
  0.100000000000E+01
  0.100000000000E+01
  0.100000000000E+01
  0.100000000000E+01
  0.100000000000E+01
  0.100000000000E+01
  0.100000000000E+01
  0.100000000000E+01
  0.100000000000E+01
  0.100000000000E+01
  0.100000000000E+01
  0.100000000000E+01
  0.100000000000E+01
  0.100000000000E+01
  0.100000000000E+01
  0.100000000000E+01
  0.100000000000E+01
  0.100000000000E+01
  0.100000000000E+01
  0.100000000000E+01
  0.100000000000E+01
  0.100000000000E+01
  0.100000000000E+01
  0.100000000000E+01
  0.100000000000E+01
  0.100000000000E+01
  0.100000000000E+01
  0.100000000000E+01
  0.100000000000E+01
  0.100000000000E+01
  0.100000000000E+01
  0.100000000000E+01
  0.100000000000E+01
  0.100000000000E+01
  0.100000000000E+01
  0.100000000000E+01
  0.100000000000E+01
  0.100000000000E+01
  0.100000000000E+01
VECTORS v float
  0.151818732782E+03  0.361880447215E+01  0.158357984287E+02
  0.154394726361E+03  0.287640506595E+01  0.161903965019E+02
  0.158021553439E+03 -0.750439947746E+00  0.171219116136E+02
  0.160158210641E+03  0.582529507236E+00  0.172085694527E+02
  0.163853301097E+03 -0.311257941286E+01  0.162624317382E+02
  0.165394748395E+03 -0.557129525059E+00  0.161636688920E+02
  0.164306761027E+03  0.530857119700E+00  0.338428949611E+01
  0.165833958073E+03 -0.510470564482E+01  0.353230145943E+01
  0.146900584555E+03  0.138286845237E+02 -0.184607300245E+02
  0.153948012208E+03 -0.536911649043E+01 -0.221016587085E+02
  0.903727569338E+02  0.582061631711E+02 -0.186453938925E+02
  0.936312479424E+02  0.509368679917E+02 -0.247478342543E+02
  0.157628118494E+03 -0.130600025603E+02  0.989395169554E+02
  0.137345346611E+03  0.321883825984E+02  0.609543249147E+02
  0.198325173151E+03 -0.287914602274E+02  0.315073074834E+02
  0.188948095214E+03 -0.324749101909E+01  0.266628071169E+02
  0.193525509587E+03 -0.782490151500E+01 -0.416073484737E+01
  0.193852784323E+03 -0.903258955967E+01 -0.419245696481E+01
  0.185136472288E+03 -0.316247301216E+00 -0.180630455145E+02
  0.180962245965E+03 -0.723638316430E+01 -0.183304981058E+02
  0.172571365086E+03  0.115453933514E+01 -0.184855127808E+02
  0.166999248491E+03 -0.232166977735E+01 -0.182595045602E+02
  0.160684359433E+03  0.399325051523E+01 -0.167431309368E+02
  0.154053949620E+03  0.590413110734E+01 -0.158304425283E+02
  0.151852842925E+03  0.727863210608E+01  0.154483680087E+02
  0.151859999173E+03  0.727424911644E+01  0.154496053841E+02
  0.157379984728E+03  0.175423170992E+01  0.167826186983E+02
  0.158049487026E+03  0.167946290834E+01  0.168628826219E+02
  0.162773451912E+03 -0.304452431490E+01  0.161506273031E+02
  0.163858613156E+03 -0.254732379264E+01  0.162078929885E+02
  0.165834206390E+03 -0.452292718742E+01  0.352028466260E+01
  0.166132433358E+03 -0.525609847911E+01  0.354159965528E+01
  0.154175908182E+03  0.670043389800E+01 -0.204588982591E+02
  0.154780828224E+03  0.553794977371E+01 -0.207040917312E+02
  0.967964307568E+02  0.635223709148E+02 -0.192873355172E+02
  0.934847437551E+02  0.688203299498E+02 -0.142967463132E+02
  0.171599837660E+03 -0.929476395555E+01  0.104855694084E+03
  0.162311908901E+03  0.556384219969E+01  0.908591522176E+02
  0.204098154175E+03 -0.362224083286E+02  0.333390647578E+02
  0.198391917115E+03 -0.252566508025E+02  0.310261917246E+02
  0.193342679270E+03 -0.202073930653E+02 -0.441283780779E+01
  0.193520038224E+03 -0.206434182288E+02 -0.442551064163E+01
  0.180954339828E+03 -0.807767650861E+01 -0.184116701823E+02
  0.177281909413E+03 -0.976031561430E+01 -0.182178674144E+02
  0.167031571578E+03  0.490070417696E+00 -0.179597716081E+02
  0.163779152949E+03  0.853295328547E+00 -0.175698597049E+02
  0.154106130219E+03  0.105263738788E+02 -0.153421084628E+02
  0.152794037971E+03  0.113300237219E+02 -0.151160274639E+02
  0.151817677819E+03  0.853009804890E+01  0.153108936513E+02
  0.151866547525E+03  0.849260872234E+01  0.153201129735E+02
  0.157354595924E+03  0.300452807209E+01  0.166450394045E+02
  0.157394146462E+03  0.298614112064E+01  0.166512964963E+02
  0.162378126151E+03 -0.199786158260E+01  0.160101772099E+02
  0.162782830063E+03 -0.204659545970E+01  0.160543421141E+02
  0.166132373581E+03 -0.539615288386E+01  0.354449245463E+01
  0.165316873612E+03 -0.386730246590E+01  0.349604793356E+01
  0.154801784232E+03  0.664779478512E+01 -0.205530329441E+02
  0.153238714371E+03  0.906931983235E+01 -0.200002508836E+02
  0.934853440648E+02  0.688227155023E+02 -0.142957106729E+02
  0.896301321466E+02  0.740013102733E+02 -0.905925757088E+01
  0.177541740069E+03 -0.139102976487E+02  0.110975308070E+03
  0.172232612707E+03 -0.677870172639E+01  0.103764045310E+03
  0.206733256948E+03 -0.412793444969E+02  0.344061435984E+02
  0.204080274641E+03 -0.371693176130E+02  0.334679471683E+02
  0.192613554978E+03 -0.257025673570E+02 -0.451132581234E+01
  0.193339752658E+03 -0.270639992012E+02 -0.455446533427E+01
  0.177270310983E+03 -0.109945052596E+02 -0.183369481462E+02
  0.175560907201E+03 -0.107886612137E+02 -0.181504032362E+02
  0.163780742378E+03  0.991557677459E+00 -0.175551208760E+02
  0.162723661334E+03  0.148300536304E+01 -0.173881183475E+02
  0.152794960744E+03  0.114117643060E+02 -0.151073916588E+02
  0.152211882664E+03  0.118590576411E+02 -0.149973001697E+02
  0.151929937570E+03  0.950697334800E+01  0.152185030136E+02
  0.151829651650E+03  0.959076018322E+01  0.151988361401E+02
  0.157506454945E+03  0.391392462759E+01  0.165633412030E+02
  0.157366053358E+03  0.400119609734E+01  0.165387941999E+02
  0.162374351534E+03 -0.100712499017E+01  0.159133137275E+02
  0.162387390442E+03 -0.101204822314E+01  0.159150610084E+02
  0.165316841936E+03 -0.394151236789E+01  0.349758081864E+01
  0.164864467708E+03 -0.320982090076E+01  0.347311226400E+01
  0.153226605869E+03  0.842804580642E+01 -0.200875335625E+02
  0.151795426523E+03  0.104124516444E+02 -0.196137071958E+02
  0.893440610087E+02  0.728638334593E+02 -0.955278088917E+01
  0.867190409359E+02  0.761123249127E+02 -0.614819620890E+01
  0.179957101566E+03 -0.171257357175E+02  0.114239313127E+03
  0.177498318202E+03 -0.140829550144E+02  0.111050218470E+03
  0.207658476176E+03 -0.442431041485E+02  0.349456664839E+02
  0.206702328429E+03 -0.429173535791E+02  0.346290881061E+02
  0.192394485967E+03 -0.286094808733E+02 -0.456686831313E+01
  0.192612163929E+03 -0.289615635091E+02 -0.457864286249E+01
  0.175550465052E+03 -0.118998097326E+02 -0.182576124599E+02
  0.175023340890E+03 -0.117007833346E+02 -0.181868879333E+02
  0.162713613977E+03  0.608999542824E+00 -0.174812878552E+02
  0.162190554999E+03  0.934123978745E+00 -0.173898144960E+02
  0.152201320168E+03  0.109234155839E+02 -0.150961496515E+02
  0.151739085037E+03  0.113096033786E+02 -0.150054896016E+02
  0.152543334208E+03  0.104453785823E+02  0.151837781067E+02
  0.151946292301E+03  0.109557033020E+02  0.150654466718E+02
  0.158224281178E+03  0.467767915713E+01  0.165583972480E+02
  0.157520620786E+03  0.514619231587E+01  0.164319808068E+02
  0.162931287409E+03 -0.264500495367E+00  0.158952224420E+02
  0.162383647600E+03 -0.179307704421E-01  0.158178713097E+02
  0.164864771081E+03 -0.249906561580E+01  0.345843110736E+01
  0.165148376361E+03 -0.293722785493E+01  0.347334736941E+01
  0.151795487352E+03  0.104156718233E+02 -0.196132687178E+02
  0.151593600220E+03  0.106863825744E+02 -0.195477176706E+02
  0.866082495698E+02  0.756717752391E+02 -0.633933073329E+01
  0.858784943790E+02  0.765536634951E+02 -0.540513928782E+01
  0.180504819569E+03 -0.180726616951E+02  0.115105459716E+03
  0.179902123465E+03 -0.173443372061E+02  0.114334159987E+03
  0.207656757439E+03 -0.450989709866E+02  0.350641828347E+02
  0.207642672306E+03 -0.450800831812E+02  0.350595867293E+02
  0.191924345880E+03 -0.293617206918E+02 -0.457269980402E+01
  0.192393855273E+03 -0.300870995476E+02 -0.459738947408E+01
  0.175013884170E+03 -0.127070717350E+02 -0.182839797786E+02
  0.174246715766E+03 -0.123616619381E+02 -0.181756094259E+02
  0.162176467204E+03 -0.291355239763E+00 -0.175204511713E+02
  0.161183750406E+03  0.369619095111E+00 -0.173421273363E+02
  0.151722393376E+03  0.983102928038E+01 -0.151616991134E+02
  0.150711515912E+03  0.106950822965E+02 -0.149613582621E+02
  0.153760906063E+03  0.121103970117E+02  0.151359628532E+02
  0.152573331581E+03  0.131025899328E+02  0.149030466962E+02
  0.159828526617E+03  0.584735201053E+01  0.166052654323E+02
  0.158249013965E+03  0.682914756463E+01  0.163290492828E+02
  0.164499876014E+03  0.578254136297E+00  0.159659142486E+02
  0.162944725313E+03  0.116542697965E+01  0.157572558695E+02
  0.165149186568E+03 -0.103904525159E+01  0.343413906283E+01
  0.166596247058E+03 -0.337959513098E+01  0.351240976821E+01
  0.151610958980E+03  0.116057120906E+02 -0.194225892650E+02
  0.152874097031E+03  0.985430207733E+01 -0.198407602925E+02
  0.859380270194E+02  0.767903904396E+02 -0.530243484780E+01
  0.870701685784E+02  0.753893509039E+02 -0.677079432202E+01
  0.179338389688E+03 -0.168788702052E+02  0.113737475079E+03
  0.180456933188E+03 -0.182630720736E+02  0.115188072278E+03
  0.206405014055E+03 -0.442111416788E+02  0.347673094713E+02
  0.207641157847E+03 -0.459251271168E+02  0.351766305006E+02
  0.190405462218E+03 -0.286893859523E+02 -0.452742285402E+01
  0.191923584768E+03 -0.311448751887E+02 -0.460953229355E+01
  0.174236416126E+03 -0.134576457691E+02 -0.182813555285E+02
  0.172187646342E+03 -0.126840994094E+02 -0.180064583006E+02
  0.161160454576E+03 -0.165685245775E+01 -0.175581503514E+02
  0.158616056368E+03 -0.753015379939E-01 -0.171132138070E+02
  0.150679525039E+03  0.786127670467E+01 -0.152607459100E+02
  0.148088645071E+03  0.100259010407E+02 -0.147525960242E+02
  0.155460898143E+03  0.155975632628E+02  0.149450219167E+02
  0.153814530371E+03  0.168605267422E+02  0.146341179090E+02
  0.161707742612E+03  0.896726874490E+01  0.164714570640E+02
  0.159874191711E+03  0.981969638949E+01  0.161818116156E+02
  0.166449774592E+03  0.324408376302E+01  0.158961879230E+02