# vtk DataFile Version 3.0
MachLine results file. Generated by MachLine, USU AeroLab (c) 2022.
ASCII
DATASET POLYDATA
POINTS                  20 float
  0.209237651825E+02  0.192375373840E+01  0.000000000000E+00
  0.993793917614E+04  0.192375373840E+01  0.111237150769E+04
  0.190000000000E+02  0.000000000000E+00  0.000000000000E+00
  0.993791527274E+04  0.000000000000E+00  0.111258461134E+04
  0.680002975464E+02  0.490000000000E+02  0.000000000000E+00
  0.993852411726E+04  0.490000000000E+02  0.110715664018E+04
  0.660765380859E+02  0.470762481689E+02  0.000000000000E+00
  0.993850021392E+04  0.470762481689E+02  0.110736974319E+04
  0.244703655243E+02  0.547033166885E+01  0.000000000000E+00
  0.993798324380E+04  0.547033166885E+01  0.111197863570E+04
  0.303820724487E+02  0.113820018768E+02  0.000000000000E+00
  0.993805669866E+04  0.113820018768E+02  0.111132377081E+04
  0.482439842224E+02  0.292438049316E+02  0.000000000000E+00
  0.993827863869E+04  0.292438049316E+02  0.110934513095E+04
  0.387563171387E+02  0.197561950684E+02  0.000000000000E+00
  0.993816075136E+04  0.197561950684E+02  0.111039612015E+04
  0.566182289124E+02  0.376179962158E+02  0.000000000000E+00
  0.993838269138E+04  0.376179962158E+02  0.110841748029E+04
  0.625299339294E+02  0.435296669006E+02  0.000000000000E+00
  0.993845614622E+04  0.435296669006E+02  0.110776261560E+04
POLYGONS                  18                  72
3                   0                   1                   3
3                   0                   3                   2
3                   8                   9                   1
3                   8                   1                   0
3                  10                  11                   9
3                  10                   9                   8
3                  14                  15                  11
3                  14                  11                  10
3                  12                  13                  15
3                  12                  15                  14
3                  16                  17                  13
3                  16                  13                  12
3                  18                  19                  17
3                  18                  17                  16
3                   6                   7                  19
3                   6                  19                  18
3                   4                   5                   7
3                   4                   7                   6
CELL_DATA                  18
NORMALS normals float
  0.110782792855E+00 -0.110783451884E+00 -0.987650849033E+00
  0.110782792855E+00 -0.110783451884E+00 -0.987650849033E+00
  0.110782792352E+00 -0.110783492404E+00 -0.987650844545E+00
  0.110782792352E+00 -0.110783492404E+00 -0.987650844545E+00
  0.110782792499E+00 -0.110783480553E+00 -0.987650845857E+00
  0.110782792499E+00 -0.110783480553E+00 -0.987650845857E+00
  0.110782792582E+00 -0.110783473858E+00 -0.987650846599E+00
  0.110782792582E+00 -0.110783473858E+00 -0.987650846599E+00
  0.110782792743E+00 -0.110783460883E+00 -0.987650848036E+00
  0.110782792743E+00 -0.110783460883E+00 -0.987650848036E+00
  0.110782792272E+00 -0.110783498782E+00 -0.987650843838E+00
  0.110782792272E+00 -0.110783498782E+00 -0.987650843838E+00
  0.110782793047E+00 -0.110783436422E+00 -0.987650850746E+00
  0.110782793047E+00 -0.110783436421E+00 -0.987650850746E+00
  0.110782792169E+00 -0.110783507116E+00 -0.987650842915E+00
  0.110782792169E+00 -0.110783507116E+00 -0.987650842915E+00
  0.110782795551E+00 -0.110783234904E+00 -0.987650873069E+00
  0.110782795551E+00 -0.110783234904E+00 -0.987650873069E+00
POINT_DATA                  20
SCALARS mu float 1
LOOKUP_TABLE default
 -0.323060861149E+01
 -0.323060861149E+01
 -0.317773815380E+01
 -0.317773815380E+01
  0.000000000000E+00
  0.000000000000E+00
 -0.126281254803E+01
 -0.126281254803E+01
 -0.333877187384E+01
 -0.333877187384E+01
 -0.347354077817E+01
 -0.347354077817E+01
 -0.346390764428E+01
 -0.346390764428E+01
 -0.355615407079E+01
 -0.355615407079E+01
 -0.306527975702E+01
 -0.306527975702E+01
 -0.230715598562E+01
 -0.230715598562E+01
