# vtk DataFile Version 3.0
MachLine results file. Generated by MachLine, USU AeroLab (c) 2022.
ASCII
DATASET POLYDATA
POINTS                 144 float
  0.000000000000E+00  0.000000000000E+00  0.000000000000E+00
  0.113538098335E+01  0.000000000000E+00 -0.658124566078E+00
  0.113538098335E+01  0.000000000000E+00  0.658124566078E+00
  0.192375373840E+01  0.192375373840E+01  0.000000000000E+00
  0.305913543701E+01  0.192375373840E+01 -0.658124983311E+00
  0.305913543701E+01  0.192375373840E+01  0.658124983311E+00
  0.423028087616E+01  0.000000000000E+00 -0.108747220039E+01
  0.423028087616E+01  0.000000000000E+00  0.108747220039E+01
  0.547033166885E+01  0.547033166885E+01  0.000000000000E+00
  0.615403699875E+01  0.192375373840E+01 -0.108747279644E+01
  0.615403699875E+01  0.192375373840E+01  0.108747279644E+01
  0.660571479797E+01  0.547033166885E+01 -0.658125698566E+00
  0.660571479797E+01  0.547033166885E+01  0.658125698566E+00
  0.939508819580E+01  0.000000000000E+00 -0.980745851994E+00
  0.939508819580E+01  0.000000000000E+00  0.980745851994E+00
  0.970061969757E+01  0.547033166885E+01 -0.108747410774E+01
  0.970061969757E+01  0.547033166885E+01  0.108747410774E+01
  0.113188476562E+02  0.192375373840E+01 -0.980746448040E+00
  0.113188476562E+02  0.192375373840E+01  0.980746448040E+00
  0.113820018768E+02  0.113820018768E+02  0.000000000000E+00
  0.125173873901E+02  0.113820018768E+02 -0.658127009869E+00
  0.125173873901E+02  0.113820018768E+02  0.658127009869E+00
  0.145402030945E+02  0.000000000000E+00 -0.479613035917E+00
  0.145402030945E+02  0.000000000000E+00  0.479613035917E+00
  0.148654365540E+02  0.547033166885E+01 -0.980747580528E+00
  0.148654365540E+02  0.547033166885E+01  0.980747580528E+00
  0.156122989655E+02  0.113820018768E+02 -0.108747613430E+01
  0.156122989655E+02  0.113820018768E+02  0.108747613430E+01
  0.164639663696E+02  0.192375373840E+01 -0.479613333941E+00
  0.164639663696E+02  0.192375373840E+01  0.479613333941E+00
  0.176505107880E+02  0.000000000000E+00 -0.144198849797E+00
  0.176505107880E+02  0.000000000000E+00  0.144198849797E+00
  0.190000000000E+02  0.000000000000E+00  0.000000000000E+00
  0.195742740631E+02  0.192375373840E+01 -0.144198939204E+00
  0.195742740631E+02  0.192375373840E+01  0.144198939204E+00
  0.197561950684E+02  0.197561950684E+02  0.000000000000E+00
  0.200105609894E+02  0.547033166885E+01 -0.479613870382E+00
  0.200105609894E+02  0.547033166885E+01  0.479613870382E+00
  0.207771244049E+02  0.113820018768E+02 -0.980749428272E+00
  0.207771244049E+02  0.113820018768E+02  0.980749428272E+00
  0.208915824890E+02  0.197561950684E+02 -0.658128738403E+00
  0.208915824890E+02  0.197561950684E+02  0.658128738403E+00
  0.209237651825E+02  0.192375373840E+01  0.000000000000E+00
  0.231208724976E+02  0.547033166885E+01 -0.144199103117E+00
  0.231208724976E+02  0.547033166885E+01  0.144199103117E+00
  0.239865016937E+02  0.197561950684E+02 -0.108747911453E+01
  0.239865016937E+02  0.197561950684E+02  0.108747911453E+01
  0.244703655243E+02  0.547033166885E+01  0.000000000000E+00
  0.259222583771E+02  0.113820018768E+02 -0.479614794254E+00
  0.259222583771E+02  0.113820018768E+02  0.479614794254E+00
  0.290325775146E+02  0.113820018768E+02 -0.144199386239E+00
  0.290325775146E+02  0.113820018768E+02  0.144199386239E+00
  0.291513423920E+02  0.197561950684E+02 -0.980752110481E+00
  0.291513423920E+02  0.197561950684E+02  0.980752110481E+00
  0.292438049316E+02  0.292438049316E+02  0.000000000000E+00
  0.303791980743E+02  0.292438049316E+02 -0.658130764961E+00
  0.303791980743E+02  0.292438049316E+02  0.658130764961E+00
  0.303820724487E+02  0.113820018768E+02  0.000000000000E+00
  0.334741249084E+02  0.292438049316E+02 -0.108748245239E+01
  0.334741249084E+02  0.292438049316E+02  0.108748245239E+01
  0.342964897156E+02  0.197561950684E+02 -0.479616105556E+00
  0.342964897156E+02  0.197561950684E+02  0.479616105556E+00
  0.374068183899E+02  0.197561950684E+02 -0.144199773669E+00
  0.374068183899E+02  0.197561950684E+02  0.144199773669E+00
  0.376179962158E+02  0.376179962158E+02  0.000000000000E+00
  0.386389808655E+02  0.292438049316E+02 -0.980755090714E+00
  0.386389808655E+02  0.292438049316E+02  0.980755090714E+00
  0.387533912659E+02  0.376179962158E+02 -0.658132553101E+00
  0.387533912659E+02  0.376179962158E+02  0.658132553101E+00
  0.387563171387E+02  0.197561950684E+02  0.000000000000E+00
  0.418483314514E+02  0.376179962158E+02 -0.108748543262E+01
  0.418483314514E+02  0.376179962158E+02  0.108748543262E+01
  0.435296669006E+02  0.435296669006E+02  0.000000000000E+00
  0.437841453552E+02  0.292438049316E+02 -0.479617565870E+00
  0.437841453552E+02  0.292438049316E+02  0.479617565870E+00
  0.446650657654E+02  0.435296669006E+02 -0.658133804798E+00
  0.446650657654E+02  0.435296669006E+02  0.658133804798E+00
  0.468944816589E+02  0.292438049316E+02 -0.144200220704E+00
  0.468944816589E+02  0.292438049316E+02  0.144200220704E+00
  0.470131988525E+02  0.376179962158E+02 -0.980757772923E+00
  0.470131988525E+02  0.376179962158E+02  0.980757772923E+00
  0.470762481689E+02  0.470762481689E+02  0.000000000000E+00
  0.477600097656E+02  0.435296669006E+02 -0.108748745918E+01
  0.477600097656E+02  0.435296669006E+02  0.108748745918E+01
  0.482116432190E+02  0.470762481689E+02 -0.658134579659E+00
  0.482116432190E+02  0.470762481689E+02  0.658134579659E+00
  0.482439842224E+02  0.292438049316E+02  0.000000000000E+00
  0.490000000000E+02  0.490000000000E+02  0.000000000000E+00
  0.501353988647E+02  0.490000000000E+02 -0.658134996891E+00
  0.501353988647E+02  0.490000000000E+02  0.658134996891E+00
  0.506007728577E+02  0.494653701782E+02 -0.465371757746E+00
  0.506007728577E+02  0.494653701782E+02  0.465371757746E+00
  0.507935333252E+02  0.496581344604E+02 -0.771266485397E-15
  0.513065910339E+02  0.470762481689E+02 -0.108748877048E+01
  0.513065910339E+02  0.470762481689E+02  0.108748877048E+01
  0.521583786011E+02  0.376179962158E+02 -0.479618877172E+00
  0.521583786011E+02  0.376179962158E+02  0.479618877172E+00
  0.529248886108E+02  0.435296669006E+02 -0.980759620667E+00
  0.529248886108E+02  0.435296669006E+02  0.980759620667E+00
  0.532303466797E+02  0.490000000000E+02 -0.108748936653E+01
  0.532303466797E+02  0.490000000000E+02  0.108748936653E+01
  0.539993209839E+02  0.497689704895E+02 -0.768971264362E+00
  0.539993209839E+02  0.497689704895E+02  0.768971264362E+00
  0.543178405762E+02  0.500874900818E+02 -0.157378642191E-15
  0.552687225342E+02  0.376179962158E+02 -0.144200608134E+00
  0.552687225342E+02  0.376179962158E+02  0.144200608134E+00
  0.564714775085E+02  0.470762481689E+02 -0.980760753155E+00
  0.564714775085E+02  0.470762481689E+02  0.980760753155E+00
  0.566182289124E+02  0.376179962158E+02  0.000000000000E+00
  0.580700759888E+02  0.435296669006E+02 -0.479619771242E+00
  0.580700759888E+02  0.435296669006E+02  0.479619771242E+00
  0.583952369690E+02  0.490000000000E+02 -0.980761349201E+00
  0.583952369690E+02  0.490000000000E+02  0.980761349201E+00
  0.590887413025E+02  0.496935043335E+02 -0.693503141403E+00
  0.590887413025E+02  0.496935043335E+02  0.693503141403E+00
  0.593759994507E+02  0.499807624817E+02  0.000000000000E+00
  0.611804275513E+02  0.435296669006E+02 -0.144200876355E+00
  0.611804275513E+02  0.435296669006E+02  0.144200876355E+00
  0.616166725159E+02  0.470762481689E+02 -0.479620337486E+00
  0.616166725159E+02  0.470762481689E+02  0.479620337486E+00
  0.625299339294E+02  0.435296669006E+02  0.000000000000E+00
  0.635404319763E+02  0.490000000000E+02 -0.479620635509E+00
  0.635404319763E+02  0.490000000000E+02  0.479620635509E+00
  0.638795776367E+02  0.493391418457E+02 -0.339143037796E+00
  0.638795776367E+02  0.493391418457E+02  0.339143037796E+00
  0.640200576782E+02  0.494796218872E+02  0.296956834055E-15
  0.647270278931E+02  0.470762481689E+02 -0.144201040268E+00
  0.647270278931E+02  0.470762481689E+02  0.144201040268E+00
  0.660765380859E+02  0.470762481689E+02  0.000000000000E+00
  0.666507873535E+02  0.490000000000E+02 -0.144201144576E+00
  0.666507873535E+02  0.490000000000E+02  0.144201144576E+00
  0.667527542114E+02  0.491019668579E+02 -0.101965606213E+00
  0.667527542114E+02  0.491019668579E+02  0.101965606213E+00
  0.667949905396E+02  0.491441993713E+02 -0.260488604752E-16
  0.680002975464E+02  0.490000000000E+02  0.000000000000E+00
  0.660765380859E+02  0.470762481689E+02  0.000000000000E+00
  0.482439842224E+02  0.292438049316E+02  0.000000000000E+00
  0.387563171387E+02  0.197561950684E+02  0.000000000000E+00
  0.566182289124E+02  0.376179962158E+02  0.000000000000E+00
  0.625299339294E+02  0.435296669006E+02  0.000000000000E+00
  0.209237651825E+02  0.192375373840E+01  0.000000000000E+00
  0.190000000000E+02  0.000000000000E+00  0.000000000000E+00
  0.303820724487E+02  0.113820018768E+02  0.000000000000E+00
  0.244703655243E+02  0.547033166885E+01  0.000000000000E+00
POLYGONS                 256                1024
3                  32                  33                  42
3                  32                  30                  33
3                  30                  28                  33
3                  30                  22                  28
3                  22                  17                  28
3                  22                  13                  17
3                  13                   6                  17
3                  17                   6                   9
3                   6                   1                   9
3                   9                   1                   4
3                   1                   0                   4
3                   4                   0                   3
3                   0                   5                   3
3                   0                   2                   5
3                   2                  10                   5
3                   2                   7                  10
[...]
CELL_DATA                 256
SCALARS C_p_inc float 1
LOOKUP_TABLE default
  0.123146068529E+00
  0.936674705799E-01
  0.496423903464E-01
  0.238938322270E-01
 -0.204379492437E-01
 -0.391207418759E-01
 -0.163594582082E-01
 -0.362931737401E-01
  0.167846302971E+00
  0.886437246071E-01
  0.552030915318E+00
  0.549364676699E+00
 -0.310016599219E+00
  0.111181694955E+00
 -0.548866712699E+00
 -0.370821093688E+00
 -0.412392797070E+00
 -0.417986844496E+00
 -0.302109905283E+00
 -0.246900355885E+00
 -0.133578446805E+00
 -0.621906451007E-01
  0.167408570778E-01
  0.962461374142E-01
  0.121645198527E+00
  0.121625583518E+00
  0.575860098449E-01
  0.495534640794E-01
 -0.693386770803E-02
 -0.203132115572E-01
 -0.360847596731E-01
 -0.400015459916E-01
  0.880222171011E-01
  0.812057596835E-01
  0.481503997859E+00
  0.485135975414E+00
 -0.525333718949E+00
 -0.303440569909E+00
 -0.658878615392E+00
 -0.541544090957E+00
 -0.422786168135E+00
 -0.426135088596E+00
 -0.247384830253E+00
 -0.198639941625E+00
 -0.619939627758E-01
 -0.208035058380E-01
  0.933527982340E-01
  0.108334268802E+00
  0.121589623194E+00
  0.120911925570E+00
  0.579564357615E-01
  0.573591843902E-01
 -0.161534407911E-02
 -0.673880614788E-02
 -0.400569611799E-01
 -0.292322324518E-01
  0.806839251938E-01
  0.982964301713E-01
  0.485087999699E+00
  0.488411657739E+00
 -0.657098840150E+00
 -0.523425739241E+00
 -0.716935617721E+00
 -0.661532383261E+00
 -0.421549999868E+00
 -0.434985431423E+00
 -0.199598649880E+00
 -0.176291012688E+00
 -0.208146191901E-01
 -0.745384969165E-02
  0.108248015148E+00
  0.114819922679E+00
  0.120049321281E+00
  0.120836688758E+00
  0.563186072544E-01
  0.576779471638E-01
 -0.113638378149E-02
 -0.150239270593E-02
 -0.292474847903E-01
 -0.233122195161E-01
  0.987135574349E-01
  0.114505564691E+00
  0.496149858275E+00
  0.497324707631E+00
 -0.720928373895E+00
 -0.657300749503E+00
 -0.742075035825E+00
 -0.722150705651E+00
 -0.424094703236E+00
 -0.428209409070E+00
 -0.177211804132E+00
 -0.169729620145E+00
 -0.738435114170E-02
 -0.549120872866E-03
  0.115609126389E+00
  0.121000460210E+00
  0.113590716675E+00
  0.118849655234E+00
  0.485689708198E-01
  0.558462319857E-01
 -0.753544648061E-02
 -0.110441205196E-02
 -0.231472230875E-01
 -0.268286663025E-01
  0.114436514148E+00
  0.116488055662E+00
  0.500024101797E+00
  0.500111331814E+00
 -0.737205201860E+00
 -0.721179917814E+00
 -0.745181231986E+00
 -0.744656712518E+00
 -0.418817474474E+00
 -0.427153366113E+00
 -0.170556276091E+00
 -0.159588250418E+00
 -0.510612697569E-03
  0.129002479655E-01
  0.122142615270E+00
  0.134487505836E+00
  0.105959494928E+00
  0.110817193526E+00
  0.335041495131E-01
  0.473276786470E-01
 -0.276633073093E-01
 -0.765331395863E-02
 -0.265458096473E-01
 -0.470041575018E-01
  0.115424928369E+00
  0.100304651184E+00
  0.496956733284E+00
  0.496969458264E+00
 -0.709572841620E+00
 -0.737191217777E+00
 -0.723782248597E+00
 -0.747028273342E+00
 -0.397496944683E+00
 -0.421945171108E+00
 -0.160245355808E+00
 -0.133157171008E+00
  0.128797223969E-01
  0.490449469708E-01
  0.136335927273E+00
  0.172337349142E+00
  0.201591920407E+00
  0.948337301187E-01
  0.527623456909E-02
  0.275567536725E-01
 -0.743512686113E-01
 -0.289307980111E-01
 -0.471535802066E-01
 -0.974249040629E-01
  0.968259343993E-01
  0.571439763829E-01
  0.484630059727E+00
  0.484856468059E+00
 -0.650244176763E+00
 -0.709158580188E+00
 -0.685714419463E+00
 -0.725218978432E+00
 -0.364549560845E+00
 -0.401399811922E+00
 -0.132877608656E+00
 -0.960964721768E-01
  0.490739420391E-01
  0.107336763499E+00
  0.174610595984E+00
  0.346750927661E+00
 -0.225797307922E+02
 -0.112990273947E+00
  0.694520978600E+00
 -0.121484216173E+00
 -0.446241671910E+00
 -0.830083871289E-01
 -0.103849207689E+00
 -0.171676664678E+00
  0.458740214781E-01
 -0.272947579011E-01
  0.451695957572E+00
  0.453956743845E+00
 -0.576521419391E+00
 -0.649045129958E+00
 -0.635709364242E+00
 -0.686042472564E+00
 -0.326020131539E+00
 -0.369643596058E+00
 -0.946769483592E-01
 -0.334931467902E+00
  0.672467327233E-01
  0.768894975028E+00
 -0.239132263613E+00
 -0.220408432043E+02
 -0.406991185845E+08
 -0.212511272012E+05
 -0.119517959410E+05
  0.890262684676E+00
  0.332730717895E-01
 -0.435184969545E+00
 -0.227801720636E+00
 -0.275083742207E+00
 -0.638821027134E-01
 -0.928315420194E-01
  0.320476297182E+00
  0.344800118298E+00
 -0.476751047162E+00
 -0.574098597769E+00
 -0.461897732156E+00
 -0.659901144284E+00
 -0.346831618228E+00
 -0.333862547603E+00
 -0.365212578514E+00
 -0.528665747935E+00
  0.873932411634E+00
 -0.118760079570E+05
 -0.211342130942E+05
 -0.407014221537E+08
 -0.847708292185E+08
 -0.481103193212E+06
 -0.180015516755E+05
 -0.259001958321E+02
 -0.326530829910E+00
 -0.530006367182E+00
 -0.404472246287E+00
 -0.233345616146E+00
 -0.250797457903E+00
 -0.555135677619E-01
 -0.482531265007E+00
 -0.396575973824E+00
 -0.535129895406E+00
 -0.476188770671E+00
 -0.382440598150E+00
  0.561731888173E+00
 -0.373518453070E+02
 -0.181598155358E+05
 -0.479109781773E+06
 -0.847557525906E+08
 -0.579374454698E+08
 -0.575608489826E+06
 -0.215269692502E+05
 -0.391621551275E+02
 -0.504996925517E-01
 -0.699865405637E+00
 -0.565025281799E+00
 -0.383067605518E+00
 -0.399901630169E+00
 -0.265339730784E+00
 -0.409991767704E+00
 -0.447499125948E+00
 -0.469027912109E+00
 -0.599600279324E+00
 -0.535848612674E+00
  0.996475960540E+00
 -0.588532686257E+02
 -0.216816512065E+05
 -0.572573639413E+06
 -0.579247732405E+08
SCALARS sigma float 1
LOOKUP_TABLE default
  0.000000000000E+00
  0.000000000000E+00
  0.000000000000E+00
  0.000000000000E+00
  0.000000000000E+00
  0.000000000000E+00
  0.000000000000E+00
  0.000000000000E+00
  0.000000000000E+00
  0.000000000000E+00
  0.000000000000E+00
  0.000000000000E+00
  0.000000000000E+00
  0.000000000000E+00
  0.000000000000E+00
  0.000000000000E+00
  0.000000000000E+00
  0.000000000000E+00
  0.000000000000E+00
  0.000000000000E+00
  0.000000000000E+00
  0.000000000000E+00
  0.000000000000E+00
  0.000000000000E+00
  0.000000000000E+00
  0.000000000000E+00
  0.000000000000E+00
  0.000000000000E+00
  0.000000000000E+00
  0.000000000000E+00
  0.000000000000E+00
  0.000000000000E+00
  0.000000000000E+00
  0.000000000000E+00
  0.000000000000E+00
  0.000000000000E+00
  0.000000000000E+00
  0.000000000000E+00
  0.000000000000E+00
  0.000000000000E+00
  0.000000000000E+00
  0.000000000000E+00
  0.000000000000E+00
  0.000000000000E+00
  0.000000000000E+00
  0.000000000000E+00
  0.000000000000E+00
  0.000000000000E+00
  0.000000000000E+00
  0.000000000000E+00
  0.000000000000E+00
  0.000000000000E+00
  0.000000000000E+00
  0.000000000000E+00
  0.000000000000E+00
  0.000000000000E+00
  0.000000000000E+00
  0.000000000000E+00
  0.000000000000E+00
  0.000000000000E+00
  0.000000000000E+00
  0.000000000000E+00
  0.000000000000E+00
  0.000000000000E+00
  0.000000000000E+00
  0.000000000000E+00
  0.000000000000E+00
  0.000000000000E+00
  0.000000000000E+00
  0.000000000000E+00
  0.000000000000E+00
  0.000000000000E+00
  0.000000000000E+00
  0.000000000000E+00
  0.000000000000E+00
  0.000000000000E+00
  0.000000000000E+00
  0.000000000000E+00
  0.000000000000E+00
  0.000000000000E+00
  0.000000000000E+00
  0.000000000000E+00
  0.000000000000E+00
  0.000000000000E+00
  0.000000000000E+00
  0.000000000000E+00
  0.000000000000E+00
  0.000000000000E+00
  0.000000000000E+00
  0.000000000000E+00
  0.000000000000E+00
  0.000000000000E+00
  0.000000000000E+00
  0.000000000000E+00
  0.000000000000E+00
  0.000000000000E+00
  0.000000000000E+00
  0.000000000000E+00
  0.000000000000E+00
  0.000000000000E+00
  0.000000000000E+00
  0.000000000000E+00
  0.000000000000E+00
  0.000000000000E+00
  0.000000000000E+00
  0.000000000000E+00
  0.000000000000E+00
  0.000000000000E+00
  0.000000000000E+00
  0.000000000000E+00
  0.000000000000E+00
  0.000000000000E+00
  0.000000000000E+00
  0.000000000000E+00
  0.000000000000E+00
  0.000000000000E+00
  0.000000000000E+00
  0.000000000000E+00
  0.000000000000E+00
  0.000000000000E+00
  0.000000000000E+00
  0.000000000000E+00
  0.000000000000E+00
  0.000000000000E+00
  0.000000000000E+00
  0.000000000000E+00
  0.000000000000E+00
  0.000000000000E+00
  0.000000000000E+00
  0.000000000000E+00
  0.000000000000E+00
  0.000000000000E+00
  0.000000000000E+00
  0.000000000000E+00
  0.000000000000E+00
  0.000000000000E+00
  0.000000000000E+00
  0.000000000000E+00
  0.000000000000E+00
  0.000000000000E+00
  0.000000000000E+00
  0.000000000000E+00
  0.000000000000E+00
  0.000000000000E+00
  0.000000000000E+00
  0.000000000000E+00
  0.000000000000E+00
  0.000000000000E+00
  0.000000000000E+00
  0.000000000000E+00
  0.000000000000E+00
  0.000000000000E+00
  0.000000000000E+00
  0.000000000000E+00
  0.000000000000E+00
  0.000000000000E+00
  0.000000000000E+00
  0.000000000000E+00
  0.000000000000E+00
  0.000000000000E+00
  0.000000000000E+00
  0.000000000000E+00
  0.000000000000E+00
  0.000000000000E+00
  0.000000000000E+00
  0.000000000000E+00
  0.000000000000E+00
  0.000000000000E+00
  0.000000000000E+00
  0.000000000000E+00
  0.000000000000E+00
  0.000000000000E+00
  0.000000000000E+00
  0.000000000000E+00
  0.000000000000E+00
  0.000000000000E+00
  0.000000000000E+00
  0.000000000000E+00
  0.000000000000E+00
  0.000000000000E+00
  0.000000000000E+00
  0.000000000000E+00
  0.000000000000E+00
  0.000000000000E+00
  0.000000000000E+00
  0.000000000000E+00
  0.000000000000E+00
  0.000000000000E+00
  0.000000000000E+00
  0.000000000000E+00
  0.000000000000E+00
  0.000000000000E+00
  0.000000000000E+00
  0.000000000000E+00
  0.000000000000E+00
  0.000000000000E+00
  0.000000000000E+00
  0.000000000000E+00
  0.000000000000E+00
  0.000000000000E+00
  0.000000000000E+00
  0.000000000000E+00
  0.000000000000E+00
  0.000000000000E+00
  0.000000000000E+00
  0.000000000000E+00
  0.000000000000E+00
  0.000000000000E+00
  0.000000000000E+00
  0.000000000000E+00
  0.000000000000E+00
  0.000000000000E+00
  0.000000000000E+00
  0.000000000000E+00
  0.000000000000E+00
  0.000000000000E+00
  0.000000000000E+00
  0.000000000000E+00
  0.000000000000E+00
  0.000000000000E+00
  0.000000000000E+00
  0.000000000000E+00
  0.000000000000E+00
  0.000000000000E+00
  0.000000000000E+00
  0.000000000000E+00
  0.000000000000E+00
  0.000000000000E+00
  0.000000000000E+00
  0.000000000000E+00
  0.000000000000E+00
  0.000000000000E+00
  0.000000000000E+00
  0.000000000000E+00
  0.000000000000E+00
  0.000000000000E+00
  0.000000000000E+00
  0.000000000000E+00
  0.000000000000E+00
  0.000000000000E+00
  0.000000000000E+00
  0.000000000000E+00
  0.000000000000E+00
  0.000000000000E+00
  0.000000000000E+00
  0.000000000000E+00
  0.000000000000E+00
  0.000000000000E+00
  0.000000000000E+00
  0.000000000000E+00
  0.000000000000E+00
  0.000000000000E+00
  0.000000000000E+00
  0.000000000000E+00
  0.000000000000E+00
  0.000000000000E+00
SCALARS inclination float 1
LOOKUP_TABLE default
  0.100000000000E+01
  0.100000000000E+01
  0.100000000000E+01
  0.100000000000E+01
  0.100000000000E+01
  0.100000000000E+01
  0.100000000000E+01
  0.100000000000E+01
  0.100000000000E+01
  0.100000000000E+01
  0.100000000000E+01
  0.100000000000E+01
  0.100000000000E+01
  0.100000000000E+01
  0.100000000000E+01
  0.100000000000E+01
  0.100000000000E+01
  0.100000000000E+01
  0.100000000000E+01
  0.100000000000E+01
  0.100000000000E+01
  0.100000000000E+01
  0.100000000000E+01
  0.100000000000E+01
  0.100000000000E+01
  0.100000000000E+01
  0.100000000000E+01
  0.100000000000E+01
  0.100000000000E+01
  0.100000000000E+01
  0.100000000000E+01
  0.100000000000E+01
  0.100000000000E+01
  0.100000000000E+01
  0.100000000000E+01
  0.100000000000E+01
  0.100000000000E+01
  0.100000000000E+01
  0.100000000000E+01
  0.100000000000E+01
  0.100000000000E+01
  0.100000000000E+01
  0.100000000000E+01
  0.100000000000E+01
  0.100000000000E+01
  0.100000000000E+01
  0.100000000000E+01
  0.100000000000E+01
  0.100000000000E+01
  0.100000000000E+01
  0.100000000000E+01
  0.100000000000E+01
  0.100000000000E+01
  0.100000000000E+01
  0.100000000000E+01
  0.100000000000E+01
  0.100000000000E+01
  0.100000000000E+01
  0.100000000000E+01
  0.100000000000E+01
  0.100000000000E+01
  0.100000000000E+01
  0.100000000000E+01
  0.100000000000E+01
  0.100000000000E+01
  0.100000000000E+01
  0.100000000000E+01
  0.100000000000E+01
  0.100000000000E+01
  0.100000000000E+01
  0.100000000000E+01
  0.100000000000E+01
  0.100000000000E+01
  0.100000000000E+01
  0.100000000000E+01
  0.100000000000E+01
  0.100000000000E+01
  0.100000000000E+01
  0.100000000000E+01
  0.100000000000E+01
  0.100000000000E+01
  0.100000000000E+01
  0.100000000000E+01
  0.100000000000E+01
  0.100000000000E+01
  0.100000000000E+01
  0.100000000000E+01
  0.100000000000E+01
  0.100000000000E+01
  0.100000000000E+01
  0.100000000000E+01
  0.100000000000E+01
  0.100000000000E+01
  0.100000000000E+01
  0.100000000000E+01
  0.100000000000E+01
  0.100000000000E+01
  0.100000000000E+01
  0.100000000000E+01
  0.100000000000E+01
  0.100000000000E+01
  0.100000000000E+01
  0.100000000000E+01
  0.100000000000E+01
  0.100000000000E+01
  0.100000000000E+01
  0.100000000000E+01
  0.100000000000E+01
  0.100000000000E+01
  0.100000000000E+01
  0.100000000000E+01
  0.100000000000E+01
  0.100000000000E+01
  0.100000000000E+01
  0.100000000000E+01
  0.100000000000E+01
  0.100000000000E+01
  0.100000000000E+01
  0.100000000000E+01
  0.100000000000E+01
  0.100000000000E+01
  0.100000000000E+01
  0.100000000000E+01
  0.100000000000E+01
  0.100000000000E+01
  0.100000000000E+01
  0.100000000000E+01
  0.100000000000E+01
  0.100000000000E+01
  0.100000000000E+01
  0.100000000000E+01
  0.100000000000E+01
  0.100000000000E+01
  0.100000000000E+01
  0.100000000000E+01
  0.100000000000E+01
  0.100000000000E+01
  0.100000000000E+01
  0.100000000000E+01
  0.100000000000E+01
  0.100000000000E+01
  0.100000000000E+01
  0.100000000000E+01
  0.100000000000E+01
  0.100000000000E+01
  0.100000000000E+01
  0.100000000000E+01
  0.100000000000E+01
  0.100000000000E+01
  0.100000000000E+01
  0.100000000000E+01
  0.100000000000E+01
  0.100000000000E+01
  0.100000000000E+01
  0.100000000000E+01
  0.100000000000E+01
  0.100000000000E+01
  0.100000000000E+01
  0.100000000000E+01
  0.100000000000E+01
  0.100000000000E+01
  0.100000000000E+01
  0.100000000000E+01
  0.100000000000E+01
  0.100000000000E+01
  0.100000000000E+01
  0.100000000000E+01
  0.100000000000E+01
  0.100000000000E+01
  0.100000000000E+01
  0.100000000000E+01
  0.100000000000E+01
  0.100000000000E+01
  0.100000000000E+01
  0.100000000000E+01
  0.100000000000E+01
  0.100000000000E+01
  0.100000000000E+01
  0.100000000000E+01
  0.100000000000E+01
  0.100000000000E+01
  0.100000000000E+01
  0.100000000000E+01
  0.100000000000E+01
  0.100000000000E+01
  0.100000000000E+01
  0.100000000000E+01
  0.100000000000E+01
  0.100000000000E+01
  0.100000000000E+01
  0.100000000000E+01
  0.100000000000E+01
  0.100000000000E+01
  0.100000000000E+01
  0.100000000000E+01
  0.100000000000E+01
  0.100000000000E+01
  0.100000000000E+01
  0.100000000000E+01
  0.100000000000E+01
  0.100000000000E+01
  0.100000000000E+01
  0.100000000000E+01
  0.100000000000E+01
  0.100000000000E+01
  0.100000000000E+01
  0.100000000000E+01
  0.100000000000E+01
  0.100000000000E+01
  0.100000000000E+01
  0.100000000000E+01
  0.100000000000E+01
  0.100000000000E+01
  0.100000000000E+01
  0.100000000000E+01
  0.100000000000E+01
  0.100000000000E+01
  0.100000000000E+01
  0.100000000000E+01
  0.100000000000E+01
  0.100000000000E+01
  0.100000000000E+01
  0.100000000000E+01
  0.100000000000E+01
  0.100000000000E+01
  0.100000000000E+01
  0.100000000000E+01
  0.100000000000E+01
  0.100000000000E+01
  0.100000000000E+01
  0.100000000000E+01
  0.100000000000E+01
  0.100000000000E+01
  0.100000000000E+01
  0.100000000000E+01
  0.100000000000E+01
  0.100000000000E+01
  0.100000000000E+01
  0.100000000000E+01
  0.100000000000E+01
  0.100000000000E+01
  0.100000000000E+01
  0.100000000000E+01
  0.100000000000E+01
  0.100000000000E+01
  0.100000000000E+01
  0.100000000000E+01
  0.100000000000E+01
  0.100000000000E+01
  0.100000000000E+01
  0.100000000000E+01
  0.100000000000E+01
  0.100000000000E+01
  0.100000000000E+01
  0.100000000000E+01
  0.100000000000E+01
VECTORS v float
  0.151767219057E+03  0.365717071483E+01  0.158261943426E+02
  0.154305346481E+03  0.292568431937E+01  0.161755801361E+02
  0.157976333158E+03 -0.745320512201E+00  0.171164829948E+02
  0.160118269217E+03  0.590942201220E+00  0.172033549604E+02
  0.163822912283E+03 -0.311371937589E+01  0.162595829090E+02
  0.165369083222E+03 -0.550438520093E+00  0.161605174049E+02
  0.164292194890E+03  0.526449055732E+00  0.338407958981E+01
  0.165815672441E+03 -0.509538827063E+01  0.353173106404E+01
  0.146892917094E+03  0.138273837150E+02 -0.184598467947E+02
  0.153937315102E+03 -0.536216428545E+01 -0.220992102656E+02
  0.903690592158E+02  0.582061159850E+02 -0.186432778586E+02
  0.936256788398E+02  0.509409956360E+02 -0.247422135266E+02
  0.157627089396E+03 -0.130604149205E+02  0.989391594628E+02
  0.137344596939E+03  0.321873468733E+02  0.609544907255E+02
  0.198319212599E+03 -0.287872850705E+02  0.315059013830E+02
  0.188944181326E+03 -0.324889115346E+01  0.266624583901E+02
  0.193513392560E+03 -0.781809849973E+01 -0.416034387877E+01
  0.193843413517E+03 -0.903592046818E+01 -0.419233215669E+01
  0.185120115487E+03 -0.312592194982E+00 -0.180610963579E+02
  0.180943602458E+03 -0.723651901492E+01 -0.183286954654E+02
  0.172554520414E+03  0.115260464049E+01 -0.184839048969E+02
  0.166980810456E+03 -0.232459850505E+01 -0.182578320442E+02
  0.160711068928E+03  0.394517403392E+01 -0.167511221746E+02
  0.154034839981E+03  0.586925968310E+01 -0.158321267651E+02
  0.151806630768E+03  0.730323455581E+01  0.154408011484E+02
  0.151808367540E+03  0.730217096778E+01  0.154411047332E+02
  0.157335396261E+03  0.177511035476E+01  0.167755587368E+02
  0.158004448488E+03  0.170039181649E+01  0.168557687039E+02
  0.162737033633E+03 -0.303221570675E+01  0.161458813102E+02
  0.163828377346E+03 -0.253218249209E+01  0.162034732614E+02
  0.165815918144E+03 -0.451973348629E+01  0.351984075551E+01
  0.166107894597E+03 -0.523753830078E+01  0.354070904515E+01
  0.154165169681E+03  0.670519379942E+01 -0.204567482060E+02
  0.154764750188E+03  0.555297073571E+01 -0.206997774472E+02
  0.967909388974E+02  0.635268056956E+02 -0.192815815314E+02
  0.934762974545E+02  0.688294911756E+02 -0.142865400971E+02
  0.171598313889E+03 -0.929252525917E+01  0.104853513167E+03
  0.162311213320E+03  0.556475597820E+01  0.908582193505E+02
  0.204088439323E+03 -0.362124752752E+02  0.333363390545E+02
  0.198385930020E+03 -0.252538814317E+02  0.310249769628E+02
  0.193325534198E+03 -0.201934657042E+02 -0.441219571697E+01
  0.193507918964E+03 -0.206418464937E+02 -0.442522772845E+01
  0.180935772960E+03 -0.806965714710E+01 -0.184090806861E+02
  0.177256057349E+03 -0.975563419474E+01 -0.182148934586E+02
  0.167013135772E+03  0.487335544238E+00 -0.179580784273E+02
  0.163745007859E+03  0.852314843652E+00 -0.175662832477E+02
  0.154087231062E+03  0.105101473734E+02 -0.153418228892E+02
  0.152754712829E+03  0.113263080321E+02 -0.151122224441E+02
  0.151759595180E+03  0.856731106056E+01  0.153007108731E+02
  0.151820374590E+03  0.852068551572E+01  0.153121790533E+02
  0.157299642715E+03  0.304138519055E+01  0.166351385952E+02
  0.157349685604E+03  0.301812023344E+01  0.166430532192E+02
  0.162332909886E+03 -0.196512705950E+01  0.160025848048E+02
  0.162746593577E+03 -0.201494226928E+01  0.160477296591E+02
  0.166107835415E+03 -0.537619804682E+01  0.354357303728E+01
  0.165283930451E+03 -0.383159044745E+01  0.349462921954E+01
  0.154785777097E+03  0.666657075369E+01 -0.205482075737E+02
  0.153215024691E+03  0.909999768075E+01 -0.199927086212E+02
  0.934781584036E+02  0.688368893262E+02 -0.142833296309E+02
  0.896189666241E+02  0.740208301298E+02 -0.904147076941E+01