# vtk DataFile Version 3.0
MachLine results file. Generated by MachLine, USU AeroLab (c) 2022.
ASCII
DATASET POLYDATA
POINTS                7064 float
  0.000000000000E+00  0.000000000000E+00  0.000000000000E+00
  0.389988087118E-01  0.000000000000E+00 -0.109218262136E+00
  0.389988087118E-01  0.000000000000E+00  0.109218262136E+00
  0.147665724158E+00  0.000000000000E+00 -0.234920635819E+00
  0.147665724158E+00  0.000000000000E+00  0.234920635819E+00
  0.161138445139E+00  0.161138445139E+00  0.000000000000E+00
  0.200137257576E+00  0.161138445139E+00 -0.109218269587E+00
  0.200137257576E+00  0.161138445139E+00  0.109218269587E+00
  0.290265858173E+00  0.000000000000E+00 -0.347333192825E+00
  0.290265858173E+00  0.000000000000E+00  0.347333192825E+00
  0.308804154396E+00  0.161138445139E+00 -0.234920650721E+00
  0.308804154396E+00  0.161138445139E+00  0.234920650721E+00
  0.335006117821E+00  0.335006117821E+00  0.000000000000E+00
  0.374004930258E+00  0.335006117821E+00 -0.109218277037E+00
  0.374004930258E+00  0.335006117821E+00  0.109218277037E+00
  0.451404303312E+00  0.161138445139E+00 -0.347333222628E+00
  0.451404303312E+00  0.161138445139E+00  0.347333222628E+00
  0.473465979099E+00  0.000000000000E+00 -0.436293870211E+00
  0.473465979099E+00  0.000000000000E+00  0.436293870211E+00
  0.482671856880E+00  0.335006117821E+00 -0.234920650721E+00
  0.482671856880E+00  0.335006117821E+00  0.234920650721E+00
  0.522506594658E+00  0.522506594658E+00  0.000000000000E+00
  0.561505436897E+00  0.522506594658E+00 -0.109218284488E+00
  0.561505436897E+00  0.522506594658E+00  0.109218284488E+00
  0.625271975994E+00  0.335006117821E+00 -0.347333222628E+00
  0.625271975994E+00  0.335006117821E+00  0.347333222628E+00
  0.634604454041E+00  0.161138445139E+00 -0.436293900013E+00
  0.634604454041E+00  0.161138445139E+00  0.436293900013E+00
  0.670172333717E+00  0.522506594658E+00 -0.234920665622E+00
  0.670172333717E+00  0.522506594658E+00  0.234920665622E+00
  0.689334988594E+00  0.000000000000E+00 -0.522850036621E+00
  0.689334988594E+00  0.000000000000E+00  0.522850036621E+00
  0.724590361118E+00  0.724590361118E+00  0.000000000000E+00
  0.763589203358E+00  0.724590361118E+00 -0.109218291938E+00
  0.763589203358E+00  0.724590361118E+00  0.109218291938E+00
  0.808472156525E+00  0.335006117821E+00 -0.436293929815E+00
  0.808472156525E+00  0.335006117821E+00  0.436293929815E+00
  0.812772512436E+00  0.522506594658E+00 -0.347333252430E+00
  0.812772512436E+00  0.522506594658E+00  0.347333252430E+00
  0.850473463535E+00  0.161138445139E+00 -0.522850036621E+00
  0.850473463535E+00  0.161138445139E+00  0.522850036621E+00
  0.872256100178E+00  0.724590361118E+00 -0.234920680523E+00
  0.872256100178E+00  0.724590361118E+00  0.234920680523E+00
  0.942254066467E+00  0.942254066467E+00  0.000000000000E+00
  0.944064557552E+00  0.000000000000E+00 -0.604293465614E+00
  0.944064557552E+00  0.000000000000E+00  0.604293465614E+00
  0.981252849102E+00  0.942254066467E+00 -0.109218299389E+00
  0.981252849102E+00  0.942254066467E+00  0.109218299389E+00
  0.995972692966E+00  0.522506594658E+00 -0.436293959618E+00
  0.995972692966E+00  0.522506594658E+00  0.436293959618E+00
  0.101485633850E+01  0.724590361118E+00 -0.347333282232E+00
  0.101485633850E+01  0.724590361118E+00  0.347333282232E+00
  0.102434122562E+01  0.335006117821E+00 -0.522850096226E+00
  0.102434122562E+01  0.335006117821E+00  0.522850096226E+00
  0.108991980553E+01  0.942254066467E+00 -0.234920710325E+00
  0.108991980553E+01  0.942254066467E+00  0.234920710325E+00
  0.110520303249E+01  0.161138445139E+00 -0.604293525219E+00
  0.110520303249E+01  0.161138445139E+00  0.604293525219E+00
  0.117653930187E+01  0.117653930187E+01  0.000000000000E+00
  0.119805645943E+01  0.724590361118E+00 -0.436293989420E+00
  0.119805645943E+01  0.724590361118E+00  0.436293989420E+00
  0.121184170246E+01  0.522506594658E+00 -0.522850096226E+00
  0.121184170246E+01  0.522506594658E+00  0.522850096226E+00
  0.121553814411E+01  0.117653930187E+01 -0.109218306839E+00
  0.121553814411E+01  0.117653930187E+01  0.109218306839E+00
  0.123251998425E+01  0.942254066467E+00 -0.347333312035E+00
  0.123251998425E+01  0.942254066467E+00  0.347333312035E+00
  0.123833239079E+01  0.000000000000E+00 -0.683996438980E+00
  0.123833239079E+01  0.000000000000E+00  0.683996438980E+00
  0.127907073498E+01  0.335006117821E+00 -0.604293525219E+00
  0.127907073498E+01  0.335006117821E+00  0.604293525219E+00
  0.132420504093E+01  0.117653930187E+01 -0.234920725226E+00
  0.132420504093E+01  0.117653930187E+01  0.234920725226E+00
  0.139947092533E+01  0.161138445139E+00 -0.683996498585E+00
  0.139947092533E+01  0.161138445139E+00  0.683996498585E+00
  0.141392552853E+01  0.724590361118E+00 -0.522850155830E+00
  0.141392552853E+01  0.724590361118E+00  0.522850155830E+00
  0.141572022438E+01  0.942254066467E+00 -0.436294019222E+00
  0.141572022438E+01  0.942254066467E+00  0.436294019222E+00
  0.142853081226E+01  0.142853081226E+01  0.000000000000E+00
  0.146657133102E+01  0.522506594658E+00 -0.604293584824E+00
  0.146657133102E+01  0.522506594658E+00  0.604293584824E+00
  0.146680521965E+01  0.117653930187E+01 -0.347333341837E+00
  0.146680521965E+01  0.117653930187E+01  0.347333341837E+00
  0.146752965450E+01  0.142853081226E+01 -0.109218314290E+00
  0.146752965450E+01  0.142853081226E+01  0.109218314290E+00
  0.157333862782E+01  0.335006117821E+00 -0.683996558189E+00
  0.157333862782E+01  0.335006117821E+00  0.683996558189E+00
  0.157619655132E+01  0.142853081226E+01 -0.234920740128E+00
  0.157619655132E+01  0.142853081226E+01  0.234920740128E+00
  0.157641971111E+01  0.000000000000E+00 -0.760520398617E+00
  0.157641971111E+01  0.000000000000E+00  0.760520398617E+00
  0.163158929348E+01  0.942254066467E+00 -0.522850155830E+00
  0.163158929348E+01  0.942254066467E+00  0.522850155830E+00
  0.165000545979E+01  0.117653930187E+01 -0.436294049025E+00
  0.165000545979E+01  0.117653930187E+01  0.436294049025E+00
  0.166865515709E+01  0.724590361118E+00 -0.604293584824E+00
  0.166865515709E+01  0.724590361118E+00  0.604293584824E+00
  0.169935321808E+01  0.169935321808E+01  0.000000000000E+00
  0.171879673004E+01  0.142853081226E+01 -0.347333371639E+00
  0.171879673004E+01  0.142853081226E+01  0.347333371639E+00
  0.173755824566E+01  0.161138445139E+00 -0.760520458221E+00
  0.173755824566E+01  0.161138445139E+00  0.760520458221E+00
  0.173835194111E+01  0.169935321808E+01 -0.109218329191E+00
  0.173835194111E+01  0.169935321808E+01  0.109218329191E+00
  0.176083922386E+01  0.522506594658E+00 -0.683996558189E+00
  0.176083922386E+01  0.522506594658E+00  0.683996558189E+00
  0.184701895714E+01  0.169935321808E+01 -0.234920755029E+00
  0.184701895714E+01  0.169935321808E+01  0.234920755029E+00
  0.186587452888E+01  0.117653930187E+01 -0.522850215435E+00
  0.186587452888E+01  0.117653930187E+01  0.522850215435E+00
  0.188631892204E+01  0.942254066467E+00 -0.604293644428E+00
  0.188631892204E+01  0.942254066467E+00  0.604293644428E+00
  0.190199697018E+01  0.142853081226E+01 -0.436294078827E+00
  0.190199697018E+01  0.142853081226E+01  0.436294078827E+00
  0.191142594814E+01  0.335006117821E+00 -0.760520458221E+00
  0.191142594814E+01  0.335006117821E+00  0.760520458221E+00
  0.196138751507E+01  0.000000000000E+00 -0.833668828011E+00
  0.196138751507E+01  0.000000000000E+00  0.833668828011E+00
  0.196292304993E+01  0.724590361118E+00 -0.683996617794E+00
  0.196292304993E+01  0.724590361118E+00  0.683996617794E+00
  0.198961913586E+01  0.169935321808E+01 -0.347333401442E+00
  0.198961913586E+01  0.169935321808E+01  0.347333401442E+00
  0.199016737938E+01  0.199016737938E+01  0.000000000000E+00
  0.202916622162E+01  0.199016737938E+01 -0.109218336642E+00
  0.202916622162E+01  0.199016737938E+01  0.109218336642E+00
  0.209892654419E+01  0.522506594658E+00 -0.760520517826E+00
  0.209892654419E+01  0.522506594658E+00  0.760520517826E+00
  0.211786603928E+01  0.142853081226E+01 -0.522850275040E+00
  0.211786603928E+01  0.142853081226E+01  0.522850275040E+00
  0.212060427666E+01  0.117653930187E+01 -0.604293704033E+00
  0.212060427666E+01  0.117653930187E+01  0.604293704033E+00
  0.212252616882E+01  0.161138445139E+00 -0.833668828011E+00
  0.212252616882E+01  0.161138445139E+00  0.833668828011E+00
  0.213783311844E+01  0.199016737938E+01 -0.234920784831E+00
  0.213783311844E+01  0.199016737938E+01  0.234920784831E+00
  0.217281937599E+01  0.169935321808E+01 -0.436294138432E+00
  0.217281937599E+01  0.169935321808E+01  0.436294138432E+00
  0.218058681488E+01  0.942254066467E+00 -0.683996677399E+00
  0.218058681488E+01  0.942254066467E+00  0.683996677399E+00
  0.228043341637E+01  0.199016737938E+01 -0.347333431244E+00
  0.228043341637E+01  0.199016737938E+01  0.347333431244E+00
  0.229639387131E+01  0.335006117821E+00 -0.833668887615E+00
  0.229639387131E+01  0.335006117821E+00  0.833668887615E+00
  0.230101037025E+01  0.724590361118E+00 -0.760520577431E+00
  0.230101037025E+01  0.724590361118E+00  0.760520577431E+00
  0.230216526985E+01  0.230216526985E+01  0.000000000000E+00
  0.234116411209E+01  0.230216526985E+01 -0.109218344092E+00
  0.234116411209E+01  0.230216526985E+01  0.109218344092E+00
  0.237259578705E+01  0.142853081226E+01 -0.604293763638E+00
  0.237259578705E+01  0.142853081226E+01  0.604293763638E+00
  0.238868856430E+01  0.169935321808E+01 -0.522850275040E+00
  0.238868856430E+01  0.169935321808E+01  0.522850275040E+00
  0.239635515213E+01  0.000000000000E+00 -0.902061045170E+00
  0.239635515213E+01  0.000000000000E+00  0.902061045170E+00
  0.241487216949E+01  0.117653930187E+01 -0.683996737003E+00
  0.241487216949E+01  0.117653930187E+01  0.683996737003E+00
  0.244983124733E+01  0.230216526985E+01 -0.234920799732E+00
  0.244983124733E+01  0.230216526985E+01  0.234920799732E+00
  0.246363353729E+01  0.199016737938E+01 -0.436294168234E+00
  0.246363353729E+01  0.199016737938E+01  0.436294168234E+00
[...]
CELL_DATA               13888
SCALARS C_p_inc float 1
LOOKUP_TABLE default
  0.218262570152E+00
  0.184619109513E+00
  0.157990009045E+00
  0.131943714144E+00
  0.127498464898E+00
  0.111012232295E+00
  0.107155900371E+00
  0.964793028724E-01
  0.925379709949E-01
  0.850109105273E-01
  0.809214794258E-01
  0.752787167075E-01
  0.710678995123E-01
  0.666479573630E-01
  0.623169752971E-01
  0.587167100373E-01
  0.541671659537E-01
  0.510864955486E-01
  0.460973342619E-01
  0.433034532733E-01
  0.379485151182E-01
  0.354240019015E-01
  0.300751793485E-01
  0.278741501689E-01
  0.224058086331E-01
  0.203574474640E-01
  0.137677704471E-01
  0.115165186566E-01
  0.500165406911E-02
  0.307309210266E-02
 -0.375265435527E-02
 -0.576792113238E-02
 -0.142165797688E-01
 -0.165836976630E-01
 -0.224125169964E-01
 -0.237233742356E-01
 -0.296340331949E-01
 -0.313639554438E-01
 -0.343576079215E-01
 -0.349382741853E-01
 -0.379810854337E-01
 -0.371870152912E-01
 -0.367566761340E-01
 -0.371982033680E-01
 -0.299011379788E-01
 -0.314917999450E-01
 -0.220037961622E-01
 -0.240490921064E-01
  0.249082195859E-02
 -0.440520271423E-02
  0.358425595880E-01
  0.275268093569E-01
  0.720090092536E-01
  0.623650919382E-01
  0.110100185531E+00
  0.992317380534E-01
  0.148803841529E+00
  0.136910649140E+00
  0.186555090207E+00
  0.173598960083E+00
  0.226468047898E+00
  0.210873772687E+00
  0.272392258650E+00
  0.253136597905E+00
  0.323534462593E+00
  0.300883819695E+00
  0.382171287173E+00
  0.355425992434E+00
  0.445541934287E+00
  0.415535925630E+00
  0.525093962948E+00
  0.490868643127E+00
  0.612172276137E+00
  0.578890206807E+00
  0.730091034986E+00
  0.714041710000E+00
  0.822351129866E+00
  0.830906946856E+00
  0.810870280751E+00
  0.778103760213E+00
  0.487227774988E+00
  0.576041382663E+00
  0.174943354160E+00
  0.316449249131E+00
 -0.103696483135E+00
  0.746522175196E-01
 -0.244290246742E+00
 -0.114629171135E+00
 -0.269821480412E+00
 -0.180388242444E+00
 -0.307066559611E+00
 -0.248651458872E+00
 -0.331194398898E+00
 -0.288180333711E+00
 -0.357293035571E+00
 -0.326768438209E+00
 -0.378256976249E+00
 -0.355845290791E+00
 -0.394852282507E+00
 -0.379621624225E+00
 -0.407102238126E+00
 -0.396214695269E+00
 -0.421592514245E+00
 -0.411972178238E+00
 -0.439472870007E+00
 -0.431131162533E+00
 -0.456999687824E+00
 -0.450269066646E+00
 -0.472098688593E+00
 -0.467094299997E+00
 -0.483550207829E+00
 -0.480351476194E+00
 -0.478141104419E+00
 -0.481660304727E+00
 -0.457398285048E+00
 -0.460891875335E+00
 -0.436641743022E+00
 -0.441235022845E+00
 -0.410217574702E+00
 -0.416040184869E+00
 -0.387170148038E+00
 -0.382126993803E+00
 -0.359721730381E+00
 -0.353430687444E+00
 -0.328794567082E+00
 -0.323268421112E+00
 -0.300269758258E+00
 -0.293556253170E+00
 -0.268671964146E+00
 -0.262524781922E+00
 -0.241044954162E+00
 -0.235055822610E+00
 -0.215166709903E+00
 -0.208777889379E+00
 -0.189916743848E+00
 -0.183718282049E+00
 -0.167242572010E+00
 -0.160741353545E+00
 -0.145356837723E+00
 -0.138294032872E+00
 -0.123807617945E+00
 -0.116183794544E+00
 -0.102990216685E+00
 -0.947033377459E-01
 -0.828464877293E-01
 -0.735258346412E-01
 -0.627277310411E-01
 -0.519006613245E-01
 -0.420468529764E-01
 -0.290792521551E-01
 -0.201847222166E-01
 -0.407366009979E-02
  0.380880252695E-02
  0.248744208446E-01
  0.318182422997E-01
  0.613863675759E-01
  0.684746743144E-01
  0.111197534489E+00
  0.144843438705E+00
  0.193964774043E+00
  0.214892806473E+00
  0.216139387452E+00
  0.162655122336E+00
  0.157591842294E+00
  0.138377720217E+00
  0.127398366182E+00
  0.117656348281E+00
  0.107121231512E+00
  0.100755156828E+00
  0.925215078141E-01
  0.872163119104E-01
  0.809121645335E-01
  0.760037938119E-01
  0.710620770850E-01
  0.663126658472E-01
  0.623130734493E-01
  0.575248061141E-01
  0.541645396565E-01
  0.490361078322E-01
  0.460961137096E-01
  0.405724311871E-01
  0.379488329377E-01
  0.324134889989E-01
  0.300764023599E-01
  0.245617191354E-01
  0.224076694660E-01
  0.158986181517E-01
  0.137719118356E-01
  0.696619989845E-02
  0.500589887578E-02
 -0.183334885195E-02
 -0.374719714171E-02
 -0.122939994362E-01
 -0.142090521036E-01
 -0.210482627351E-01
 -0.224167062140E-01
 -0.284230185670E-01
 -0.296421079106E-01
 -0.338483424367E-01
 -0.343891977684E-01
 -0.372501585333E-01
 -0.370373163942E-01
 -0.372640051008E-01
 -0.380615993300E-01
 -0.315424096252E-01
 -0.335104755144E-01
 -0.241033330571E-01
 -0.273398238753E-01
 -0.430436909486E-02
 -0.106103094267E-01
  0.277028769545E-01
  0.196936466606E-01
  0.625723598049E-01
  0.534083949545E-01
  0.994221016917E-01
  0.893415811303E-01
  0.137025676342E+00
  0.126209623365E+00
  0.173603916486E+00
  0.162004137286E+00
  0.210699729583E+00
  0.197847364690E+00
  0.252483673856E+00
  0.238193305258E+00
  0.299212535499E+00
  0.283848553623E+00
  0.351653749940E+00
  0.335914564687E+00
  0.408097164763E+00
  0.392944182572E+00
  0.474997999944E+00
  0.462452718759E+00
  0.548427402763E+00
  0.540275661929E+00
  0.642382325799E+00
  0.641932618294E+00
  0.709203714093E+00
  0.706073119855E+00
  0.641737576298E+00
  0.606795200945E+00
  0.321622313375E+00
  0.365959075441E+00
  0.550418362767E-01
  0.128425188914E+00
 -0.201512235860E+00
 -0.109315719328E+00
 -0.326546696281E+00
 -0.234920478572E+00
 -0.335327028464E+00
 -0.264910224073E+00
 -0.360007448216E+00
 -0.304488882773E+00
 -0.372824888842E+00
 -0.330075775083E+00
 -0.390095186279E+00
 -0.357083168962E+00
 -0.403679190351E+00
 -0.378531153872E+00
 -0.414240706425E+00
 -0.395403372904E+00
 -0.422122529490E+00
 -0.407663443483E+00
 -0.433941208048E+00
 -0.422058217503E+00
 -0.449789428478E+00
 -0.439925036073E+00
 -0.465346386168E+00
 -0.457489024721E+00
 -0.478380987449E+00
 -0.472650271151E+00
 -0.487214192770E+00
 -0.484228477387E+00
 -0.477490515543E+00
 -0.478933421967E+00
 -0.455104139397E+00
 -0.457980357134E+00
 -0.432980759639E+00
 -0.437131006941E+00
 -0.405432940186E+00
 -0.410598415018E+00
 -0.382131203426E+00
 -0.377280680895E+00
 -0.353388603193E+00
 -0.347834187763E+00
 -0.323233220322E+00
 -0.317629715712E+00
 -0.293502485542E+00
 -0.287307812891E+00
 -0.262486513672E+00
 -0.256353886416E+00
 -0.235026149465E+00
 -0.228848396921E+00
 -0.208752670399E+00
 -0.202332022004E+00
 -0.183702488310E+00
 -0.177156113580E+00
 -0.160729707207E+00
 -0.153812960782E+00
 -0.138286728173E+00
 -0.130815297235E+00
 -0.116182062110E+00
 -0.108049612950E+00
 -0.947066889567E-01
 -0.857050970483E-01
 -0.735338632334E-01
 -0.633030850848E-01
 -0.519148593060E-01
 -0.399758100474E-01
 -0.291033537739E-01
 -0.148184942904E-01
 -0.411632356226E-02
  0.133156401789E-01
  0.247879275435E-01
  0.458119205684E-01
  0.611562182423E-01
  0.832164384327E-01
  0.110371314639E+00
  0.124876280216E+00
  0.190289421912E+00
  0.194480826272E+00
  0.214790462009E+00
  0.213842882496E+00
  0.162585665470E+00
  0.162131041900E+00
  0.141364325991E+00
  0.138102100101E+00
  0.123714639541E+00
  0.117538435252E+00
  0.107716227978E+00
  0.100703198628E+00
  0.934867232836E-01
  0.871899787125E-01
  0.812238648533E-01
  0.759886907636E-01
  0.706168581720E-01
  0.663032188864E-01
  0.611341384634E-01
  0.575187023263E-01
  0.521516727290E-01
  0.490327749392E-01
  0.433308888761E-01
  0.405719148541E-01
  0.348796145439E-01
  0.324150993077E-01
  0.268067458578E-01
  0.245647055093E-01
  0.180325833923E-01
  0.159043344337E-01
  0.896775916392E-02
  0.697417709470E-02
  0.513596710370E-04
 -0.182382423596E-02
 -0.104973772724E-01
 -0.122821770022E-01
 -0.196506321412E-01
 -0.210463682814E-01
 -0.273642763665E-01
 -0.284313452914E-01
 -0.333594007059E-01
 -0.338863811545E-01
 -0.371162179501E-01
 -0.371034754434E-01
 -0.381171293442E-01
 -0.390076030831E-01
 -0.335078259020E-01
 -0.355834090899E-01
 -0.272515471852E-01
 -0.307113130549E-01
 -0.103026778810E-01
 -0.160544413387E-01
  0.200996683599E-01
  0.125473168717E-01
  0.538087245866E-01
  0.451870964787E-01
  0.896440572952E-01
  0.802830870750E-01
  0.126324528423E+00
  0.116445966387E+00
  0.161874800593E+00
  0.151547277355E+00
  0.197345160246E+00
  0.186506118378E+00
  0.236944413199E+00
  0.225667170642E+00
  0.281291792877E+00
  0.269962776704E+00
  0.331132069288E+00
  0.320488078792E+00
  0.384826990734E+00
  0.375667783104E+00
  0.448511777716E+00
  0.442190581426E+00
  0.518281976227E+00
  0.515406383265E+00
  0.606029803040E+00
  0.606000840916E+00
  0.659036578114E+00
  0.652238013800E+00
  0.562857578025E+00
  0.529830771173E+00
  0.227508756267E+00
  0.264713645739E+00
 -0.296226276808E-01
  0.280203353652E-01
 -0.278976618182E+00
 -0.206572913077E+00
 -0.393650751175E+00
 -0.319091608830E+00
 -0.390227494401E+00
 -0.329558516973E+00
 -0.405859540740E+00
 -0.355289824817E+00
 -0.410417705232E+00
 -0.369683939546E+00
 -0.420875833126E+00
 -0.388062111645E+00
 -0.428479375367E+00
 -0.402516047274E+00
 -0.434077163328E+00
 -0.413681963164E+00
 -0.438147655150E+00
 -0.421901503953E+00
 -0.447188471435E+00
 -0.433883202461E+00
 -0.460788062483E+00
 -0.449874160596E+00
 -0.474212600696E+00
 -0.465602071639E+00
 -0.484997788546E+00
 -0.478848538676E+00
 -0.490887960504E+00
 -0.488008530030E+00
 -0.477863766939E+00
 -0.478538638936E+00
 -0.453505435561E+00
 -0.456027060573E+00
 -0.429851379959E+00
 -0.433820774745E+00
 -0.401193869032E+00
 -0.406134890580E+00
 -0.377258839959E+00
 -0.372535861448E+00
 -0.347761253936E+00
 -0.342448062800E+00
 -0.317550446810E+00
 -0.311901759659E+00
 -0.287222240656E+00
 -0.281135364527E+00
 -0.256287851621E+00
 -0.250101766320E+00
 -0.228794719672E+00
 -0.222437212567E+00
 -0.202290981743E+00
 -0.195694359247E+00
 -0.177127543935E+00
 -0.170266098177E+00
 -0.153792113622E+00
 -0.146479290478E+00
 -0.130803347680E+00
 -0.122889728340E+00
 -0.108047704510E+00
 -0.993828794728E-01
 -0.857128174869E-01
 -0.760527156939E-01
 -0.633217343605E-01
 -0.523393690144E-01
 -0.400109348831E-01
 -0.273627450786E-01
 -0.148833236223E-01
 -0.380094377224E-03
  0.131879461726E-01
  0.290003604896E-01
  0.455325284760E-01
  0.603786623420E-01
  0.825870529181E-01
  0.931673035499E-01
  0.123670510034E+00
  0.128586493594E+00
  0.192149526212E+00
  0.190118489248E+00
  0.202840954420E+00
  0.213722392508E+00
  0.159613865058E+00
  0.162116283559E+00
  0.141281498664E+00
  0.141056766179E+00
  0.125932951902E+00
  0.123525601104E+00
  0.111903708170E+00
  0.107613319559E+00
  0.985747996018E-01
  0.934328916408E-01
  0.861843229298E-01
  0.811943562910E-01
  0.750108008340E-01
  0.705995390961E-01
  0.649200154231E-01
  0.611236102301E-01
  0.554312233793E-01
  0.521459615109E-01
  0.462222449369E-01
  0.433294164158E-01
  0.374628269803E-01
  0.348813998840E-01
  0.291430555480E-01
  0.268107196482E-01
  0.202022905937E-01
  0.180398192337E-01
  0.109982048755E-01
  0.897823072959E-02
  0.192818315803E-02
  0.633949377230E-04
 -0.876423675891E-02
 -0.104836297451E-01
 -0.182385516951E-01
 -0.196455789184E-01
 -0.263696859783E-01
 -0.273752673606E-01
 -0.328796896689E-01
 -0.334015185330E-01
 -0.371853093335E-01
 -0.372598318775E-01
 -0.390540643727E-01
 -0.399737437209E-01
 -0.355506873193E-01
 -0.376281768612E-01
 -0.305563487692E-01
 -0.340165786303E-01
 -0.156969487475E-01
 -0.209872520338E-01
  0.130070516579E-01
  0.599636609562E-02
  0.456161538878E-01
  0.375759405448E-01
  0.805662959901E-01
  0.719127279089E-01
  0.116479177860E+00
  0.107485841036E+00
  0.151258737269E+00
  0.142076818834E+00
  0.185758882658E+00
  0.176501153665E+00
  0.224125040767E+00
  0.215009204909E+00
  0.267160115270E+00
  0.258554998539E+00
  0.315745119627E+00
  0.308238349149E+00
  0.368276579966E+00
  0.362462743838E+00
  0.430729844700E+00
  0.427401182310E+00
  0.499003087371E+00
  0.498181494991E+00
  0.582564894449E+00
  0.582210351221E+00
  0.624767175545E+00
  0.616275278916E+00
  0.505956914103E+00
  0.474368382115E+00
  0.154529053344E+00
  0.188594922303E+00
 -0.985343167353E-01
 -0.486367216018E-01
 -0.344576949303E+00
 -0.282493714987E+00
 -0.451952619720E+00
 -0.387392304557E+00
 -0.438860106019E+00
 -0.384748628336E+00
 -0.447374737926E+00
 -0.400900945567E+00
 -0.445319823755E+00
 -0.406715697473E+00
 -0.450189356887E+00
 -0.418166899929E+00
 -0.452812972576E+00
 -0.426651067783E+00
 -0.454172461893E+00
 -0.432919367653E+00
 -0.454763699517E+00
 -0.437455307149E+00
 -0.461049875946E+00
 -0.446805864406E+00
 -0.472315384851E+00
 -0.460665096817E+00
 -0.483487908617E+00
 -0.474365742998E+00
 -0.491837798571E+00
 -0.485481552703E+00
 -0.494728296856E+00
 -0.491817156800E+00
 -0.478859726962E+00
 -0.479058212174E+00
 -0.452385872755E+00
 -0.454651600977E+00
 -0.427106683233E+00
 -0.430932831712E+00
 -0.397301945560E+00
 -0.402125816895E+00
 -0.372519882613E+00
 -0.367900506106E+00
 -0.342369173187E+00
 -0.337173135832E+00
 -0.311799459348E+00
 -0.306124319514E+00
 -0.281028905634E+00
 -0.274966291781E+00
 -0.250014178726E+00
 -0.243740938608E+00
 -0.222363481451E+00
 -0.215835893013E+00
 -0.195637343782E+00
 -0.188825522010E+00
 -0.170224347153E+00
 -0.163046140634E+00
 -0.146448753235E+00
 -0.138754270434E+00
 -0.122872280570E+00
 -0.114525204465E+00
 -0.993802610538E-01
 -0.902189435407E-01
 -0.760659967086E-01
 -0.658877428312E-01
 -0.523733325463E-01
 -0.410159969463E-01
 -0.274304927887E-01
 -0.149658561852E-01
 -0.510598525090E-03
  0.123868494384E-01
  0.287489282775E-01
  0.405412739530E-01
  0.599185974988E-01
  0.689842471948E-01
  0.924250852539E-01
  0.984933329454E-01
  0.127553426525E+00
  0.132437072682E+00
  0.188867792047E+00
  0.199850191365E+00
  0.204391431914E+00
  0.202781671115E+00
  0.158021478475E+00
  0.159298488900E+00
  0.140313616805E+00
  0.141011559323E+00
  0.126316822149E+00
  0.125732265505E+00
  0.113836744778E+00
  0.111767543773E+00
  0.101875756135E+00
  0.984910560120E-01
  0.902235393076E-01
  0.861356089656E-01
  0.791095227971E-01
  0.749824379843E-01
  0.687052433725E-01
  0.649033161286E-01
  0.588068767404E-01
  0.554222029554E-01
  0.492226539558E-01
  0.462192524852E-01
  0.401487896033E-01
  0.374643467704E-01
  0.315669618364E-01
  0.291476743656E-01
  0.224235513941E-01
  0.202107097146E-01
  0.130558790396E-01
  0.110104094369E-01
  0.381223992876E-02
  0.194205206420E-02
 -0.706314300151E-02
 -0.874937218555E-02
 -0.168280518621E-01
 -0.182318093733E-01
 -0.253911044522E-01
 -0.263824808356E-01
 -0.324054501899E-01
 -0.329249321067E-01
 -0.373444047423E-01
 -0.374371198468E-01
 -0.400151539518E-01
 -0.409300575062E-01
 -0.375805806994E-01
 -0.395934354345E-01
 -0.338314859506E-01
 -0.371712641702E-01
 -0.206211331669E-01
 -0.255095275312E-01
  0.645763895951E-02
  0.560420080025E-04
  0.379945880043E-01
  0.306004532642E-01
  0.721587793903E-01
  0.642381686574E-01
  0.107447213672E+00
  0.993170531220E-01
  0.141676156310E+00
  0.133540251776E+00
  0.175611770351E+00
  0.167666414002E+00
  0.213351361613E+00
  0.205880986548E+00
  0.255768500372E+00
  0.249112849081E+00
  0.303835025246E+00
  0.298441249842E+00
  0.356001111309E+00
  0.352274889545E+00
  0.418030447083E+00
  0.416392203450E+00
  0.485617152986E+00
  0.485760001617E+00
  0.565768147452E+00
  0.565067275774E+00
  0.598636609519E+00
  0.589319090788E+00
  0.460031074475E+00
  0.429664675563E+00
  0.928866963339E-01
  0.125374406840E+00
 -0.158222152419E+00
 -0.112835468059E+00
 -0.402743501885E+00
 -0.347018045730E+00
 -0.504457193277E+00
 -0.446488127891E+00
 -0.483162152864E+00
 -0.433788092880E+00
 -0.485746668219E+00
 -0.442541787910E+00
 -0.478129047496E+00
 -0.441465706015E+00
 -0.478275133726E+00
 -0.447169329178E+00
 -0.476638318792E+00
 -0.450593840409E+00
 -0.474270285168E+00
 -0.452618727417E+00
 -0.471633223149E+00
 -0.453740953416E+00
 -0.475226595929E+00
 -0.460431019148E+00
 -0.484129885237E+00
 -0.472048823912E+00
 -0.492970850116E+00
 -0.483592690995E+00
 -0.498763719620E+00
 -0.492379321761E+00
 -0.498798856839E+00
 -0.495773974685E+00
 -0.480290817048E+00
 -0.480175014551E+00
 -0.451640025586E+00
 -0.453711601255E+00
 -0.424690622461E+00
 -0.428383865771E+00
 -0.393661808508E+00
 -0.398429132417E+00
 -0.367908570833E+00
 -0.363381460232E+00
 -0.337101051768E+00
 -0.331957555140E+00
 -0.306012699804E+00
 -0.300327277815E+00
 -0.274847814628E+00
 -0.268767092337E+00
 -0.243637860741E+00
 -0.237257595457E+00
 -0.215746841576E+00
 -0.209049954257E+00
 -0.188755067091E+00
 -0.181709048243E+00
 -0.162992991541E+00
 -0.155505037232E+00
 -0.138715587444E+00
 -0.130664708344E+00
 -0.114503748038E+00
 -0.105773589307E+00
 -0.902177599746E-01
 -0.806916903295E-01
 -0.659106799827E-01
 -0.555320569519E-01
 -0.410731008496E-01
 -0.300030618799E-01
 -0.150789030016E-01
 -0.391444569524E-02
  0.121808773095E-01
  0.223744312375E-01
  0.401969053423E-01
  0.484313973854E-01
  0.684671180453E-01
  0.745210245525E-01
  0.977802303184E-01
  0.102069964742E+00
  0.131436837262E+00
  0.133971763110E+00
  0.197632498164E+00
  0.194819067331E+00
  0.206973340503E+00
  0.203974856803E+00
  0.158543895095E+00
  0.157789129025E+00
  0.140152569669E+00
  0.140103422442E+00
  0.126349770342E+00
  0.126136896848E+00
  0.114629172975E+00
  0.113695271442E+00
  0.103718863987E+00
  0.101774009575E+00
  0.930485880782E-01
  0.901565212970E-01
  0.825140458168E-01
  0.790680327477E-01
  0.722220943165E-01
  0.686804768470E-01
  0.621427172795E-01
  0.587933065435E-01
  0.522725858765E-01
  0.492173677098E-01
  0.429089745166E-01
  0.401495027381E-01
  0.340658481456E-01
  0.315718103033E-01
  0.247004526447E-01
  0.224328177079E-01
  0.151447019441E-01
  0.130693111185E-01
  0.571212017405E-02
  0.382754574901E-02
 -0.537260063210E-02
 -0.704738251163E-02
 -0.154208194159E-01
 -0.168201774168E-01
 -0.244018666737E-01
 -0.254038000078E-01
 -0.319217471728E-01
 -0.324516386084E-01
 -0.375240896643E-01
 -0.375889201319E-01
 -0.409679295469E-01
 -0.418397327263E-01
 -0.395388767822E-01
 -0.414347997898E-01
 -0.369757126643E-01
 -0.401125897326E-01
 -0.251502510203E-01
 -0.296408171793E-01
  0.495250634960E-03
 -0.527971167322E-02
  0.309904055168E-01
  0.242886974098E-01
  0.644432502947E-01
  0.572728527927E-01
  0.992230127822E-01
  0.919310806772E-01
  0.133070587034E+00
  0.125897065666E+00
  0.166710594254E+00
  0.159892059579E+00
  0.204213539445E+00
  0.198053652982E+00
  0.246463676945E+00
  0.241270193807E+00
  0.294464872082E+00
  0.290575547130E+00
  0.346700369888E+00
  0.344375481176E+00
  0.408696801928E+00
  0.408108482610E+00
  0.475933011577E+00
  0.476584771771E+00
  0.553059457517E+00
  0.552084188581E+00
  0.577445684087E+00
  0.567722363847E+00
  0.420669074357E+00
  0.391326002591E+00
  0.382340339820E-01
  0.698950736231E-01
 -0.211923268164E+00
 -0.169415201626E+00
 -0.455861370593E+00
 -0.404420844223E+00
 -0.552866992429E+00
 -0.499578996243E+00
 -0.524296271793E+00
 -0.478493198774E+00
 -0.521727878693E+00
 -0.481161578900E+00
 -0.509271480069E+00
 -0.474313188824E+00
 -0.505319966386E+00
 -0.475147376440E+00
 -0.499943195378E+00
 -0.474218314039E+00
 -0.494212306201E+00
 -0.472485726591E+00
 -0.488545691808E+00
 -0.470406650729E+00
 -0.489515230265E+00
 -0.474459967702E+00
 -0.496045026730E+00
 -0.483782347044E+00
 -0.502494929653E+00
 -0.493070749152E+00
 -0.505693226859E+00
 -0.499375270716E+00
 -0.503056511483E+00
 -0.499930543329E+00
 -0.482019447223E+00
 -0.481706850451E+00
 -0.451180172266E+00
 -0.453110613750E+00
 -0.422541918284E+00
 -0.426127750760E+00
 -0.390210007613E+00
 -0.394956845071E+00
 -0.363424281929E+00
 -0.358967210399E+00
 -0.331900098099E+00
 -0.326774332521E+00
 -0.300216842073E+00
 -0.294520077129E+00
 -0.268643749607E+00
 -0.262516459672E+00
 -0.237144502545E+00
 -0.230646169269E+00
 -0.208949919670E+00
 -0.202079719593E+00
 -0.181627927496E+00
 -0.174346820963E+00
 -0.155442705299E+00
 -0.147670189406E+00
 -0.130619894439E+00
 -0.122269434496E+00
 -0.105750353659E+00
 -0.967563479721E-01
 -0.806951980764E-01
 -0.710609416966E-01
 -0.555697704586E-01
 -0.454778818800E-01
 -0.300897563104E-01
 -0.200358730330E-01
 -0.407398120370E-02
  0.515532442083E-02