# vtk DataFile Version 3.0
MachLine results file. Generated by MachLine, USU AeroLab (c) 2022.
ASCII
DATASET POLYDATA
POINTS                1848 float
  0.559710450636E-05  0.000000000000E+00 -0.120211578351E-21
  0.147669420356E+00  0.000000000000E+00 -0.234916154167E+00
  0.147669420356E+00  0.000000000000E+00  0.234916154167E+00
  0.339643488108E+00  0.339635660470E+00  0.560392593885E-22
  0.473468632512E+00  0.000000000000E+00 -0.436287762525E+00
  0.473468632512E+00  0.000000000000E+00  0.436287762525E+00
  0.487308608206E+00  0.339636249629E+00 -0.234917183841E+00
  0.487308608206E+00  0.339636249629E+00  0.234917183841E+00
  0.735369269503E+00  0.735360558377E+00  0.000000000000E+00
  0.813108237056E+00  0.339636920424E+00 -0.436288359745E+00
  0.813108237056E+00  0.339636920424E+00  0.436288359745E+00
  0.883034320569E+00  0.735361246371E+00 -0.234916856065E+00
  0.883034320569E+00  0.735361246371E+00  0.234916856065E+00
  0.944066647098E+00  0.000000000000E+00 -0.604286064991E+00
  0.944066647098E+00  0.000000000000E+00  0.604286064991E+00
  0.119528541420E+01  0.119527568962E+01  0.139239588662E-21
  0.120883396323E+01  0.735362022563E+00 -0.436287920848E+00
  0.120883396323E+01  0.735362022563E+00  0.436287920848E+00
  0.128370629013E+01  0.339637445796E+00 -0.604286441728E+00
  0.128370629013E+01  0.339637445796E+00  0.604286441728E+00
  0.134295035247E+01  0.119527649041E+01 -0.234916489990E+00
  0.134295035247E+01  0.119527649041E+01  0.234916489990E+00
  0.157642143906E+01  0.000000000000E+00 -0.760511625665E+00
  0.157642143906E+01  0.000000000000E+00  0.760511625665E+00
  0.166874987392E+01  0.119527738781E+01 -0.436287408051E+00
  0.166874987392E+01  0.119527738781E+01  0.436287408051E+00
  0.167943194385E+01  0.735362620399E+00 -0.604285952066E+00
  0.167943194385E+01  0.735362620399E+00  0.604285952066E+00
  0.172824569053E+01  0.172823481255E+01  0.389385905703E-21
  0.187591062046E+01  0.172823574089E+01 -0.234916066324E+00
  0.187591062046E+01  0.172823574089E+01  0.234916066324E+00
  0.191606115975E+01  0.339637789350E+00 -0.760511930360E+00
  0.191606115975E+01  0.339637789350E+00  0.760511930360E+00
  0.213934789061E+01  0.119527806879E+01 -0.604285440358E+00
  0.213934789061E+01  0.119527806879E+01  0.604285440358E+00
  0.220170988446E+01  0.172823677653E+01 -0.436286844900E+00
  0.220170988446E+01  0.172823677653E+01  0.436286844900E+00
  0.231178688624E+01  0.735363010380E+00 -0.760511482838E+00
  0.231178688624E+01  0.735363010380E+00  0.760511482838E+00
  0.234376538790E+01  0.234375320874E+01  0.697539761548E-21
  0.239635655070E+01  0.000000000000E+00 -0.902050767795E+00
  0.239635655070E+01  0.000000000000E+00  0.902050767795E+00
  0.249143005586E+01  0.234375427984E+01 -0.234915581477E+00
  0.249143005586E+01  0.234375427984E+01  0.234915581477E+00
  0.267230804490E+01  0.172823755218E+01 -0.604284839933E+00
  0.267230804490E+01  0.172823755218E+01  0.604284839933E+00
  0.273599651581E+01  0.339638112717E+00 -0.902051094889E+00
  0.273599651581E+01  0.339638112717E+00  0.902051094889E+00
  0.277170289895E+01  0.119527851203E+01 -0.760510950761E+00
  0.277170289895E+01  0.119527851203E+01  0.760510950761E+00
  0.281722952122E+01  0.234375547176E+01 -0.436286196457E+00
  0.281722952122E+01  0.234375547176E+01  0.436286196457E+00
  0.305186238041E+01  0.305184874783E+01  0.487988659489E-21
  0.313172232612E+01  0.735363369156E+00 -0.902050640810E+00
  0.313172232612E+01  0.735363369156E+00  0.902050640810E+00
  0.319952712879E+01  0.305184997693E+01 -0.234915033141E+00
  0.319952712879E+01  0.305184997693E+01  0.234915033141E+00
  0.328782757476E+01  0.234375635430E+01 -0.604284144956E+00
  0.328782757476E+01  0.234375635430E+01  0.604284144956E+00
  0.330466299259E+01  0.172823805608E+01 -0.760510326632E+00
  0.330466299259E+01  0.172823805608E+01  0.760510326632E+00
  0.342464501736E+01  0.000000000000E+00 -0.102347726804E+01
  0.342464501736E+01  0.000000000000E+00  0.102347726804E+01
  0.352532618079E+01  0.305185134378E+01 -0.436285459385E+00
  0.352532618079E+01  0.305185134378E+01  0.436285459385E+00
  0.359163829815E+01  0.119527891148E+01 -0.902050101036E+00
  0.359163829815E+01  0.119527891148E+01  0.902050101036E+00
  0.376428499675E+01  0.339638473036E+00 -0.102347755842E+01
  0.376428499675E+01  0.339638473036E+00  0.102347755842E+01
  0.386281012443E+01  0.386279488655E+01 -0.327271132968E-21
  0.392018245394E+01  0.234375692670E+01 -0.760509663821E+00
  0.392018245394E+01  0.234375692670E+01  0.760509663821E+00
  0.399592435318E+01  0.305185234589E+01 -0.604283351599E+00
  0.399592435318E+01  0.305185234589E+01  0.604283351599E+00
  0.401047470017E+01  0.386279628829E+01 -0.234914435781E+00
  0.401047470017E+01  0.386279628829E+01  0.234914435781E+00
  0.412459882225E+01  0.172823850189E+01 -0.902049467796E+00
  0.412459882225E+01  0.172823850189E+01  0.902049467796E+00
  0.416001101646E+01  0.735363758474E+00 -0.102347710272E+01
  0.416001101646E+01  0.735363758474E+00  0.102347710272E+01
  0.433627355849E+01  0.386279784882E+01 -0.436284662791E+00
  0.433627355849E+01  0.386279784882E+01  0.436284662791E+00
  0.461992719359E+01  0.119527933413E+01 -0.102347656107E+01
  0.461992719359E+01  0.119527933413E+01  0.102347656107E+01
  0.462827939417E+01  0.305185299490E+01 -0.760508898570E+00
  0.462827939417E+01  0.305185299490E+01  0.760508898570E+00
  0.466872311975E+01  0.000000000000E+00 -0.111145353779E+01
  0.466872311975E+01  0.000000000000E+00  0.111145353779E+01
  0.474011846960E+01  0.234375742494E+01 -0.902048794181E+00
  0.474011846960E+01  0.234375742494E+01  0.902048794181E+00
  0.478678312943E+01  0.478676614119E+01 -0.851350047090E-21
  0.480687159859E+01  0.386279898322E+01 -0.604282518577E+00
  0.480687159859E+01  0.386279898322E+01  0.604282518577E+00
  0.493444751927E+01  0.478676772883E+01 -0.234913791519E+00
  0.493444751927E+01  0.478676772883E+01  0.234913791519E+00
  0.500836336858E+01  0.339638975791E+00 -0.111145376435E+01
  0.500836336858E+01  0.339638975791E+00  0.111145376435E+01
  0.515288767965E+01  0.172823896258E+01 -0.102347604475E+01
  0.515288767965E+01  0.172823896258E+01  0.102347604475E+01
  0.526024664267E+01  0.478676950112E+01 -0.436283779756E+00
  0.526024664267E+01  0.478676950112E+01  0.436283779756E+00
  0.540408912163E+01  0.735364289471E+00 -0.111145330904E+01
  0.540408912163E+01  0.735364289471E+00  0.111145330904E+01
  0.543922703165E+01  0.386279971700E+01 -0.760508029793E+00
  0.543922703165E+01  0.386279971700E+01  0.760508029793E+00
  0.544821511269E+01  0.305185355186E+01 -0.902048075774E+00
  0.544821511269E+01  0.305185355186E+01  0.902048075774E+00
  0.573084453819E+01  0.478677078010E+01 -0.604281589405E+00
  0.573084453819E+01  0.478677078010E+01  0.604281589405E+00
  0.576840728392E+01  0.234375792871E+01 -0.102347530863E+01
  0.576840728392E+01  0.234375792871E+01  0.102347530863E+01
  0.583338631872E+01  0.583336745020E+01  0.405247960184E-21
  0.586400574314E+01  0.119527989759E+01 -0.111145288712E+01
  0.586400574314E+01  0.119527989759E+01  0.111145288712E+01
  0.598105051178E+01  0.583336923462E+01 -0.234913090871E+00
  0.598105051178E+01  0.583336923462E+01  0.234913090871E+00
  0.611307647464E+01  0.000000000000E+00 -0.114006672374E+01
  0.611307647464E+01  0.000000000000E+00  0.114006672374E+01
  0.625916268514E+01  0.386280033901E+01 -0.902047251677E+00
  0.625916268514E+01  0.386280033901E+01  0.902047251677E+00
  0.630684940695E+01  0.583337123515E+01 -0.436282847598E+00
  0.630684940695E+01  0.583337123515E+01  0.436282847598E+00
  0.636319987860E+01  0.478677160653E+01 -0.760507120199E+00
  0.636319987860E+01  0.478677160653E+01  0.760507120199E+00
  0.639696619211E+01  0.172823956313E+01 -0.111145225217E+01
  0.639696619211E+01  0.172823956313E+01  0.111145225217E+01
  0.645271674047E+01  0.339639661210E+00 -0.114006685712E+01
  0.645271674047E+01  0.339639661210E+00  0.114006685712E+01
  0.647650435555E+01  0.305185410393E+01 -0.102347458652E+01
  0.647650435555E+01  0.305185410393E+01  0.102347458652E+01
  0.677744762352E+01  0.583337266991E+01 -0.604280572342E+00
  0.677744762352E+01  0.583337266991E+01  0.604280572342E+00
  0.684844294097E+01  0.735365004281E+00 -0.114006640392E+01
  0.684844294097E+01  0.735365004281E+00  0.114006640392E+01
  0.701105922061E+01  0.701103836697E+01  0.895766047527E-21
  0.701248623121E+01  0.234375857127E+01 -0.111145163580E+01
  0.701248623121E+01  0.234375857127E+01  0.111145163580E+01
  0.715872320950E+01  0.701104035556E+01 -0.234912358162E+00
  0.715872320950E+01  0.701104035556E+01  0.234912358162E+00
  0.718313593776E+01  0.478677229970E+01 -0.902046324878E+00
  0.718313593776E+01  0.478677229970E+01  0.902046324878E+00
  0.728745235124E+01  0.386280094467E+01 -0.102347387693E+01
  0.728745235124E+01  0.386280094467E+01  0.102347387693E+01
  0.730835952869E+01  0.119528064618E+01 -0.114006598452E+01
  0.730835952869E+01  0.119528064618E+01  0.114006598452E+01
  0.740980286412E+01  0.583337359616E+01 -0.760506118674E+00
  0.740980286412E+01  0.583337359616E+01  0.760506118674E+00
  0.748452186274E+01  0.701104259801E+01 -0.436281879461E+00
  0.748452186274E+01  0.701104259801E+01  0.436281879461E+00
  0.771254505256E+01  0.000000000000E+00 -0.108924206628E+01
  0.771254505256E+01  0.000000000000E+00  0.108924206628E+01
  0.772058373250E+01  0.305185479366E+01 -0.111145091404E+01
  0.772058373250E+01  0.305185479366E+01  0.111145091404E+01
  0.784131993909E+01  0.172824035030E+01 -0.114006535249E+01
  0.784131993909E+01  0.172824035030E+01  0.114006535249E+01
  0.795511991424E+01  0.701104419785E+01 -0.604279541528E+00
  0.795511991424E+01  0.701104419785E+01  0.604279541528E+00
  0.805218527188E+01  0.339640314685E+00 -0.108924208871E+01
  0.805218527188E+01  0.339640314685E+00  0.108924208871E+01
  0.821142554516E+01  0.478677296405E+01 -0.102347294427E+01
  0.821142554516E+01  0.478677296405E+01  0.102347294427E+01
[...]
POINT_DATA                1848
SCALARS phi float 1
LOOKUP_TABLE default
  0.000000000000E+00
  0.244249065418E-14
  0.444089209850E-15
  0.333066907388E-14
  0.777156117238E-15
 -0.199840144433E-14
 -0.888178419700E-15
 -0.188737914186E-14
  0.266453525910E-14
  0.222044604925E-15
  0.777156117238E-15
  0.266453525910E-14
 -0.111022302463E-15
 -0.111022302463E-15
 -0.999200722163E-15
  0.321964677141E-14
  0.255351295664E-14
  0.144328993201E-14
 -0.555111512313E-15
  0.233146835171E-14
 -0.444089209850E-14
 -0.199840144433E-14
  0.222044604925E-15
 -0.777156117238E-15
 -0.222044604925E-14
 -0.333066907388E-15
 -0.444089209850E-15
 -0.310862446895E-14
 -0.344169137634E-14
  0.155431223448E-14
 -0.777156117238E-15
  0.999200722163E-15
 -0.777156117238E-15
  0.432986979604E-14
 -0.355271367880E-14
 -0.133226762955E-14
  0.111022302463E-14
  0.188737914186E-14
  0.333066907388E-15
  0.666133814775E-15
  0.888178419700E-15
 -0.144328993201E-14
  0.377475828373E-14
 -0.888178419700E-15
 -0.133226762955E-14
  0.222044604925E-15
  0.999200722163E-15
  0.333066907388E-15
  0.111022302463E-14
 -0.111022302463E-15
 -0.166533453694E-14
 -0.199840144433E-14
  0.444089209850E-15
  0.188737914186E-14
 -0.444089209850E-15
 -0.999200722163E-15
  0.122124532709E-14
  0.222044604925E-15
  0.333066907388E-15
  0.310862446895E-14
  0.199840144433E-14
 -0.544009282066E-14
 -0.666133814775E-15
 -0.222044604925E-14
 -0.199840144433E-14
  0.133226762955E-14
 -0.111022302463E-15
 -0.666133814775E-15
  0.333066907388E-15
  0.155431223448E-14
 -0.333066907388E-14
  0.555111512313E-15
 -0.310862446895E-14
  0.277555756156E-14
  0.133226762955E-14
 -0.777156117238E-15
  0.999200722163E-15
  0.999200722163E-15
 -0.155431223448E-14
 -0.888178419700E-15
 -0.222044604925E-15
  0.222044604925E-15
 -0.233146835171E-14
 -0.610622663544E-15
  0.444089209850E-15
 -0.333066907388E-15
 -0.177635683940E-14
 -0.555111512313E-16
  0.210942374679E-14
  0.222044604925E-14
 -0.999200722163E-15
  0.166533453694E-14
 -0.210942374679E-14
  0.177635683940E-14
 -0.166533453694E-14
  0.155431223448E-14
  0.222044604925E-15
 -0.155431223448E-14
 -0.388578058619E-15
  0.222044604925E-14
  0.222044604925E-14
  0.177635683940E-14
 -0.122124532709E-14
 -0.133226762955E-14
  0.666133814775E-15
  0.111022302463E-15
  0.444089209850E-15
  0.555111512313E-15
  0.222044604925E-15
  0.000000000000E+00
  0.111022302463E-14
  0.321964677141E-14
 -0.144328993201E-14
  0.111022302463E-15
  0.199840144433E-14
  0.122124532709E-14
 -0.555111512313E-15
 -0.144328993201E-14
  0.555111512313E-15
 -0.499600361081E-15
 -0.111022302463E-15
  0.222044604925E-15
 -0.388578058619E-14
 -0.222044604925E-15
  0.333066907388E-15
 -0.166533453694E-15
  0.888178419700E-15
  0.127675647832E-14
 -0.122124532709E-14
  0.832667268469E-15
 -0.555111512313E-15
  0.666133814775E-15
 -0.333066907388E-14
 -0.116573417586E-14
  0.255351295664E-14
  0.555111512313E-15
  0.000000000000E+00
 -0.333066907388E-15
 -0.444089209850E-15
  0.666133814775E-15
  0.333066907388E-15
  0.166533453694E-14
 -0.188737914186E-14
  0.277555756156E-14
 -0.693889390391E-15
  0.122124532709E-14
 -0.111022302463E-15
 -0.111022302463E-15
 -0.777156117238E-15
  0.721644966006E-15
 -0.416333634234E-15
  0.111022302463E-15
 -0.277555756156E-15
 -0.210942374679E-14
 -0.183186799063E-14
 -0.155431223448E-14
  0.777156117238E-15
  0.166533453694E-14
 -0.416333634234E-15
  0.310862446895E-14
  0.000000000000E+00
 -0.188737914186E-14
 -0.388578058619E-15
 -0.111022302463E-15
 -0.111022302463E-14
 -0.165145674913E-14
 -0.666133814775E-15
 -0.527355936697E-15
 -0.666133814775E-15
 -0.177635683940E-14
  0.666133814775E-15
 -0.416333634234E-15
  0.111022302463E-15
 -0.444089209850E-15
  0.555111512313E-15
 -0.310862446895E-14
  0.832667268469E-15
  0.163757896132E-14
 -0.222044604925E-15
 -0.277555756156E-16
 -0.111022302463E-14
 -0.116573417586E-14
 -0.122124532709E-14
 -0.666133814775E-15
 -0.116573417586E-14
 -0.876035355368E-15
  0.555111512313E-15
  0.277555756156E-15
 -0.227595720048E-14
 -0.333066907388E-15
 -0.888178419700E-15
  0.241473507856E-14
 -0.116573417586E-14
  0.109634523682E-14
  0.333066907388E-15
 -0.310862446895E-14
  0.555111512313E-15
  0.333066907388E-15
  0.555111512313E-15
  0.244249065418E-14
  0.149880108324E-14
 -0.344169137634E-14
  0.159421087442E-14
  0.266453525910E-14
  0.374700270811E-15
 -0.333066907388E-15
 -0.188737914186E-14
  0.000000000000E+00
  0.555111512313E-16
  0.222044604925E-15
 -0.191513471748E-14
  0.172084568817E-14
 -0.152655665886E-15
 -0.444089209850E-15
 -0.666133814775E-15
  0.000000000000E+00
  0.111022302463E-15
  0.888178419700E-15
  0.217187379192E-14
 -0.388578058619E-15
 -0.298372437868E-15
  0.147104550763E-14
 -0.324740234703E-14
  0.915933995316E-15
 -0.166533453694E-15
  0.377475828373E-14
 -0.111022302463E-15
  0.222044604925E-14
 -0.457966997658E-15
 -0.630051566475E-14
 -0.166533453694E-14
 -0.888178419700E-15
  0.444089209850E-15
 -0.253963516883E-14
 -0.999200722163E-15
 -0.804911692853E-15
  0.277555756156E-16
  0.732747196253E-14
  0.111022302463E-15
  0.105471187339E-14
  0.180411241502E-15
  0.172084568817E-14
  0.777156117238E-15
  0.244249065418E-14
  0.832667268469E-15
 -0.437497260641E-14
  0.555111512313E-15
  0.133226762955E-14
 -0.499600361081E-15
 -0.527355936697E-15
  0.233146835171E-14
  0.333066907388E-15
 -0.416333634234E-15
 -0.338618022511E-14
 -0.444089209850E-15
 -0.277555756156E-16
 -0.915933995316E-15
  0.388578058619E-15
  0.196023752785E-14
 -0.119348975147E-14
 -0.643929354283E-14
 -0.222044604925E-15
  0.582867087928E-14
  0.249800180541E-15
 -0.190125692967E-14
 -0.227595720048E-14
  0.133226762955E-14
  0.388578058619E-14
  0.362557206479E-15
 -0.355271367880E-14
 -0.555111512313E-16
 -0.181799020282E-14
  0.141553435640E-14
 -0.277555756156E-14
  0.777156117238E-15
 -0.111022302463E-14
 -0.283106871279E-14
 -0.125724083921E-14
 -0.333066907388E-14
  0.582867087928E-15
  0.129063426613E-14
 -0.166533453694E-14
  0.666133814775E-15
 -0.111022302463E-15
 -0.166533453694E-15
 -0.818789480661E-15
 -0.444089209850E-15
 -0.555111512313E-15
 -0.333066907388E-15
 -0.915933995316E-15
  0.333066907388E-15
 -0.437150315946E-14
  0.277555756156E-15
  0.133226762955E-14
  0.197064586871E-14
  0.126287869051E-14
  0.255351295664E-14
 -0.266453525910E-14
  0.165839564303E-14
 -0.194289029309E-15
  0.177635683940E-14
  0.105471187339E-14
 -0.208166817117E-15
  0.111022302463E-15
  0.277555756156E-15
  0.174860126378E-14
 -0.416333634234E-15
  0.888178419700E-15
 -0.277555756156E-16
 -0.499600361081E-15
  0.266453525910E-14
 -0.575928194024E-15
 -0.210942374679E-14
 -0.333066907388E-14
  0.202615701994E-14
 -0.716093850883E-14
  0.333066907388E-15
 -0.222044604925E-15
 -0.153349555276E-14
 -0.144328993201E-14
 -0.441313652288E-14
 -0.160982338571E-14
  0.391353616180E-14
  0.166533453694E-14
 -0.111022302463E-15
  0.177635683940E-14
  0.344169137634E-14
 -0.888178419700E-15
  0.721644966006E-15
 -0.144328993201E-14
 -0.180411241502E-14
  0.205391259556E-14
 -0.102695629778E-14
  0.499600361081E-15
  0.624500451352E-15
 -0.321964677141E-14
  0.488498130835E-14
 -0.232452945781E-15
  0.222044604925E-15
 -0.888178419700E-15
  0.177635683940E-14
 -0.446864767412E-14
 -0.155431223448E-14
 -0.242861286637E-14
 -0.688338275268E-14
  0.111022302463E-15
  0.499600361081E-15
  0.188737914186E-14
  0.384414722276E-14
 -0.227595720048E-14
  0.419109191796E-14
 -0.438538094727E-14
  0.868749516769E-14
  0.138777878078E-14
 -0.721644966006E-15
 -0.999200722163E-15
  0.144328993201E-14
  0.471844785466E-15
 -0.777156117238E-15
 -0.943689570931E-15
 -0.499600361081E-15
  0.249800180541E-14
  0.159594559790E-14
 -0.721644966006E-15
  0.000000000000E+00
  0.160982338571E-14
 -0.277555756156E-15
 -0.205391259556E-14
 -0.777156117238E-15
 -0.166533453694E-14
 -0.122124532709E-14
 -0.230371277610E-14
  0.544009282066E-14
 -0.371924713249E-14
  0.649480469406E-14
  0.133226762955E-14
  0.122124532709E-14
 -0.233146835171E-14
  0.288657986403E-14
  0.721644966006E-15
 -0.394129173742E-14
  0.321964677141E-14
 -0.104083408559E-15
  0.252575738102E-14
  0.435762537165E-14
 -0.432986979604E-14
 -0.349720252757E-14
  0.000000000000E+00
  0.355271367880E-14
 -0.222044604925E-15
 -0.388578058619E-14
  0.537764277553E-15
  0.166533453694E-15
  0.222044604925E-15
 -0.610622663544E-15
 -0.111022302463E-15
  0.144328993201E-14
 -0.888178419700E-15
  0.888178419700E-15
  0.127675647832E-14
  0.499600361081E-15
 -0.333066907388E-14
 -0.888178419700E-15
 -0.224820162487E-14
 -0.149880108324E-14
  0.238697950294E-14
  0.255351295664E-14
 -0.388578058619E-15
  0.000000000000E+00
 -0.255351295664E-14
 -0.388578058619E-14
 -0.421884749358E-14
 -0.344169137634E-14
  0.294209101526E-14
  0.272004641033E-14
 -0.233146835171E-14
  0.499600361081E-15
  0.183186799063E-14
  0.555111512313E-14
 -0.255351295664E-14
 -0.222044604925E-15
  0.149880108324E-14
 -0.666133814775E-15
 -0.355271367880E-14
 -0.216493489802E-14
 -0.532907051820E-14
 -0.344169137634E-14
 -0.388578058619E-15
 -0.943689570931E-15
  0.111022302463E-15
  0.249800180541E-14
  0.777156117238E-15
 -0.149880108324E-14
  0.482947015712E-14
  0.427435864481E-14
  0.149880108324E-14
  0.111022302463E-15
  0.166533453694E-14
 -0.122124532709E-14
 -0.832667268469E-15
  0.666133814775E-15
 -0.663358257214E-14
 -0.160982338571E-14
  0.648613107668E-14
 -0.222044604925E-15
 -0.111022302463E-15
 -0.344169137634E-14
  0.122124532709E-14
 -0.194289029309E-14
  0.172084568817E-14
 -0.274086309204E-14
 -0.227595720048E-14
 -0.255351295664E-14
 -0.111022302463E-15
  0.298372437868E-14
 -0.777156117238E-15
  0.127675647832E-14
  0.183186799063E-14
  0.144328993201E-14
  0.294209101526E-14
 -0.222044604925E-14
  0.133226762955E-14
 -0.122124532709E-14
  0.260902410787E-14
  0.000000000000E+00
  0.233146835171E-14
 -0.444089209850E-15
  0.210942374679E-14
 -0.610622663544E-15
 -0.832667268469E-15
 -0.277555756156E-16
  0.321964677141E-14
 -0.455191440096E-14
  0.111022302463E-14
  0.127675647832E-14
 -0.183186799063E-14
  0.394129173742E-14
 -0.333066907388E-15
 -0.144328993201E-14
  0.222044604925E-14
  0.316413562018E-14
  0.999200722163E-15
 -0.272004641033E-14
  0.999200722163E-15
 -0.349720252757E-14
 -0.371924713249E-14
  0.111022302463E-15
 -0.188737914186E-14
  0.222044604925E-15
  0.943689570931E-14
 -0.177635683940E-14
 -0.233146835171E-14
 -0.999200722163E-15
  0.133226762955E-14
  0.299760216649E-14
 -0.133226762955E-14
 -0.160982338571E-14
  0.355271367880E-14
  0.333066907388E-15
 -0.378169717763E-15
  0.111022302463E-14
  0.527355936697E-15
 -0.591193760613E-14
  0.693889390391E-16
  0.666133814775E-15
  0.133226762955E-14
  0.227595720048E-14
 -0.610622663544E-15
  0.272004641033E-14
  0.188737914186E-14
  0.333066907388E-15
 -0.349720252757E-14
  0.210942374679E-14
 -0.888178419700E-15
 -0.148492329544E-14
  0.999200722163E-15
  0.272004641033E-14
  0.333066907388E-15
 -0.105471187339E-14
  0.888178419700E-15
 -0.222044604925E-14
 -0.222044604925E-14
  0.160982338571E-14
  0.233146835171E-14
  0.444089209850E-15
  0.388578058619E-15
  0.177635683940E-14
  0.321964677141E-14
 -0.277555756156E-15
 -0.205391259556E-14
 -0.513478148889E-15
 -0.488498130835E-14
 -0.133226762955E-14
  0.255351295664E-14
  0.244249065418E-14
 -0.238697950294E-14
 -0.721644966006E-15
 -0.216493489802E-14
 -0.888178419700E-15
  0.266453525910E-14
 -0.444089209850E-15
  0.155431223448E-14
 -0.222044604925E-15
  0.466293670343E-14
 -0.610622663544E-15
  0.233146835171E-14
 -0.721644966006E-15
  0.555111512313E-15
  0.233146835171E-14
  0.177635683940E-14
 -0.194289029309E-15
  0.527355936697E-14
 -0.158206781009E-14
 -0.360822483003E-14
  0.610622663544E-15
 -0.299760216649E-14
  0.216840434497E-15
  0.216493489802E-14
 -0.666133814775E-15
 -0.210942374679E-14
  0.111022302463E-15
 -0.249800180541E-14
 -0.122124532709E-14
 -0.185962356625E-14
  0.111022302463E-15
  0.222044604925E-15
 -0.277555756156E-14
  0.244249065418E-14
  0.455191440096E-14
 -0.355271367880E-14
  0.126287869051E-14
  0.122124532709E-14
  0.721644966006E-15
  0.388578058619E-15
  0.116573417586E-14
 -0.144328993201E-14
 -0.588418203051E-14
  0.166533453694E-15
  0.144328993201E-14
 -0.555111512313E-15
 -0.155431223448E-14
 -0.888178419700E-15
  0.155431223448E-14
  0.427435864481E-14
 -0.127675647832E-14
 -0.466293670343E-14
 -0.499600361081E-15
 -0.957567358739E-15
  0.277555756156E-15
 -0.421884749358E-14
 -0.555111512313E-15
 -0.610622663544E-15
 -0.344169137634E-14
 -0.341393580072E-14
 -0.166533453694E-14
  0.122124532709E-14
  0.388578058619E-14
 -0.274780198595E-14
  0.177635683940E-14
 -0.155431223448E-14
 -0.172084568817E-14
  0.166533453694E-14
 -0.666133814775E-15
  0.732053306862E-15
 -0.116573417586E-14
 -0.482947015712E-14
  0.566213742559E-14
  0.222044604925E-15
 -0.277555756156E-15
  0.194289029309E-15
  0.263677968348E-14
  0.116573417586E-14
  0.249800180541E-14
  0.360822483003E-14
  0.721644966006E-15
  0.721644966006E-15
 -0.388578058619E-14
 -0.111022302463E-15
 -0.832667268469E-15
 -0.249800180541E-14
  0.210942374679E-14
  0.208166817117E-14
  0.283106871279E-14
 -0.172084568817E-14
  0.666133814775E-15
  0.183186799063E-14
  0.222044604925E-15
 -0.122124532709E-14
  0.333066907388E-15
  0.116573417586E-14
 -0.666133814775E-15
  0.111022302463E-14
  0.444089209850E-15
 -0.272004641033E-14
 -0.538458166943E-14
  0.521804821574E-14
 -0.222044604925E-15
 -0.377475828373E-14
  0.217881268583E-14
 -0.499600361081E-15
 -0.277555756156E-15
  0.111022302463E-14
  0.166533453694E-14
  0.777156117238E-15
  0.832667268469E-15
  0.360822483003E-14
 -0.111022302463E-15
  0.166533453694E-15
 -0.104083408559E-14
  0.194289029309E-14
  0.133226762955E-14
 -0.111022302463E-15
  0.122124532709E-14
 -0.610622663544E-15
  0.277555756156E-15
  0.455191440096E-14
  0.405231403988E-14
  0.249800180541E-15
  0.310862446895E-14
  0.804911692853E-15
  0.216493489802E-14
 -0.649480469406E-14
  0.166533453694E-14
  0.777156117238E-15
 -0.666133814775E-15
 -0.333066907388E-15
 -0.577315972805E-14
  0.216493489802E-14
  0.199840144433E-14
 -0.194289029309E-15
  0.222044604925E-15
  0.388578058619E-15
 -0.416333634234E-14
 -0.105471187339E-14
 -0.172084568817E-14
  0.133226762955E-14
  0.216493489802E-14
 -0.122124532709E-14
 -0.333066907388E-15
  0.577315972805E-14
 -0.444089209850E-15
  0.499600361081E-15
 -0.638378239159E-15
  0.449640324973E-14
 -0.277555756156E-14
  0.194982918700E-14
  0.222044604925E-14
  0.105471187339E-14
  0.155431223448E-14
 -0.555111512313E-15
  0.902056207508E-16
  0.111022302463E-15
 -0.155431223448E-14
 -0.555111512313E-16
 -0.266453525910E-14
  0.288657986403E-14
 -0.155431223448E-14
 -0.105471187339E-14
  0.444089209850E-15
  0.832667268469E-15
  0.621724893790E-14
 -0.116573417586E-14
  0.457966997658E-14
 -0.227595720048E-14
 -0.124900090270E-14
 -0.777156117238E-15
  0.910382880193E-14
  0.388578058619E-15
 -0.111022302463E-14
 -0.566213742559E-14
 -0.116573417586E-14
 -0.105471187339E-14
  0.216493489802E-14
  0.194289029309E-15
  0.496824803520E-14
 -0.777156117238E-15
  0.155431223448E-14
 -0.377475828373E-14
 -0.166533453694E-14
 -0.333066907388E-15
 -0.310862446895E-14
 -0.111022302463E-14
 -0.316413562018E-14
 -0.444089209850E-14
 -0.113797860024E-14
 -0.455191440096E-14
  0.666133814775E-15
  0.555111512313E-16
 -0.144328993201E-14
  0.231759056391E-14
 -0.555111512313E-15
 -0.205391259556E-14
 -0.149880108324E-14
 -0.888178419700E-15
 -0.216493489802E-14
  0.399680288865E-14
  0.333066907388E-15
  0.228983498829E-14
  0.177635683940E-14
 -0.333066907388E-14
 -0.116573417586E-14
 -0.127675647832E-14
  0.388578058619E-15
 -0.888178419700E-15
  0.532907051820E-14
 -0.874300631892E-15
 -0.499600361081E-15
 -0.166533453694E-14
 -0.185962356625E-14
  0.888178419700E-15
 -0.188737914186E-14
  0.333066907388E-15
 -0.444089209850E-14
  0.133226762955E-14
  0.555111512313E-16
  0.643929354283E-14
 -0.177635683940E-14
  0.638378239159E-15
 -0.320576898361E-14
  0.943689570931E-15
  0.355271367880E-14
  0.555111512313E-15
 -0.310862446895E-14
 -0.888178419700E-15
  0.177635683940E-14
  0.210942374679E-14
  0.144328993201E-14
 -0.260902410787E-14
  0.194289029309E-14
  0.210942374679E-14
  0.255351295664E-14
  0.222044604925E-15
  0.166533453694E-15
 -0.499600361081E-15
  0.263677968348E-14
 -0.333066907388E-14
  0.777156117238E-15
  0.215105711021E-15
 -0.244249065418E-14
 -0.405231403988E-14
 -0.127675647832E-14
  0.555111512313E-15
  0.777156117238E-15
  0.577315972805E-14
 -0.355271367880E-14
  0.364985819346E-14
 -0.638378239159E-15
 -0.238697950294E-14
 -0.499600361081E-14
  0.122124532709E-14
  0.299760216649E-14
  0.172084568817E-14
  0.133226762955E-14
 -0.444089209850E-15
 -0.222044604925E-15
  0.288657986403E-14
  0.288657986403E-14
 -0.216493489802E-14
 -0.888178419700E-15
 -0.621724893790E-14
 -0.763278329430E-15
 -0.333066907388E-14
  0.666133814775E-15
  0.777156117238E-15
 -0.555111512313E-15
 -0.888178419700E-15
 -0.166533453694E-14
 -0.222044604925E-14
 -0.222044604925E-14
  0.333066907388E-14
 -0.210942374679E-14
  0.163757896132E-14
  0.222044604925E-15
  0.177635683940E-14
  0.111022302463E-15
 -0.255351295664E-14
 -0.199840144433E-14
  0.000000000000E+00
  0.183186799063E-14
  0.255351295664E-14
  0.666133814775E-15
 -0.387884169228E-14
 -0.605071548421E-14
 -0.255351295664E-14
  0.743849426499E-14
  0.244249065418E-14
  0.888178419700E-15
  0.666133814775E-15
 -0.288657986403E-14
  0.943689570931E-15
 -0.116573417586E-14
  0.144328993201E-14
  0.130451205393E-14
  0.355271367880E-14
  0.105471187339E-14
  0.183186799063E-14
 -0.316413562018E-14
  0.111022302463E-15
  0.288657986403E-14
  0.777156117238E-15
  0.555111512313E-15
 -0.505151476204E-14
  0.133226762955E-14
  0.185962356625E-14
 -0.136002320517E-14
 -0.288657986403E-14
 -0.460742555219E-14
  0.210942374679E-14
 -0.155431223448E-14
 -0.299760216649E-14
  0.555111512313E-15
  0.222044604925E-15
  0.144328993201E-14
 -0.138777878078E-14
 -0.127675647832E-14
  0.355271367880E-14
 -0.340005801291E-15
  0.888178419700E-15
 -0.388578058619E-15
  0.499600361081E-15
 -0.799360577730E-14
  0.133920652345E-14
  0.410782519111E-14
 -0.355271367880E-14
 -0.266453525910E-14
 -0.277555756156E-15
 -0.138777878078E-15
  0.155431223448E-14
  0.555111512313E-16
 -0.238697950294E-14
 -0.199840144433E-14
 -0.116573417586E-14
 -0.555111512313E-15
 -0.666133814775E-15
 -0.402455846427E-15
 -0.272004641033E-14
  0.000000000000E+00
 -0.333066907388E-15
 -0.999200722163E-15
  0.888178419700E-15
 -0.943689570931E-15
 -0.999200722163E-15
  0.555111512313E-15
 -0.197064586871E-14
 -0.188737914186E-14
 -0.666133814775E-15
  0.338618022511E-14
 -0.266453525910E-14
 -0.188737914186E-14
  0.777156117238E-15
  0.277555756156E-14
 -0.333066907388E-14
 -0.138777878078E-14
 -0.288657986403E-14
  0.576275138719E-14
  0.133226762955E-14
 -0.333066907388E-15
 -0.327515792264E-14
 -0.477395900589E-14
 -0.355271367880E-14
 -0.166533453694E-15
  0.188737914186E-14
 -0.111022302463E-14
 -0.555111512313E-15
 -0.183186799063E-14
 -0.122124532709E-14
 -0.333066907388E-15
 -0.233146835171E-14
  0.999200722163E-15
 -0.255351295664E-14
  0.510702591328E-14
  0.122124532709E-14
  0.255351295664E-14
  0.233146835171E-14
 -0.416333634234E-14
 -0.166533453694E-14
 -0.216493489802E-14
 -0.832667268469E-16
  0.183186799063E-14
 -0.477395900589E-14
  0.172084568817E-14
 -0.555111512313E-16
 -0.444089209850E-15
  0.166533453694E-15
  0.499600361081E-15
 -0.166533453694E-15
 -0.222044604925E-15
 -0.555111512313E-15
  0.166533453694E-15
 -0.222044604925E-14
 -0.371924713249E-14
 -0.555111512313E-16
  0.202268757299E-14
  0.260902410787E-14
  0.444089209850E-15
 -0.188737914186E-14
  0.399680288865E-14
  0.555111512313E-16
  0.111022302463E-14
 -0.111022302463E-15
 -0.188737914186E-14
 -0.144328993201E-14
  0.555111512313E-15
 -0.299760216649E-14
  0.532907051820E-14
 -0.294209101526E-14
 -0.177635683940E-14
 -0.166533453694E-14