# vtk DataFile Version 3.0
MachLine results file. Generated by MachLine, USU AeroLab (c) 2022.
ASCII
DATASET POLYDATA
POINTS                 482 float
  0.000000000000E+00  0.000000000000E+00  0.000000000000E+00
  0.473465979099E+00  0.000000000000E+00 -0.436293870211E+00
  0.473465979099E+00  0.000000000000E+00  0.436293870211E+00
  0.757896304131E+00  0.757896304131E+00  0.000000000000E+00
  0.123136246204E+01  0.757896304131E+00 -0.436293989420E+00
  0.123136246204E+01  0.757896304131E+00  0.436293989420E+00
  0.157641971111E+01  0.000000000000E+00 -0.760520398617E+00
  0.157641971111E+01  0.000000000000E+00  0.760520398617E+00
  0.178897356987E+01  0.178897356987E+01  0.000000000000E+00
  0.226243972778E+01  0.178897356987E+01 -0.436294138432E+00
  0.226243972778E+01  0.178897356987E+01  0.436294138432E+00
  0.233431649208E+01  0.757896304131E+00 -0.760520577431E+00
  0.233431649208E+01  0.757896304131E+00  0.760520577431E+00
  0.317279767990E+01  0.317279767990E+01  0.000000000000E+00
  0.336539411545E+01  0.178897356987E+01 -0.760520815849E+00
  0.336539411545E+01  0.178897356987E+01  0.760520815849E+00
  0.342464399338E+01  0.000000000000E+00 -0.102348911762E+01
  0.342464399338E+01  0.000000000000E+00  0.102348911762E+01
  0.364626431465E+01  0.317279767990E+01 -0.436294317245E+00
  0.364626431465E+01  0.317279767990E+01  0.436294317245E+00
  0.418254137039E+01  0.757896304131E+00 -0.102348935604E+01
  0.418254137039E+01  0.757896304131E+00  0.102348935604E+01
  0.474921894073E+01  0.317279767990E+01 -0.760521173477E+00
  0.474921894073E+01  0.317279767990E+01  0.760521173477E+00
  0.499661636353E+01  0.499661636353E+01  0.000000000000E+00
  0.521361970901E+01  0.178897356987E+01 -0.102348971367E+01
  0.521361970901E+01  0.178897356987E+01  0.102348971367E+01
  0.547008323669E+01  0.499661636353E+01 -0.436294585466E+00
  0.547008323669E+01  0.499661636353E+01  0.436294585466E+00
  0.611307668686E+01  0.000000000000E+00 -0.114008128643E+01
  0.611307668686E+01  0.000000000000E+00  0.114008128643E+01
  0.657303857803E+01  0.499661636353E+01 -0.760521650314E+00
  0.657303857803E+01  0.499661636353E+01  0.760521650314E+00
  0.659744548798E+01  0.317279767990E+01 -0.102349019051E+01
  0.659744548798E+01  0.317279767990E+01  0.102349019051E+01
  0.687097454071E+01  0.757896304131E+00 -0.114008152485E+01
  0.687097454071E+01  0.757896304131E+00  0.114008152485E+01
  0.734362459183E+01  0.734362459183E+01  0.000000000000E+00
  0.781709194183E+01  0.734362459183E+01 -0.436294913292E+00
  0.781709194183E+01  0.734362459183E+01  0.436294913292E+00
  0.790205335617E+01  0.178897356987E+01 -0.114008200169E+01
  0.790205335617E+01  0.178897356987E+01  0.114008200169E+01
  0.842126560211E+01  0.499661636353E+01 -0.102349078655E+01
  0.842126560211E+01  0.499661636353E+01  0.102349078655E+01
  0.892004776001E+01  0.734362459183E+01 -0.760522186756E+00
  0.892004776001E+01  0.734362459183E+01  0.760522186756E+00
  0.928588008881E+01  0.317279767990E+01 -0.114008247852E+01
  0.928588008881E+01  0.317279767990E+01  0.114008247852E+01
  0.939508819580E+01  0.000000000000E+00 -0.980745851994E+00
  0.939508819580E+01  0.000000000000E+00  0.980745851994E+00
  0.101529865265E+02  0.757896304131E+00 -0.980746090412E+00
  0.101529865265E+02  0.757896304131E+00  0.980746090412E+00
  0.102728376389E+02  0.102728376389E+02  0.000000000000E+00
  0.107463054657E+02  0.102728376389E+02 -0.436295330524E+00
  0.107463054657E+02  0.102728376389E+02  0.436295330524E+00
  0.107682771683E+02  0.734362459183E+01 -0.102349150181E+01
  0.107682771683E+02  0.734362459183E+01  0.102349150181E+01
  0.111097030640E+02  0.499661636353E+01 -0.114008307457E+01
  0.111097030640E+02  0.499661636353E+01  0.114008307457E+01
  0.111840667725E+02  0.178897356987E+01 -0.980746388435E+00
  0.111840667725E+02  0.178897356987E+01  0.980746388435E+00
  0.118492631912E+02  0.102728376389E+02 -0.760522902012E+00
  0.118492631912E+02  0.102728376389E+02  0.760522902012E+00
  0.125678949356E+02  0.317279767990E+01 -0.980746865273E+00
  0.125678949356E+02  0.317279767990E+01  0.980746865273E+00
  0.126670312881E+02  0.000000000000E+00 -0.678052663803E+00
  0.126670312881E+02  0.000000000000E+00  0.678052663803E+00
  0.134249305725E+02  0.757896304131E+00 -0.678052842617E+00
  0.134249305725E+02  0.757896304131E+00  0.678052842617E+00
  0.134567155838E+02  0.734362459183E+01 -0.114008402824E+01
  0.134567155838E+02  0.734362459183E+01  0.114008402824E+01
  0.136974935532E+02  0.102728376389E+02 -0.102349245548E+01
  0.136974935532E+02  0.102728376389E+02  0.102349245548E+01
  0.137921218872E+02  0.137921218872E+02  0.000000000000E+00
  0.142655897141E+02  0.137921218872E+02 -0.436295837164E+00
  0.142655897141E+02  0.137921218872E+02  0.436295837164E+00
  0.143917188644E+02  0.499661636353E+01 -0.980747401714E+00
  0.143917188644E+02  0.499661636353E+01  0.980747401714E+00
  0.144560117722E+02  0.178897356987E+01 -0.678053081036E+00
  0.144560117722E+02  0.178897356987E+01  0.678053081036E+00
  0.153437566757E+02  0.000000000000E+00 -0.393031150103E+00
  0.153437566757E+02  0.000000000000E+00  0.393031150103E+00
  0.153685483932E+02  0.137921218872E+02 -0.760523796082E+00
  0.153685483932E+02  0.137921218872E+02  0.760523796082E+00
  0.158398418427E+02  0.317279767990E+01 -0.678053379059E+00
  0.158398418427E+02  0.317279767990E+01  0.678053379059E+00
  0.161016559601E+02  0.757896304131E+00 -0.393031239510E+00
  0.161016559601E+02  0.757896304131E+00  0.393031239510E+00
  0.163859348297E+02  0.102728376389E+02 -0.114008510113E+01
  0.163859348297E+02  0.102728376389E+02  0.114008510113E+01
  0.167387351990E+02  0.734362459183E+01 -0.980748176575E+00
  0.167387351990E+02  0.734362459183E+01  0.980748176575E+00
  0.171327381134E+02  0.178897356987E+01 -0.393031388521E+00
  0.171327381134E+02  0.178897356987E+01  0.393031388521E+00
  0.172004318237E+02  0.000000000000E+00 -0.192506864667E+00
  0.172004318237E+02  0.000000000000E+00  0.192506864667E+00
  0.172167816162E+02  0.137921218872E+02 -0.102349364758E+01
  0.172167816162E+02  0.137921218872E+02  0.102349364758E+01
  0.176636676788E+02  0.499661636353E+01 -0.678053736687E+00
  0.176636676788E+02  0.499661636353E+01  0.678053736687E+00
  0.178320064545E+02  0.178320064545E+02  0.000000000000E+00
  0.179583320618E+02  0.757896304131E+00 -0.192506924272E+00
  0.179583320618E+02  0.757896304131E+00  0.192506924272E+00
  0.183054752350E+02  0.178320064545E+02 -0.436296403408E+00
  0.183054752350E+02  0.178320064545E+02  0.436296403408E+00
  0.183450412750E+02  0.000000000000E+00 -0.698660761118E-01
  0.183450412750E+02  0.000000000000E+00  0.698660761118E-01
  0.185165691376E+02  0.317279767990E+01 -0.393031567335E+00
  0.185165691376E+02  0.317279767990E+01  0.393031567335E+00
  0.189894161224E+02  0.178897356987E+01 -0.192506983876E+00
  0.189894161224E+02  0.178897356987E+01  0.192506983876E+00
  0.190000000000E+02  0.000000000000E+00  0.000000000000E+00
  0.191029415131E+02  0.757896304131E+00 -0.698660910130E-01
  0.191029415131E+02  0.757896304131E+00  0.698660910130E-01
  0.194084339142E+02  0.178320064545E+02 -0.760524809361E+00
  0.194084339142E+02  0.178320064545E+02  0.760524809361E+00
  0.196679573059E+02  0.102728376389E+02 -0.980749070644E+00
  0.196679573059E+02  0.102728376389E+02  0.980749070644E+00
  0.197579002380E+02  0.757896304131E+00  0.000000000000E+00
  0.199052257538E+02  0.137921218872E+02 -0.114008641243E+01
  0.199052257538E+02  0.137921218872E+02  0.114008641243E+01
  0.200106849670E+02  0.734362459183E+01 -0.678054273129E+00
  0.200106849670E+02  0.734362459183E+01  0.678054273129E+00
  0.201340255737E+02  0.178897356987E+01 -0.698661133647E-01
  0.201340255737E+02  0.178897356987E+01  0.698661133647E-01
  0.203403968811E+02  0.499661636353E+01 -0.393031775951E+00
  0.203403968811E+02  0.499661636353E+01  0.393031775951E+00
  0.203732471466E+02  0.317279767990E+01 -0.192507073283E+00
  0.203732471466E+02  0.317279767990E+01  0.192507073283E+00
  0.207889842987E+02  0.178897356987E+01  0.000000000000E+00
  0.212566699982E+02  0.178320064545E+02 -0.102349495888E+01
  0.212566699982E+02  0.178320064545E+02  0.102349495888E+01
  0.215178565979E+02  0.317279767990E+01 -0.698661431670E-01
  0.215178565979E+02  0.317279767990E+01  0.698661431670E-01
  0.221728172302E+02  0.317279767990E+01  0.000000000000E+00
  0.221970767975E+02  0.499661636353E+01 -0.192507177591E+00
  0.221970767975E+02  0.499661636353E+01  0.192507177591E+00
  0.222339305878E+02  0.222339305878E+02  0.000000000000E+00
  0.226874179840E+02  0.734362459183E+01 -0.393032073975E+00
  0.226874179840E+02  0.734362459183E+01  0.393032073975E+00
  0.227074012756E+02  0.222339305878E+02 -0.436297029257E+00
  0.227074012756E+02  0.222339305878E+02  0.436297029257E+00
  0.229399108887E+02  0.102728376389E+02 -0.678054928780E+00
  0.229399108887E+02  0.102728376389E+02  0.678054928780E+00
  0.231872520447E+02  0.137921218872E+02 -0.980750203133E+00
  0.231872520447E+02  0.137921218872E+02  0.980750203133E+00
  0.233416862488E+02  0.499661636353E+01 -0.698661878705E-01
  0.233416862488E+02  0.499661636353E+01  0.698661878705E-01
  0.238103618622E+02  0.222339305878E+02 -0.760525882244E+00
  0.238103618622E+02  0.222339305878E+02  0.760525882244E+00
  0.239451179504E+02  0.178320064545E+02 -0.114008784294E+01
  0.239451179504E+02  0.178320064545E+02  0.114008784294E+01
  0.239966468811E+02  0.499661636353E+01  0.000000000000E+00
  0.245440979004E+02  0.734362459183E+01 -0.192507326603E+00
  0.245440979004E+02  0.734362459183E+01  0.192507326603E+00
  0.256166458130E+02  0.102728376389E+02 -0.393032461405E+00
  0.256166458130E+02  0.102728376389E+02  0.393032461405E+00
  0.256585998535E+02  0.222339305878E+02 -0.102349650860E+01
  0.256585998535E+02  0.222339305878E+02  0.102349650860E+01
  0.256887092590E+02  0.734362459183E+01 -0.698662400246E-01
  0.256887092590E+02  0.734362459183E+01  0.698662400246E-01
[...]
CELL_DATA                 904
SCALARS C_p_inc float 1
LOOKUP_TABLE default
  0.179464995635E+00
  0.162534101209E+00
  0.132738624224E+00
  0.119909156188E+00
  0.107627564375E+00
  0.101643874682E+00
  0.889400649768E-01
  0.846025333441E-01
  0.752865852535E-01
  0.729841498112E-01
  0.941902153608E-01
  0.862692410182E-01
  0.199458373352E+00
  0.167677434473E+00
  0.352268332600E+00
  0.312519811570E+00
  0.552818514655E+00
  0.523730199480E+00
  0.715694515940E+00
  0.673873436735E+00
 -0.526125839516E+00
  0.120840955990E-01
 -0.775854398672E+00
 -0.487964888363E+00
 -0.652386620819E+00
 -0.571124083617E+00
 -0.610196404434E+00
 -0.588493886129E+00
 -0.527436772581E+00
 -0.551403612142E+00
 -0.417718573883E+00
 -0.386702910058E+00
 -0.279748917522E+00
 -0.246781288126E+00
 -0.165262215514E+00
 -0.125510697209E+00
 -0.671779207911E-01
 -0.691141512549E-02
  0.570610616034E-01
  0.132068128320E+00
  0.171166946526E+00
  0.178311545499E+00
  0.132649666733E+00
  0.132572170860E+00
  0.113103471873E+00
  0.107609929318E+00
  0.923197691579E-01
  0.889630469582E-01
  0.751630809628E-01
  0.752353514639E-01
  0.864479208646E-01
  0.779280285947E-01
  0.168314526822E+00
  0.148690145528E+00
  0.305466390749E+00
  0.291738197579E+00
  0.481455363944E+00
  0.484267397643E+00
  0.558053620264E+00
  0.469113848214E+00
 -0.839464923761E+00
 -0.523176379409E+00
 -0.970720781874E+00
 -0.744375552883E+00
 -0.755408734223E+00
 -0.653721154067E+00
 -0.649832187688E+00
 -0.617726073529E+00
 -0.519238293070E+00
 -0.535389522111E+00
 -0.386240242256E+00
 -0.359099134776E+00
 -0.246170413798E+00
 -0.210180039780E+00
 -0.125311300175E+00
 -0.809239075516E-01
 -0.754526366642E-02
  0.293046938864E-01
  0.127343135651E+00
  0.139900083762E+00
  0.167583925614E+00
  0.170664745262E+00
  0.128585932647E+00
  0.132414860423E+00
  0.113294261989E+00
  0.113012151241E+00
  0.950102307281E-01
  0.923269652311E-01
  0.756205585031E-01
  0.751756235300E-01
  0.783915490988E-01
  0.736742176075E-01
  0.148411218218E+00
  0.139837468024E+00
  0.284388110607E+00
  0.281875674848E+00
  0.466136643398E+00
  0.471616403630E+00
  0.460551167019E+00
  0.369289532755E+00
 -0.111362182031E+01
 -0.837358961791E+00
 -0.114607533553E+01
 -0.945864693684E+00
 -0.848446671213E+00
 -0.749805625316E+00
 -0.686895817168E+00
 -0.656271424729E+00
 -0.514791797376E+00
 -0.530274080809E+00
 -0.359205079815E+00
 -0.331592012053E+00
 -0.209569957282E+00
 -0.173024833343E+00
 -0.808624725684E-01
 -0.485420951957E-01
  0.282811239070E-01
  0.445907066367E-01
  0.137525751500E+00
  0.141917514692E+00
  0.165949966707E+00
  0.167116154003E+00
  0.125636693072E+00
  0.128357747918E+00
  0.110775449655E+00
  0.113154188099E+00
  0.952813416217E-01
  0.949756569575E-01
  0.768316005153E-01
  0.756703534061E-01
  0.739015442900E-01
  0.734899273396E-01
  0.139223497367E+00
  0.138825090384E+00
  0.277507932386E+00
  0.282528987790E+00
  0.464363732515E+00
  0.470539716332E+00
  0.376696337447E+00
  0.286713498155E+00
 -0.135933268698E+01
 -0.110932102703E+01
 -0.130122858891E+01
 -0.112960212094E+01
 -0.929090182180E+00
 -0.845802875611E+00
 -0.719462817050E+00
 -0.695080713819E+00
 -0.510308716324E+00
 -0.527163547280E+00
 -0.332323478237E+00
 -0.305734862933E+00
 -0.172612921720E+00
 -0.144386807848E+00
 -0.486178210024E-01
 -0.306162439793E-01
  0.440957708894E-01
  0.526136355000E-01
  0.141137454258E+00
  0.144045839285E+00
  0.164977590704E+00
  0.165455843012E+00
  0.123799832668E+00
  0.125379474167E+00
  0.108512061053E+00
  0.110601769776E+00
  0.939671315083E-01
  0.951891072497E-01
  0.776864911695E-01
  0.768538482789E-01
  0.735533332553E-01
  0.761929297667E-01
  0.138397298574E+00
  0.143587370595E+00
  0.280852028030E+00
  0.290296022558E+00
  0.469923373102E+00
  0.475932166843E+00
  0.300800661678E+00
  0.214736774030E+00
 -0.157435263955E+01
 -0.135539869653E+01
 -0.143202741459E+01
 -0.129305373981E+01
 -0.994325929041E+00
 -0.930727948462E+00
 -0.744424321144E+00
 -0.728997700959E+00
 -0.505867730396E+00
 -0.522256423007E+00
 -0.306806557190E+00
 -0.286579113802E+00
 -0.144330686906E+00
 -0.127712752982E+00
 -0.306310705366E-01
 -0.209981237912E-01
  0.526277099162E-01
  0.577597657761E-01
  0.144215845351E+00
  0.146925518165E+00
  0.164768707266E+00
  0.164452126413E+00
  0.122834735030E+00
  0.123502521814E+00
  0.107105571064E+00
  0.108296299863E+00
  0.927817752070E-01
  0.938230158901E-01
  0.780757684895E-01
  0.776385232768E-01
  0.761824226897E-01
  0.798006772551E-01
  0.143400060482E+00
  0.151073970797E+00
  0.290255922231E+00
  0.301245610618E+00
  0.478744177729E+00
  0.483833515309E+00
  0.230802991459E+00
  0.152953528362E+00
 -0.175267508679E+01
 -0.157179385833E+01
 -0.153544563921E+01
 -0.142991972294E+01
 -0.104365944609E+01
 -0.998711599350E+00
 -0.762791786062E+00
 -0.753582304468E+00
 -0.504359968140E+00
 -0.515266795894E+00
 -0.287827393067E+00
 -0.276491317431E+00
 -0.127936099952E+00
 -0.119530101418E+00
 -0.209485921827E-01
 -0.157942895237E-01
  0.580552633765E-01
  0.612307725168E-01
  0.147572086520E+00
  0.149644163377E+00
  0.164650074201E+00
  0.164185150203E+00
  0.122228386262E+00
  0.122489357776E+00
  0.106240429116E+00
  0.106845112089E+00
  0.920877841517E-01
  0.925915347494E-01
  0.785222063514E-01
  0.779617345216E-01
  0.797389916958E-01
  0.831150404405E-01
  0.150983855735E+00
  0.158432075698E+00
  0.301797523803E+00
  0.311906291871E+00
  0.487520605673E+00
  0.491257366297E+00
  0.167331507002E+00
  0.101992574906E+00
 -0.189215377061E+01
 -0.175134656787E+01
 -0.161308396423E+01
 -0.153622407470E+01
 -0.108011135182E+01
 -0.104827276416E+01
 -0.777655025649E+00
 -0.769675216543E+00
 -0.506567602737E+00
 -0.510435665206E+00
 -0.277821561785E+00
 -0.272915879531E+00
 -0.119910730094E+00
 -0.115901062666E+00
 -0.157397650721E-01
 -0.128130557649E-01
  0.616369143887E-01
  0.638883116601E-01
  0.150521338781E+00
  0.152516048256E+00
  0.164401642950E+00
  0.163993785446E+00
  0.121438193283E+00
  0.121824927484E+00
  0.105256093629E+00
  0.105931732349E+00
  0.913378354638E-01
  0.918564375036E-01
  0.787807386806E-01
  0.783611220962E-01
  0.830104406622E-01
  0.856237783936E-01
  0.158314763725E+00
  0.164165340420E+00
  0.312375400359E+00
  0.320240482611E+00
  0.494242578124E+00
  0.496643413989E+00
  0.112614387420E+00
  0.619778002511E-01
 -0.199599775114E+01
 -0.189143504343E+01
 -0.166966532445E+01
 -0.161423616500E+01
 -0.110705893830E+01
 -0.108339212614E+01
 -0.789939895318E+00
 -0.781956218364E+00
 -0.510274417593E+00
 -0.510217881850E+00
 -0.274227987320E+00
 -0.272227142002E+00
 -0.116365920441E+00
 -0.113981356380E+00
 -0.127914434174E-01
 -0.104666969396E-01
  0.643130477258E-01
  0.664993119850E-01
  0.153477248797E+00
  0.155594868121E+00
  0.163379807948E+00
  0.163609121034E+00
  0.119705407437E+00
  0.120942274883E+00
  0.103277756929E+00
  0.104880443096E+00
  0.895961488836E-01
  0.910614290608E-01
  0.779744927174E-01
  0.785852973580E-01
  0.854724202663E-01
  0.866089433931E-01
  0.163960436250E+00
  0.167569827474E+00
  0.320379756444E+00
  0.325583691280E+00
  0.498441501572E+00
  0.499795505182E+00
  0.687399566150E-01
  0.329561005347E-01
 -0.206826932730E+01
 -0.199549264359E+01
 -0.170854371318E+01
 -0.167040824258E+01
 -0.112560464704E+01
 -0.110913433070E+01
 -0.798550618313E+00
 -0.792694212561E+00
 -0.512886950014E+00
 -0.512797908276E+00
 -0.273475263682E+00
 -0.271508965066E+00
 -0.114503051521E+00
 -0.111615605418E+00
 -0.104937884199E-01
 -0.727370062987E-02
  0.669196397111E-01
  0.701424731286E-01
  0.156634266395E+00
  0.159718189264E+00
  0.160998177088E+00
  0.162317744383E+00
  0.116156709490E+00
  0.119032964943E+00
  0.992464301078E-01
  0.102780218464E+00
  0.856962307732E-01
  0.892476128069E-01
  0.749359786322E-01
  0.777415449633E-01
  0.863707328234E-01
  0.850643182191E-01
  0.167200666283E+00
  0.167954302353E+00
  0.325290127228E+00
  0.327657837678E+00
  0.500421064257E+00
  0.501025279963E+00
  0.366329938576E-01
  0.155304647599E-01
 -0.211068455900E+01
 -0.206792518450E+01
 -0.173059717011E+01
 -0.170918991069E+01
 -0.113524434362E+01
 -0.112729557906E+01
 -0.801850548765E+00
 -0.800912880533E+00
 -0.512145095601E+00
 -0.515273789013E+00
 -0.272711393825E+00
 -0.268430272767E+00
 -0.112212050529E+00
 -0.106839996993E+00
 -0.736531623438E-02
 -0.157916761465E-02
  0.705743894366E-01
  0.762323215875E-01
  0.160918339031E+00
  0.166049098143E+00
  0.156857302410E+00
  0.159390759766E+00
  0.109932766622E+00
  0.115125091097E+00
  0.919920345719E-01
  0.985007267151E-01
  0.782711650365E-01
  0.852040202811E-01
  0.682675481419E-01
  0.746374585892E-01
  0.846493877316E-01
  0.797538201849E-01
  0.167283867544E+00
  0.164430708830E+00
  0.326761045785E+00
  0.326043568407E+00
  0.500415302056E+00
  0.500490601393E+00
  0.166032630691E-01
  0.104926529585E-01
 -0.212313397087E+01
 -0.211057194405E+01
 -0.173533957316E+01
 -0.173164801258E+01
 -0.113487035410E+01
 -0.113730825013E+01
 -0.798122485065E+00
 -0.804723422095E+00
 -0.505944866710E+00
 -0.515182189321E+00
 -0.269653701692E+00
 -0.260815481821E+00
 -0.107581085354E+00
 -0.975238176918E-01
 -0.177912098840E-02
  0.865329487843E-02
  0.767015772447E-01
  0.866590175192E-01
  0.167574414293E+00
  0.176247282856E+00
  0.150792829686E+00
  0.154175471802E+00
  0.100541370516E+00
  0.108172566107E+00
  0.805906578262E-01
  0.907319316752E-01
  0.659561597689E-01
  0.774765029568E-01
  0.563532282569E-01
  0.678334136491E-01
  0.789909739299E-01
  0.691622748759E-01
  0.163229762913E+00
  0.155852714056E+00
  0.324228928857E+00
  0.320084123766E+00
  0.498311936663E+00
  0.498020553266E+00
  0.882250926750E-02
  0.181304646655E-01
 -0.210544187570E+01
 -0.212332752571E+01
 -0.172216086657E+01
 -0.173721738763E+01
 -0.112338665301E+01
 -0.113793482331E+01
 -0.785698438294E+00
 -0.802326565539E+00
 -0.492144014360E+00
 -0.510493019338E+00
 -0.262153418302E+00
 -0.246375590693E+00
 -0.985480905251E-01
 -0.812664593436E-01
  0.822843513022E-02
  0.258153293456E-01
  0.871434852339E-01
  0.103814987326E+00
  0.178292098403E+00
  0.192829707026E+00
  0.143388790166E+00
  0.146116190289E+00
  0.884453259352E-01
  0.973562650365E-01
  0.651388740573E-01
  0.782825068780E-01
  0.481752638234E-01
  0.645181866602E-01
  0.377644740868E-01
  0.556268286664E-01
  0.677130861582E-01
  0.515139419402E-01
  0.153730570672E+00
  0.140718415899E+00
  0.316820559812E+00
  0.308837397732E+00
  0.493602772623E+00
  0.493085359141E+00
  0.129534232386E-01
  0.377234978515E-01
 -0.205880024650E+01
 -0.210599409906E+01
 -0.169118350532E+01
 -0.172522429915E+01
 -0.110008144958E+01
 -0.112806850296E+01
 -0.763033520138E+00
 -0.792203660138E+00
 -0.468506001259E+00
 -0.499419605477E+00
 -0.247926347101E+00
 -0.222898656936E+00
 -0.828181433980E-01
 -0.561415479566E-01
  0.248845624389E-01
  0.515631572634E-01
  0.104092272721E+00
  0.129472692023E+00
  0.195400930200E+00
  0.217946403110E+00
  0.133565818467E+00
  0.134953411197E+00
  0.731615948694E-01
  0.824731573235E-01
  0.455891604116E-01
  0.607376686856E-01
  0.254201124402E-01
  0.453895684137E-01
  0.125161188941E-01
  0.363852804056E-01
  0.486737770259E-01
  0.254398334066E-01
  0.136963961136E+00
  0.117076052599E+00
  0.303228480978E+00
  0.290913336790E+00
  0.485301160286E+00
  0.484741674997E+00
  0.276030872885E-01
  0.674049627104E-01
 -0.198630453454E+01
 -0.205973457698E+01
 -0.164355550601E+01
 -0.169576874111E+01
 -0.106467170893E+01
 -0.110711882325E+01
 -0.728623926565E+00
 -0.773246692428E+00
 -0.432862050721E+00
 -0.480489187899E+00
 -0.224788011579E+00
 -0.189627379438E+00
 -0.586582149680E-01
 -0.232087226693E-01
  0.495203716205E-01
  0.844410473452E-01
  0.128829142440E+00
  0.163451525021E+00
  0.220401118605E+00
  0.253161111875E+00
  0.117100892800E+00
  0.116695320223E+00
  0.485777711042E-01
  0.609175517874E-01
  0.154219910887E-01
  0.368473940286E-01
 -0.507423253038E-02
  0.200024855356E-01
 -0.178137056791E-01
  0.971943965537E-02
  0.198228789726E-01
 -0.755981511984E-02
  0.110301562980E+00
  0.829503852796E-01
  0.281323235525E+00
  0.264048656269E+00
  0.471681089822E+00
  0.471436287948E+00
  0.499830428929E-01
  0.104491544754E+00
 -0.189234786385E+01
 -0.198760955446E+01
 -0.158095763972E+01
 -0.165004258325E+01
 -0.101666197848E+01
 -0.107519764635E+01
 -0.680332052725E+00
 -0.745072368099E+00
 -0.384240866962E+00
 -0.453042993448E+00
 -0.192229781440E+00
 -0.150915046518E+00
 -0.274439667908E-01
  0.990839182084E-02
  0.803683811907E-01
  0.117352188669E+00
  0.160690079937E+00
  0.203750782691E+00
  0.253886846285E+00
  0.301542773512E+00
  0.821471241927E-01
  0.710114158598E-01
 -0.143623469653E-01
  0.160243667402E-01
 -0.567652205313E-01
 -0.368909285314E-02
 -0.585462335726E-01
 -0.150449467661E-01
 -0.551506649725E-01
 -0.231714223098E-01
 -0.182087561732E-01
 -0.418036055930E-01
  0.705898152661E-01
  0.394410566546E-01
  0.247106258126E+00
  0.224394070762E+00
  0.449446667803E+00
  0.450346777993E+00
  0.756840589664E-01
  0.146163057183E+00
 -0.178095430587E+01
 -0.189396768491E+01
 -0.150407367750E+01
 -0.158996863622E+01
 -0.953332025265E+00
 -0.103308978431E+01
 -0.614735178436E+00
 -0.708472064402E+00
 -0.328031969703E+00
 -0.418169997567E+00
 -0.155387771082E+00
 -0.117963352797E+00
  0.263810570670E-02
  0.280724025113E-01
  0.111051421723E+00
  0.130402877507E+00
  0.199804169048E+00
  0.246083009861E+00
  0.300170617345E+00
  0.389035329419E+00
 -0.612085804959E-01
 -0.210910918188E+00
 -0.407634057138E+00
 -0.156538972876E+00
 -0.320984292145E+00
 -0.102639113213E+00
 -0.176292770086E+00
 -0.741758961529E-01
 -0.108291379271E+00
 -0.639763681690E-01
 -0.608696536537E-01
 -0.750586783178E-01
  0.178519567409E-01
 -0.495077877922E-02
  0.192919471870E+00
  0.167557670859E+00
  0.410893286992E+00
  0.415231944107E+00
  0.975168647223E-01
  0.190195417379E+00
 -0.165304423937E+01
 -0.178275560396E+01
 -0.140889215665E+01
 -0.151721207083E+01
 -0.865092762124E+00
 -0.982544592309E+00
 -0.535176133150E+00
 -0.664892963593E+00
 -0.278855710836E+00
 -0.382764963740E+00
 -0.127343323064E+00
 -0.102511308606E+00
  0.133920301659E-01
  0.797550559572E-02
  0.123971834569E+00
  0.410247794065E-01
  0.250320807093E+00
  0.141717088610E+00
  0.375179765717E+00
  0.649726420404E+00
 -0.923038263294E+02
  0.252536968363E+00
 -0.791951253299E+00
 -0.198636469242E+01
 -0.227055651878E+01
 -0.404122516641E+00
 -0.454313356937E+00
 -0.189033268397E+00
 -0.192241101193E+00
 -0.121000838666E+00
 -0.109091784553E+00
 -0.113443509671E+00
 -0.408691051835E-01
 -0.471567859545E-01
  0.109833480987E+00
  0.972478253082E-01
  0.333272451598E+00
  0.349422140720E+00
  0.976971711573E-01
  0.235594768950E+00
 -0.149948906796E+01
 -0.165471582946E+01
 -0.127312763439E+01
 -0.143282276871E+01
 -0.739397948611E+00
 -0.926040601335E+00
 -0.467259113671E+00
 -0.621240464919E+00
 -0.249436588194E+00
 -0.366740691129E+00
 -0.125778404396E+00
 -0.116032743722E+00
 -0.358913440066E-01
 -0.799832703584E-01
  0.235893433237E-01
 -0.100394420154E+01
 -0.275780515443E+00
 -0.308065727780E+00
 -0.702060130448E+00
 -0.897929975364E+02
 -0.151799156146E+09
 -0.919588049048E+05
 -0.541140416819E+05
 -0.676238736800E+00
 -0.686295642899E-01
 -0.183349136973E+01
 -0.135890077754E+01
 -0.436651981661E+00
 -0.367327265809E+00
 -0.222162575486E+00
 -0.192382014024E+00
 -0.180827329830E+00
 -0.117619654521E+00
 -0.115529790685E+00
 -0.157122208289E-01
 -0.868459616670E-02
  0.144358630568E+00
  0.199291938232E+00
 -0.422145397567E-01
  0.262315764902E+00
 -0.121596610409E+01
 -0.150059940127E+01
 -0.980265219266E+00
 -0.135667652174E+01
 -0.628537316827E+00
 -0.879046143839E+00
 -0.449991733479E+00
 -0.629919021808E+00
 -0.263675861974E+00
 -0.429487087505E+00
 -0.198829158047E+00
 -0.211909260313E+00
 -0.268952973803E+00
 -0.302559130506E+00
 -0.123032367645E+01
 -0.234542401068E+01
 -0.161601508061E+00
 -0.536374535865E+05
 -0.911482555237E+05
 -0.151816503280E+09
 -0.346010122202E+09
 -0.208308769224E+07
 -0.900415566788E+05
 -0.104719660972E+03
 -0.452817220690E+01
 -0.365098069517E+01
 -0.997920631716E+00
 -0.782305940901E+00
 -0.438276242690E+00
 -0.396339112219E+00
 -0.324274068437E+00
 -0.276447642747E+00
 -0.278243220225E+00
 -0.224288629244E+00
 -0.252458687557E+00
 -0.193608872240E+00
 -0.192011852906E+00
 -0.336579810575E+00
 -0.121749002230E+01
 -0.886417047818E+00
 -0.116859536306E+01
 -0.699659282524E+00
 -0.871102365816E+00
 -0.570135827064E+00
 -0.736669195722E+00
 -0.415519418453E+00
 -0.660560721859E+00
 -0.451823592873E+00
 -0.580487898731E+00
 -0.111334176918E+01
 -0.529968922629E+00
  0.620789756596E+00
 -0.168021217061E+03
 -0.909772260691E+05
 -0.207221538562E+07
 -0.345936422492E+09
 -0.363362512576E+09
 -0.797523805496E+07
 -0.129733180369E+06
 -0.783816677113E+03
 -0.875983761671E+01
 -0.525208310821E+01
 -0.142835125609E+01
 -0.120146310554E+01
 -0.689334160237E+00
 -0.654522499301E+00
 -0.515278511868E+00
 -0.479329102697E+00
 -0.470870820305E+00
 -0.434552825600E+00
 -0.480525723740E+00
 -0.438514585151E+00
 -0.503520130992E+00
 -0.492164934817E+00
 -0.116671982179E+01
 -0.933217250857E+00
 -0.110910188173E+01
 -0.815563075828E+00
 -0.917659031391E+00
 -0.720932251371E+00
 -0.851665730814E+00
 -0.604232142749E+00
 -0.887540474208E+00
 -0.751864679233E+00
 -0.974589280934E+00
 -0.180316023202E+01
 -0.917190936751E+00
  0.687259951731E+00
 -0.994716892286E+03
 -0.131275909838E+06
 -0.794731378367E+07
 -0.363248171904E+09
 -0.290131680093E+09
 -0.614554275945E+07
 -0.174306740217E+06
 -0.598843596406E+03
 -0.148035296294E+02
 -0.557591636337E+01
 -0.190110800662E+01
 -0.154336471883E+01
 -0.923919901944E+00
 -0.886932710123E+00
 -0.700529515891E+00
 -0.670527070015E+00
 -0.648230114584E+00
 -0.618943664013E+00
 -0.668066655313E+00
 -0.634450188432E+00
 -0.735292313644E+00
 -0.624976808092E+00
 -0.105441052411E+01
 -0.971340580799E+00
 -0.102272672168E+01
 -0.881293420973E+00
 -0.913539902621E+00
 -0.814225962917E+00
 -0.910651291250E+00
 -0.751757672232E+00
 -0.104612544678E+01
 -0.995633957240E+00
 -0.131804348409E+01
 -0.236141894564E+01
 -0.162187419164E+01
 -0.189986479103E+01
 -0.815724619102E+03
 -0.175994150925E+06
 -0.611714258520E+07
 -0.290026131376E+09
 -0.208651258323E+09
 -0.119602424220E+07
 -0.194812278100E+06
 -0.848526888343E+02
 -0.144364340968E+02
 -0.455777786954E+01
 -0.233523265357E+01
 -0.170807298227E+01
 -0.107369945661E+01
 -0.103672144506E+01
 -0.832438603212E+00
 -0.817026697828E+00
 -0.782999802134E+00
 -0.767158272016E+00
 -0.805026784829E+00
 -0.796861035910E+00
 -0.887655999457E+00
 -0.765668533225E+00
 -0.912893231708E+00
 -0.976846312074E+00
 -0.914244718110E+00
 -0.884112691443E+00
 -0.861132042077E+00
 -0.835412305119E+00
 -0.904118818410E+00
 -0.827855091875E+00
 -0.111562460672E+01
 -0.113319039164E+01
 -0.156914431305E+01
 -0.259956805688E+01
 -0.281837489943E+01
 -0.757943951837E+01
 -0.180105420797E+03
 -0.195615131720E+06
 -0.118366734952E+07
 -0.208607683589E+09
SCALARS sigma float 1
LOOKUP_TABLE default
  0.000000000000E+00
  0.000000000000E+00
  0.000000000000E+00
  0.000000000000E+00
  0.000000000000E+00
  0.000000000000E+00
  0.000000000000E+00
  0.000000000000E+00
  0.000000000000E+00
  0.000000000000E+00
  0.000000000000E+00
  0.000000000000E+00
  0.000000000000E+00
  0.000000000000E+00
  0.000000000000E+00
  0.000000000000E+00
  0.000000000000E+00
  0.000000000000E+00
  0.000000000000E+00
  0.000000000000E+00
  0.000000000000E+00
  0.000000000000E+00
  0.000000000000E+00
  0.000000000000E+00
  0.000000000000E+00
  0.000000000000E+00
  0.000000000000E+00
  0.000000000000E+00
  0.000000000000E+00
  0.000000000000E+00
  0.000000000000E+00
  0.000000000000E+00
  0.000000000000E+00
  0.000000000000E+00
  0.000000000000E+00
  0.000000000000E+00
  0.000000000000E+00
  0.000000000000E+00
  0.000000000000E+00
  0.000000000000E+00
  0.000000000000E+00
  0.000000000000E+00