# vtk DataFile Version 3.0
MachLine results file. Generated by MachLine, USU AeroLab (c) 2022.
ASCII
DATASET POLYDATA
POINTS                1848 float
  0.000000000000E+00  0.000000000000E+00  0.000000000000E+00
  0.147665724158E+00  0.000000000000E+00 -0.234920635819E+00
  0.147665724158E+00  0.000000000000E+00  0.234920635819E+00
  0.339639574289E+00  0.339639574289E+00  0.000000000000E+00
  0.473465979099E+00  0.000000000000E+00 -0.436293870211E+00
  0.473465979099E+00  0.000000000000E+00  0.436293870211E+00
  0.487305283546E+00  0.339639574289E+00 -0.234920650721E+00
  0.487305283546E+00  0.339639574289E+00  0.234920650721E+00
  0.735364913940E+00  0.735364913940E+00  0.000000000000E+00
  0.813105583191E+00  0.339639574289E+00 -0.436293929815E+00
  0.813105583191E+00  0.339639574289E+00  0.436293929815E+00
  0.883030653000E+00  0.735364913940E+00 -0.234920680523E+00
  0.883030653000E+00  0.735364913940E+00  0.234920680523E+00
  0.944064557552E+00  0.000000000000E+00 -0.604293465614E+00
  0.944064557552E+00  0.000000000000E+00  0.604293465614E+00
  0.119528055191E+01  0.119528055191E+01  0.000000000000E+00
  0.120883107185E+01  0.735364913940E+00 -0.436293989420E+00
  0.120883107185E+01  0.735364913940E+00  0.436293989420E+00
  0.128370416164E+01  0.339639574289E+00 -0.604293525219E+00
  0.128370416164E+01  0.339639574289E+00  0.604293525219E+00
  0.134294629097E+01  0.119528055191E+01 -0.234920725226E+00
  0.134294629097E+01  0.119528055191E+01  0.234920725226E+00
  0.157641971111E+01  0.000000000000E+00 -0.760520398617E+00
  0.157641971111E+01  0.000000000000E+00  0.760520398617E+00
  0.166874670982E+01  0.119528055191E+01 -0.436294049025E+00
  0.166874670982E+01  0.119528055191E+01  0.436294049025E+00
  0.167942965031E+01  0.735364913940E+00 -0.604293584824E+00
  0.167942965031E+01  0.735364913940E+00  0.604293584824E+00
  0.172824025154E+01  0.172824025154E+01  0.000000000000E+00
  0.187590610981E+01  0.172824025154E+01 -0.234920769930E+00
  0.187590610981E+01  0.172824025154E+01  0.234920769930E+00
  0.191605937481E+01  0.339639574289E+00 -0.760520458221E+00
  0.191605937481E+01  0.339639574289E+00  0.760520458221E+00
  0.213934540749E+01  0.119528055191E+01 -0.604293704033E+00
  0.213934540749E+01  0.119528055191E+01  0.604293704033E+00
  0.220170640945E+01  0.172824025154E+01 -0.436294138432E+00
  0.220170640945E+01  0.172824025154E+01  0.436294138432E+00
  0.231178498268E+01  0.735364913940E+00 -0.760520577431E+00
  0.231178498268E+01  0.735364913940E+00  0.760520577431E+00
  0.234375929832E+01  0.234375929832E+01  0.000000000000E+00
  0.239635515213E+01  0.000000000000E+00 -0.902061045170E+00
  0.239635515213E+01  0.000000000000E+00  0.902061045170E+00
  0.249142503738E+01  0.234375929832E+01 -0.234920814633E+00
  0.249142503738E+01  0.234375929832E+01  0.234920814633E+00
  0.267230534554E+01  0.172824025154E+01 -0.604293823242E+00
  0.267230534554E+01  0.172824025154E+01  0.604293823242E+00
  0.273599505424E+01  0.339639574289E+00 -0.902061164379E+00
  0.273599505424E+01  0.339639574289E+00  0.902061164379E+00
  0.277170085907E+01  0.119528055191E+01 -0.760520696640E+00
  0.277170085907E+01  0.119528055191E+01  0.760520696640E+00
  0.281722569466E+01  0.234375929832E+01 -0.436294227839E+00
  0.281722569466E+01  0.234375929832E+01  0.436294227839E+00
  0.305185556412E+01  0.305185556412E+01  0.000000000000E+00
  0.313172078133E+01  0.735364913940E+00 -0.902061283588E+00
  0.313172078133E+01  0.735364913940E+00  0.902061283588E+00
  0.319952154160E+01  0.305185556412E+01 -0.234920859337E+00
  0.319952154160E+01  0.305185556412E+01  0.234920859337E+00
  0.328782463074E+01  0.234375929832E+01 -0.604293942451E+00
  0.328782463074E+01  0.234375929832E+01  0.604293942451E+00
  0.330466079712E+01  0.172824025154E+01 -0.760520815849E+00
  0.330466079712E+01  0.172824025154E+01  0.760520815849E+00
  0.342464399338E+01  0.000000000000E+00 -0.102348911762E+01
  0.342464399338E+01  0.000000000000E+00  0.102348911762E+01
  0.352532196045E+01  0.305185556412E+01 -0.436294317245E+00
  0.352532196045E+01  0.305185556412E+01  0.436294317245E+00
  0.359163665771E+01  0.119528055191E+01 -0.902061402798E+00
  0.359163665771E+01  0.119528055191E+01  0.902061402798E+00
  0.376428389549E+01  0.339639574289E+00 -0.102348923683E+01
  0.376428389549E+01  0.339639574289E+00  0.102348923683E+01
  0.386280250549E+01  0.386280250549E+01  0.000000000000E+00
  0.392018008232E+01  0.234375929832E+01 -0.760520994663E+00
  0.392018008232E+01  0.234375929832E+01  0.760520994663E+00
  0.399592113495E+01  0.305185556412E+01 -0.604294061661E+00
  0.399592113495E+01  0.305185556412E+01  0.604294061661E+00
  0.401046848297E+01  0.386280250549E+01 -0.234920918941E+00
  0.401046848297E+01  0.386280250549E+01  0.234920918941E+00
  0.412459707260E+01  0.172824025154E+01 -0.902061522007E+00
  0.412459707260E+01  0.172824025154E+01  0.902061522007E+00
  0.416000986099E+01  0.735364913940E+00 -0.102348935604E+01
  0.416000986099E+01  0.735364913940E+00  0.102348935604E+01
  0.433626890182E+01  0.386280250549E+01 -0.436294436455E+00
  0.433626890182E+01  0.386280250549E+01  0.436294436455E+00
  0.461992597580E+01  0.119528055191E+01 -0.102348947525E+01
  0.461992597580E+01  0.119528055191E+01  0.102348947525E+01
  0.462827682495E+01  0.305185556412E+01 -0.760521173477E+00
  0.462827682495E+01  0.305185556412E+01  0.760521173477E+00
  0.466872262955E+01  0.000000000000E+00 -0.111146688461E+01
  0.466872262955E+01  0.000000000000E+00  0.111146688461E+01
  0.474011659622E+01  0.234375929832E+01 -0.902061700821E+00
  0.474011659622E+01  0.234375929832E+01  0.902061700821E+00
  0.478677463531E+01  0.478677463531E+01  0.000000000000E+00
  0.480686807632E+01  0.386280250549E+01 -0.604294240475E+00
  0.480686807632E+01  0.386280250549E+01  0.604294240475E+00
  0.493444061279E+01  0.478677463531E+01 -0.234920993447E+00
  0.493444061279E+01  0.478677463531E+01  0.234920993447E+00
  0.500836277008E+01  0.339639574289E+00 -0.111146700382E+01
  0.500836277008E+01  0.339639574289E+00  0.111146700382E+01
  0.515288639069E+01  0.172824025154E+01 -0.102348971367E+01
  0.515288639069E+01  0.172824025154E+01  0.102348971367E+01
  0.526024150848E+01  0.478677463531E+01 -0.436294555664E+00
  0.526024150848E+01  0.478677463531E+01  0.436294555664E+00
  0.540408849716E+01  0.735364913940E+00 -0.111146712303E+01
  0.540408849716E+01  0.735364913940E+00  0.111146712303E+01
  0.543922424316E+01  0.386280250549E+01 -0.760521352291E+00
  0.543922424316E+01  0.386280250549E+01  0.760521352291E+00
  0.544821310043E+01  0.305185556412E+01 -0.902061939240E+00
  0.544821310043E+01  0.305185556412E+01  0.902061939240E+00
  0.573084068298E+01  0.478677463531E+01 -0.604294419289E+00
  0.573084068298E+01  0.478677463531E+01  0.604294419289E+00
  0.576840591431E+01  0.234375929832E+01 -0.102348983288E+01
  0.576840591431E+01  0.234375929832E+01  0.102348983288E+01
  0.583337688446E+01  0.583337688446E+01  0.000000000000E+00
  0.586400508881E+01  0.119528055191E+01 -0.111146736145E+01
  0.586400508881E+01  0.119528055191E+01  0.111146736145E+01
  0.598104286194E+01  0.583337688446E+01 -0.234921067953E+00
  0.598104286194E+01  0.583337688446E+01  0.234921067953E+00
  0.611307668686E+01  0.000000000000E+00 -0.114008128643E+01
  0.611307668686E+01  0.000000000000E+00  0.114008128643E+01
  0.625916051865E+01  0.386280250549E+01 -0.902062177658E+00
  0.625916051865E+01  0.386280250549E+01  0.902062177658E+00
  0.630684375763E+01  0.583337688446E+01 -0.436294704676E+00
  0.630684375763E+01  0.583337688446E+01  0.436294704676E+00
  0.636319684982E+01  0.478677463531E+01 -0.760521590710E+00
  0.636319684982E+01  0.478677463531E+01  0.760521590710E+00
  0.639696550369E+01  0.172824025154E+01 -0.111146748066E+01
  0.639696550369E+01  0.172824025154E+01  0.111146748066E+01
  0.645271682739E+01  0.339639574289E+00 -0.114008140564E+01
  0.645271682739E+01  0.339639574289E+00  0.114008140564E+01
  0.647650289536E+01  0.305185556412E+01 -0.102349007130E+01
  0.647650289536E+01  0.305185556412E+01  0.102349007130E+01
  0.677744340897E+01  0.583337688446E+01 -0.604294598103E+00
  0.677744340897E+01  0.583337688446E+01  0.604294598103E+00
  0.684844303131E+01  0.735364913940E+00 -0.114008152485E+01
  0.684844303131E+01  0.735364913940E+00  0.114008152485E+01
  0.701104879379E+01  0.701104879379E+01  0.000000000000E+00
  0.701248550415E+01  0.234375929832E+01 -0.111146771908E+01
  0.701248550415E+01  0.234375929832E+01  0.111146771908E+01
  0.715871477127E+01  0.701104879379E+01 -0.234921157360E+00
  0.715871477127E+01  0.701104879379E+01  0.234921157360E+00
  0.718313360214E+01  0.478677463531E+01 -0.902062416077E+00
  0.718313360214E+01  0.478677463531E+01  0.902062416077E+00
  0.728745079041E+01  0.386280250549E+01 -0.102349042892E+01
  0.728745079041E+01  0.386280250549E+01  0.102349042892E+01
  0.730835962296E+01  0.119528055191E+01 -0.114008176327E+01
  0.730835962296E+01  0.119528055191E+01  0.114008176327E+01
  0.740979957581E+01  0.583337688446E+01 -0.760521829128E+00
  0.740979957581E+01  0.583337688446E+01  0.760521829128E+00
  0.748451566696E+01  0.701104879379E+01 -0.436294883490E+00
  0.748451566696E+01  0.701104879379E+01  0.436294883490E+00
  0.771254587173E+01  0.000000000000E+00 -0.108925735950E+01
  0.771254587173E+01  0.000000000000E+00  0.108925735950E+01
  0.772058296204E+01  0.305185556412E+01 -0.111146795750E+01
  0.772058296204E+01  0.305185556412E+01  0.111146795750E+01
  0.784132003784E+01  0.172824025154E+01 -0.114008188248E+01
  0.784132003784E+01  0.172824025154E+01  0.114008188248E+01
  0.795511531830E+01  0.701104879379E+01 -0.604294836521E+00
  0.795511531830E+01  0.701104879379E+01  0.604294836521E+00
  0.805218601227E+01  0.339639574289E+00 -0.108925747871E+01
  0.805218601227E+01  0.339639574289E+00  0.108925747871E+01
  0.821142387390E+01  0.478677463531E+01 -0.102349066734E+01
  0.821142387390E+01  0.478677463531E+01  0.102349066734E+01
[...]
CELL_DATA                3576
SCALARS C_p_inc float 1
LOOKUP_TABLE default
  0.218000270547E+00
  0.195146194542E+00
  0.165634971627E+00
  0.147610464317E+00
  0.140352822374E+00
  0.131024422371E+00
  0.125317433819E+00
  0.120418519111E+00
  0.115048159459E+00
  0.111902053823E+00
  0.106599751776E+00
  0.104300478967E+00
  0.986995230788E-01
  0.966975989967E-01
  0.907490282817E-01
  0.888913979918E-01
  0.834539026446E-01
  0.819155321604E-01
  0.810702189939E-01
  0.809983312923E-01
  0.897333815332E-01
  0.875967792847E-01
  0.113785414470E+00
  0.107393569092E+00
  0.170111676150E+00
  0.154818422032E+00
  0.246182879056E+00
  0.226239906546E+00
  0.326684286790E+00
  0.304092730870E+00
  0.413250795250E+00
  0.386666419515E+00
  0.514424446874E+00
  0.484575239466E+00
  0.634853037832E+00
  0.610139486968E+00
  0.767298194851E+00
  0.772278421330E+00
  0.746939443927E+00
  0.656050388869E+00
 -0.178585583298E+00
  0.176563552545E+00
 -0.635413617366E+00
 -0.273187171508E+00
 -0.661555470681E+00
 -0.478340670920E+00
 -0.624767862157E+00
 -0.537616810140E+00
 -0.611743883389E+00
 -0.569529532490E+00
 -0.607660839244E+00
 -0.585119197043E+00
 -0.614503826661E+00
 -0.600031910700E+00
 -0.617441519840E+00
 -0.612679936223E+00
 -0.584916096181E+00
 -0.595036946369E+00
 -0.518832868565E+00
 -0.532930038411E+00
 -0.460474643145E+00
 -0.445871907957E+00
 -0.386430478549E+00
 -0.370897496274E+00
 -0.314585859910E+00
 -0.299210470700E+00
 -0.250741193574E+00
 -0.235026255575E+00
 -0.194231669073E+00
 -0.177207450254E+00
 -0.143030830145E+00
 -0.123108532626E+00
 -0.944843432349E-01
 -0.693573261774E-01
 -0.456971222715E-01
 -0.104189351414E-01
  0.980019873134E-02
  0.621834988911E-01
  0.102920148991E+00
  0.164265174829E+00
  0.203958623399E+00
  0.216332337178E+00
  0.164654829110E+00
  0.165367970061E+00
  0.146712633977E+00
  0.140299056939E+00
  0.130777721271E+00
  0.125300517114E+00
  0.118585332800E+00
  0.115041710117E+00
  0.109027630110E+00
  0.106598848961E+00
  0.100545401951E+00
  0.987027043118E-01
  0.921735033034E-01
  0.907535324223E-01
  0.842142216261E-01
  0.834463432081E-01
  0.803368082788E-01
  0.810119642461E-01
  0.875841058495E-01
  0.844467784861E-01
  0.107512870607E+00
  0.100283994000E+00
  0.155237756565E+00
  0.142230624248E+00
  0.226170981317E+00
  0.210590150726E+00
  0.302439266830E+00
  0.287033643102E+00
  0.381372502778E+00
  0.367892133759E+00
  0.469736054192E+00
  0.461061173105E+00
  0.570672039542E+00
  0.569408398362E+00
  0.669290562555E+00
  0.660622307105E+00
  0.519114545721E+00
  0.408938226514E+00
 -0.448990104616E+00
 -0.250183658533E+00
 -0.823626549274E+00
 -0.603676407058E+00
 -0.802733082844E+00
 -0.647291528280E+00
 -0.718564265644E+00
 -0.623270689336E+00
 -0.671089249778E+00
 -0.614035194848E+00
 -0.644497291111E+00
 -0.610417952981E+00
 -0.637220651271E+00
 -0.617168186823E+00
 -0.627687033416E+00
 -0.620541138335E+00
 -0.581756992248E+00
 -0.588004242137E+00
 -0.508376569978E+00
 -0.520888420663E+00
 -0.445745586336E+00
 -0.432913867513E+00
 -0.370649053001E+00
 -0.356011827950E+00
 -0.299013411952E+00
 -0.283358549913E+00
 -0.234900187063E+00
 -0.217994401963E+00
 -0.177141233087E+00
 -0.158063063204E+00
 -0.123095008086E+00
 -0.100328166126E+00
 -0.694113844250E-01
 -0.411471671439E-01
 -0.106367854994E-01
  0.218184850311E-01
  0.612588680089E-01
  0.864903489487E-01
  0.160029824527E+00
  0.175652341701E+00
  0.201268527976E+00
  0.203595718036E+00
  0.160612403453E+00
  0.164361431278E+00
  0.146323143033E+00
  0.146560141777E+00
  0.133861168946E+00
  0.130722049925E+00
  0.121956011025E+00
  0.118564117148E+00
  0.111558144342E+00
  0.109020681026E+00
  0.102390319490E+00
  0.100547033208E+00
  0.934805885745E-01
  0.921801471390E-01
  0.847950014310E-01
  0.842119216968E-01
  0.795395925204E-01
  0.802823456159E-01
  0.845590059381E-01
  0.815034512858E-01
  0.100689060051E+00
  0.942647534713E-01
  0.142801449570E+00
  0.132434015181E+00
  0.210095001826E+00
  0.198083861967E+00
  0.284180842000E+00
  0.273384671764E+00
  0.361027108935E+00
  0.353553647388E+00
  0.447142749708E+00
  0.444611164957E+00
  0.544642345143E+00
  0.545696942139E+00
  0.625182888304E+00
  0.610648151619E+00
  0.389224138152E+00
  0.283056007077E+00
 -0.655119828394E+00
 -0.482741378124E+00
 -0.990910910566E+00
 -0.804626827935E+00
 -0.924203212400E+00
 -0.784853073831E+00
 -0.803495336201E+00
 -0.709927438843E+00
 -0.729723866027E+00
 -0.668096746455E+00
 -0.683840694096E+00
 -0.644450181211E+00
 -0.662032680783E+00
 -0.638920259725E+00
 -0.639313093412E+00
 -0.631140232671E+00
 -0.581305526447E+00
 -0.586093599900E+00
 -0.499918487836E+00
 -0.511938653707E+00
 -0.432786945225E+00
 -0.420459580016E+00
 -0.355680506641E+00
 -0.341020018208E+00
 -0.283073840955E+00
 -0.266731874419E+00
 -0.217803149220E+00
 -0.199583155479E+00
 -0.157963182254E+00
 -0.137123307435E+00
 -0.100332226180E+00
 -0.763570822705E-01
 -0.413356601818E-01
 -0.163582686946E-01
  0.211746187921E-01
  0.408003750836E-01
  0.849719204771E-01
  0.956133802129E-01
  0.172200625952E+00
  0.172315683612E+00
  0.196887990240E+00
  0.200814413435E+00
  0.157395488405E+00
  0.160396787463E+00
  0.144025267696E+00
  0.146165842645E+00
  0.133761709275E+00
  0.133766410157E+00
  0.123849778725E+00
  0.121911760292E+00
  0.113799796892E+00
  0.111541168562E+00
  0.104192818745E+00
  0.102388432811E+00
  0.947390801507E-01
  0.934879389267E-01
  0.853434086181E-01
  0.847988973312E-01
  0.788849786776E-01
  0.795050398658E-01
  0.816441983611E-01
  0.790207655961E-01
  0.946487148942E-01
  0.893773456438E-01
  0.132788780521E+00
  0.124857062125E+00
  0.197260557082E+00
  0.188421773546E+00
  0.270270469282E+00
  0.263036108695E+00
  0.347143587205E+00
  0.343353122048E+00
  0.433627951943E+00
  0.433920176677E+00
  0.529510048277E+00
  0.530753328674E+00
  0.593018302138E+00
  0.575441892962E+00
  0.281497498503E+00
  0.179012899280E+00
 -0.837622766496E+00
 -0.676129425104E+00
 -0.114323065936E+01
 -0.974979859946E+00
 -0.103615752229E+01
 -0.907850682257E+00
 -0.883996812935E+00
 -0.793841510123E+00
 -0.787653892364E+00
 -0.725144233409E+00
 -0.724175662233E+00
 -0.682771670814E+00
 -0.687995307410E+00
 -0.663590060116E+00
 -0.652079046386E+00
 -0.643257052532E+00
 -0.582446373686E+00
 -0.586387495435E+00
 -0.492654423045E+00
 -0.504441581769E+00
 -0.420499087864E+00
 -0.408338641353E+00
 -0.340708210245E+00
 -0.325808589052E+00
 -0.266407561809E+00
 -0.249335261421E+00
 -0.199345759955E+00
 -0.180079509818E+00
 -0.137004226665E+00
 -0.115639277904E+00
 -0.764126604361E-01
 -0.548109161669E-01
 -0.167192092638E-01
  0.890102396425E-03
  0.399881981260E-01
  0.510938581211E-01
  0.942852698912E-01
  0.999113539289E-01
  0.170395218399E+00
  0.173045956767E+00
  0.193100959005E+00
  0.196577747447E+00
  0.154566391491E+00
  0.157207671676E+00
  0.141612734642E+00
  0.143885655850E+00
  0.132237674906E+00
  0.133658808992E+00
  0.123879465050E+00
  0.123784237097E+00
  0.115089823056E+00
  0.113767824486E+00
  0.105724001624E+00
  0.104183864892E+00
  0.959347242178E-01
  0.947453402905E-01
  0.859306394700E-01
  0.853541458719E-01
  0.784785595292E-01
  0.788747096648E-01
  0.791507268390E-01
  0.771538920004E-01
  0.896766555905E-01
  0.857037728845E-01
  0.125023468001E+00
  0.119363663139E+00
  0.187504493435E+00
  0.181588207320E+00
  0.260166541563E+00
  0.255898024557E+00
  0.337979131941E+00
  0.336773155066E+00
  0.425659412042E+00
  0.427523367443E+00
  0.520113879281E+00
  0.521119564797E+00
  0.566683750914E+00
  0.547344472304E+00
  0.184383963593E+00
  0.847100769521E-01
 -0.100751479058E+01
 -0.851622850704E+00
 -0.128630107887E+01
 -0.112956487673E+01
 -0.114176658441E+01
 -0.102189083379E+01
 -0.960867345410E+00
 -0.874846698571E+00
 -0.843980324705E+00
 -0.782872736907E+00
 -0.763993617447E+00
 -0.722957415018E+00
 -0.713912852777E+00
 -0.689783625600E+00
 -0.665433967985E+00
 -0.656492055298E+00
 -0.584553392714E+00
 -0.588103186243E+00
 -0.486174292190E+00
 -0.497897501330E+00
 -0.408612189548E+00
 -0.396448029456E+00
 -0.325578405317E+00
 -0.310384236576E+00
 -0.249014540947E+00
 -0.231427441468E+00
 -0.179827027434E+00
 -0.160414377026E+00
 -0.115534084695E+00
 -0.959010430041E-01
 -0.549368937492E-01
 -0.382010210769E-01
  0.475260367129E-03
  0.121850390582E-01
  0.503977446142E-01
  0.575710601406E-01
  0.989499252315E-01
  0.103115314652E+00
  0.171609880711E+00
  0.174395443004E+00
  0.195942523753E+00
  0.192920932955E+00
  0.153882720899E+00
  0.154414949765E+00
  0.139927084926E+00
  0.141486049864E+00
  0.130517905257E+00
  0.132136696611E+00
  0.122831078171E+00
  0.123803819434E+00
  0.115168918663E+00
  0.115042233812E+00
  0.106620885832E+00
  0.105703680112E+00
  0.969437756501E-01
  0.959364458469E-01
  0.865701150578E-01
  0.859461894649E-01
  0.783855525366E-01
  0.784907288193E-01
  0.772593485977E-01
  0.759998783387E-01
  0.859129634141E-01
  0.833035111079E-01
  0.119399122581E+00
  0.115851858360E+00
  0.180721403856E+00
  0.177386128264E+00
  0.253512069166E+00
  0.251754244126E+00
  0.332594294522E+00
  0.333374827286E+00
  0.421588381183E+00
  0.424471925628E+00
  0.514340568450E+00
  0.515030250487E+00
  0.543786076361E+00
  0.523308562924E+00
  0.932871819399E-01
 -0.413418382532E-02
 -0.116921522116E+01
 -0.101706946995E+01
 -0.142256942584E+01
 -0.127460325097E+01
 -0.124218460043E+01
 -0.112973096052E+01
 -0.103409738776E+01
 -0.952965646467E+00
 -0.897915432949E+00
 -0.839856238881E+00
 -0.802312290563E+00
 -0.763243675184E+00
 -0.739026913807E+00
 -0.716170693153E+00
 -0.678703982102E+00
 -0.670266088667E+00
 -0.587026739069E+00
 -0.590641221249E+00
 -0.480118139271E+00
 -0.491930299659E+00
 -0.396960250903E+00
 -0.384707940310E+00
 -0.310263241382E+00
 -0.294916840430E+00
 -0.231141451540E+00
 -0.213691465913E+00
 -0.160181604772E+00
 -0.142165241276E+00
 -0.958372334451E-01
 -0.797662985832E-01
 -0.383550571714E-01
 -0.262682383055E-01
  0.118359113644E-01
  0.197994168906E-01
  0.570565193349E-01
  0.616255911264E-01
  0.102406584071E+00
  0.103754580059E+00
  0.173204069228E+00
  0.169284067799E+00
  0.195214272550E+00
  0.195525652865E+00
  0.153056502844E+00
  0.153696065542E+00
  0.138710599406E+00
  0.139795184186E+00
  0.129063708272E+00
  0.130414745031E+00
  0.121488329175E+00
  0.122749614283E+00
  0.114415828691E+00
  0.115109343158E+00
  0.106705357604E+00
  0.106586593716E+00
  0.975599625430E-01
  0.969361434729E-01
  0.871930963931E-01
  0.865854348117E-01
  0.786106758951E-01
  0.784127802736E-01
  0.760776646373E-01
  0.755766255005E-01
  0.834339646520E-01
  0.821585105249E-01
  0.115808113345E+00
  0.114172520145E+00
  0.176649201440E+00
  0.175530822198E+00
  0.249927923955E+00
  0.250273465474E+00
  0.330361224563E+00
  0.332724008288E+00
  0.420498377048E+00
  0.424106381702E+00
  0.511124912797E+00
  0.511490180128E+00
  0.523175567948E+00
  0.501893948838E+00
  0.612947433497E-02
 -0.892236011032E-01
 -0.132428739833E+01
 -0.117573150559E+01
 -0.155267686260E+01
 -0.141273092137E+01
 -0.133749257242E+01
 -0.123242657525E+01
 -0.110328358538E+01
 -0.102782195267E+01
 -0.948760264051E+00
 -0.894915028261E+00
 -0.838404386435E+00
 -0.802365156401E+00
 -0.762735597745E+00
 -0.741871649357E+00
 -0.691302697982E+00
 -0.683930507392E+00
 -0.589377133917E+00
 -0.593423255982E+00
 -0.474228590531E+00
 -0.486185507636E+00
 -0.385420120843E+00
 -0.373159591365E+00
 -0.294907260193E+00
 -0.279877264018E+00
 -0.213466188886E+00
 -0.197255151114E+00
 -0.141986341591E+00
 -0.126788000987E+00
 -0.797424295254E-01
 -0.675547331594E-01
 -0.263961640288E-01
 -0.178071144225E-01
  0.195640922228E-01
  0.250564773619E-01
  0.613171405951E-01
  0.644669817076E-01
  0.103417387401E+00
  0.104940568789E+00
  0.169085473039E+00
  0.169709201920E+00
  0.191369186219E+00
  0.194823222406E+00
  0.151144609553E+00
  0.152846190679E+00
  0.137240412108E+00
  0.138560421098E+00
  0.127667375008E+00
  0.128949357451E+00
  0.120146687730E+00
  0.121398266790E+00
  0.113323837632E+00
  0.114345942222E+00
  0.106164323468E+00
  0.106657160208E+00
  0.976619675939E-01
  0.975386534966E-01
  0.876653851457E-01
  0.872012285589E-01
  0.790796997862E-01
  0.786422429400E-01
  0.756297125409E-01
  0.758195258276E-01
  0.822292164621E-01
  0.821642020507E-01
  0.114091613312E+00
  0.114119745767E+00
  0.174956774721E+00
  0.175689000981E+00
  0.248986168613E+00
  0.251038174114E+00
  0.330745152550E+00
  0.334348430858E+00
  0.421754717843E+00
  0.425874267064E+00
  0.509801559249E+00
  0.509839494184E+00
  0.504195863790E+00
  0.482348406967E+00
 -0.779971745793E-01
 -0.171094564007E+00
 -0.147280688064E+01
 -0.132865336147E+01
 -0.167627342787E+01
 -0.154464657377E+01
 -0.142722735740E+01
 -0.132997563986E+01
 -0.116788088464E+01
 -0.109876077123E+01
 -0.995926814755E+00
 -0.947057488733E+00
 -0.871715638979E+00
 -0.839369537092E+00
 -0.784515649332E+00
 -0.766175729117E+00
 -0.702747425216E+00
 -0.696857164076E+00
 -0.591262265080E+00
 -0.595929914533E+00
 -0.468423743665E+00
 -0.480375233587E+00
 -0.374008658173E+00
 -0.362086298340E+00
 -0.279971107944E+00
 -0.266067451907E+00
 -0.197115999456E+00
 -0.183254418523E+00
 -0.126680609517E+00
 -0.114817304977E+00
 -0.675508443407E-01
 -0.586104432706E-01
 -0.178804979749E-01
 -0.116410048982E-01
  0.249495723194E-01
  0.292273648854E-01
  0.643646840816E-01
  0.675007388614E-01
  0.104880221777E+00
  0.107779009516E+00
  0.169744078071E+00
  0.174179743548E+00
  0.192700672349E+00
  0.191157025647E+00
  0.150753408068E+00
  0.150969463807E+00
  0.136277553358E+00
  0.137091390237E+00
  0.126482826002E+00
  0.127544209064E+00
  0.118905701649E+00
  0.120045865167E+00
  0.112178888609E+00
  0.113242680361E+00
  0.105325668482E+00
  0.106102730156E+00
  0.973423466252E-01
  0.976248639445E-01
  0.878884476417E-01
  0.876597258335E-01
  0.796579758939E-01
  0.791042274871E-01
  0.758528174990E-01
  0.765855763784E-01
  0.821946361815E-01
  0.831326349295E-01
  0.114031060472E+00
  0.115422799992E+00
  0.175279866642E+00
  0.177487742932E+00
  0.250219488405E+00
  0.253590617884E+00
  0.333224385089E+00
  0.337743690992E+00
  0.424812037381E+00
  0.429247652172E+00
  0.509845455828E+00
  0.509551668957E+00
  0.486397105170E+00
  0.464236424498E+00
 -0.159372777197E+00
 -0.249677121758E+00
 -0.161404929858E+01
 -0.147564684409E+01
 -0.179252916930E+01
 -0.166997391085E+01
 -0.151071752526E+01
 -0.142180855219E+01
 -0.122734801379E+01
 -0.116504286128E+01
 -0.103893992929E+01
 -0.995486091938E+00
 -0.901821272098E+00
 -0.873543167627E+00
 -0.803979080782E+00
 -0.788464072771E+00
 -0.712729711014E+00
 -0.708490617978E+00
 -0.592554530245E+00
 -0.597758442978E+00
 -0.462876978911E+00
 -0.474368077511E+00
 -0.363007573453E+00
 -0.352043533012E+00
 -0.266259822702E+00
 -0.254347594369E+00
 -0.183217833964E+00
 -0.172252652737E+00
 -0.114777937287E+00
 -0.105945095275E+00
 -0.586108545288E-01
 -0.520681519409E-01
 -0.116578434517E-01
 -0.696153711817E-02
  0.292196477688E-01
  0.325754806373E-01
  0.675096078780E-01
  0.698045567997E-01
  0.107779338856E+00
  0.108930270237E+00
  0.174039485058E+00
  0.173082200339E+00
  0.192769744004E+00
  0.192352089034E+00
  0.150533724037E+00
  0.150554438239E+00
  0.135742887582E+00
  0.136121131409E+00
  0.125688020869E+00
  0.126352356733E+00
  0.117937482507E+00
  0.118795054660E+00
  0.111167464415E+00
  0.112086058672E+00
  0.104450666916E+00
  0.105250714173E+00
  0.968189512692E-01
  0.972891831827E-01
  0.878915678524E-01
  0.878649889908E-01
  0.802244455195E-01
  0.796661969907E-01
  0.766025053826E-01
  0.776824263470E-01
  0.831380085915E-01
  0.848096721787E-01
  0.115342563339E+00
  0.117753748749E+00
  0.177224574029E+00
  0.180521274197E+00
  0.253147955417E+00
  0.257458183612E+00
  0.337279737728E+00
  0.342399187480E+00
  0.429153313838E+00
  0.433713592775E+00
  0.510788156943E+00
  0.510165829224E+00
  0.469451273063E+00
  0.447293521206E+00
 -0.237872651780E+00
 -0.324561345770E+00
 -0.174691031678E+01
 -0.161582914379E+01
 -0.190046137125E+01
 -0.178781705404E+01
 -0.158728688080E+01
 -0.150714919124E+01
 -0.128123731732E+01
 -0.122598627136E+01
 -0.107746850456E+01
 -0.103958332738E+01
 -0.928466460558E+00
 -0.904343297859E+00
 -0.820943537551E+00
 -0.808253218689E+00
 -0.721188953878E+00
 -0.718439122903E+00
 -0.593399804163E+00
 -0.598718966125E+00
 -0.458005194748E+00
 -0.468311374908E+00
 -0.352990792767E+00
 -0.343668101472E+00
 -0.254636343230E+00
 -0.245213677394E+00
 -0.172316809237E+00
 -0.164139961700E+00
 -0.105960794252E+00
 -0.995537178915E-01
 -0.520677562950E-01
 -0.473179252191E-01
 -0.693611563481E-02
 -0.351872770011E-02
  0.326349099770E-01
  0.350269543439E-01
  0.699043158741E-01
  0.715219643351E-01
  0.109088396043E+00
  0.110121417419E+00
  0.173397781999E+00
  0.174049368377E+00
  0.192977697238E+00
  0.192419126770E+00
  0.150350967980E+00
  0.150314357370E+00
  0.135331833254E+00
  0.135568684229E+00
  0.125101877641E+00
  0.125543574854E+00
  0.117216204302E+00
  0.117814760989E+00
  0.110374500438E+00
  0.111062602971E+00
  0.103701571689E+00
  0.104362556924E+00
  0.962923906517E-01
  0.967503402896E-01
  0.877992520361E-01
  0.878493734014E-01
  0.807419625556E-01
  0.802112698930E-01
  0.776837290595E-01
  0.789322296837E-01
  0.847989578229E-01
  0.869151822957E-01
  0.117686536686E+00
  0.120753460631E+00
  0.180371766935E+00
  0.184367039688E+00
  0.257291479471E+00
  0.262170379273E+00
  0.342405024542E+00
  0.347820398025E+00
  0.434287420352E+00
  0.438790871045E+00
  0.512210526417E+00
  0.511280606383E+00
  0.453147486046E+00
  0.431372451061E+00
 -0.313076418427E+00
 -0.395159888335E+00
 -0.187019980426E+01
 -0.174798080998E+01
 -0.199917367670E+01
 -0.189712262507E+01
 -0.165640750120E+01
 -0.158523767827E+01
 -0.132928118569E+01
 -0.128104646855E+01
 -0.111139129342E+01
 -0.107891941507E+01
 -0.951629784508E+00
 -0.931423795723E+00
 -0.835489775648E+00
 -0.825279285683E+00
 -0.728340760275E+00
 -0.726579481839E+00
 -0.594172877389E+00
 -0.598937773200E+00
 -0.454275813736E+00
 -0.462673243363E+00
 -0.344618379337E+00
 -0.337358022281E+00
 -0.245589847348E+00
 -0.238641748258E+00
 -0.164288717092E+00
 -0.158450282214E+00
 -0.996117917035E-01
 -0.950737374933E-01
 -0.473183204815E-01
 -0.439290646910E-01
 -0.346320305247E-02
 -0.965312750750E-03
  0.351433008304E-01
  0.369938865571E-01
  0.717073970374E-01
  0.730913554140E-01
  0.110390271342E+00
  0.111406507546E+00
  0.174463709588E+00
  0.175113752265E+00
  0.192074526782E+00
  0.192596362299E+00
  0.149842751834E+00
  0.150113517667E+00
  0.134874738798E+00
  0.135142205173E+00
  0.124598437061E+00
  0.124943231433E+00
  0.116648584878E+00
  0.117080195344E+00
  0.109768427565E+00
  0.110256921381E+00
  0.103126555087E+00
  0.103600553716E+00
  0.958772341720E-01
  0.962093946864E-01
  0.877342753586E-01
  0.877394538808E-01
  0.812457029447E-01
  0.807066747523E-01
  0.789175252714E-01
  0.802255658289E-01
  0.868920491832E-01
  0.892029508021E-01
  0.120695799799E+00
  0.124077342622E+00
  0.184293029405E+00
  0.188618275883E+00
  0.262182110030E+00
  0.267283523533E+00
  0.348121262646E+00
  0.353552380561E+00
  0.439764430783E+00
  0.444051308838E+00
  0.513757369418E+00
  0.512563740804E+00
  0.437393047512E+00
  0.416412284328E+00
 -0.384370812526E+00
 -0.460848059134E+00
 -0.198289080062E+01
 -0.187081833661E+01
 -0.208805966654E+01
 -0.199693812102E+01
 -0.171784200385E+01
 -0.165549140532E+01
 -0.137147893935E+01
 -0.132989702221E+01
 -0.114085507949E+01
 -0.111331311776E+01
 -0.971555186709E+00
 -0.954709474680E+00
 -0.847950236280E+00
 -0.839586474927E+00
 -0.734595385490E+00
 -0.733129234997E+00
 -0.595289409831E+00
 -0.598857754580E+00
 -0.451950475111E+00
 -0.458059127279E+00
 -0.338300908852E+00
 -0.333116763375E+00
 -0.239086947621E+00
 -0.234260331165E+00
 -0.158663379217E+00
 -0.154641643966E+00
 -0.951653692760E-01
 -0.920051926934E-01