# vtk DataFile Version 3.0
MachLine results file. Generated by MachLine, USU AeroLab (c) 2022.
ASCII
DATASET POLYDATA
POINTS                7064 float
  0.000000000000E+00  0.000000000000E+00  0.000000000000E+00
  0.389988087118E-01  0.000000000000E+00 -0.109218262136E+00
  0.389988087118E-01  0.000000000000E+00  0.109218262136E+00
  0.147665724158E+00  0.000000000000E+00 -0.234920635819E+00
  0.147665724158E+00  0.000000000000E+00  0.234920635819E+00
  0.161138445139E+00  0.161138445139E+00  0.000000000000E+00
  0.200137257576E+00  0.161138445139E+00 -0.109218269587E+00
  0.200137257576E+00  0.161138445139E+00  0.109218269587E+00
  0.290265858173E+00  0.000000000000E+00 -0.347333192825E+00
  0.290265858173E+00  0.000000000000E+00  0.347333192825E+00
  0.308804154396E+00  0.161138445139E+00 -0.234920650721E+00
  0.308804154396E+00  0.161138445139E+00  0.234920650721E+00
  0.335006117821E+00  0.335006117821E+00  0.000000000000E+00
  0.374004930258E+00  0.335006117821E+00 -0.109218277037E+00
  0.374004930258E+00  0.335006117821E+00  0.109218277037E+00
  0.451404303312E+00  0.161138445139E+00 -0.347333222628E+00
  0.451404303312E+00  0.161138445139E+00  0.347333222628E+00
  0.473465979099E+00  0.000000000000E+00 -0.436293870211E+00
  0.473465979099E+00  0.000000000000E+00  0.436293870211E+00
  0.482671856880E+00  0.335006117821E+00 -0.234920650721E+00
  0.482671856880E+00  0.335006117821E+00  0.234920650721E+00
  0.522506594658E+00  0.522506594658E+00  0.000000000000E+00
  0.561505436897E+00  0.522506594658E+00 -0.109218284488E+00
  0.561505436897E+00  0.522506594658E+00  0.109218284488E+00
  0.625271975994E+00  0.335006117821E+00 -0.347333222628E+00
  0.625271975994E+00  0.335006117821E+00  0.347333222628E+00
  0.634604454041E+00  0.161138445139E+00 -0.436293900013E+00
  0.634604454041E+00  0.161138445139E+00  0.436293900013E+00
  0.670172333717E+00  0.522506594658E+00 -0.234920665622E+00
  0.670172333717E+00  0.522506594658E+00  0.234920665622E+00
  0.689334988594E+00  0.000000000000E+00 -0.522850036621E+00
  0.689334988594E+00  0.000000000000E+00  0.522850036621E+00
  0.724590361118E+00  0.724590361118E+00  0.000000000000E+00
  0.763589203358E+00  0.724590361118E+00 -0.109218291938E+00
  0.763589203358E+00  0.724590361118E+00  0.109218291938E+00
  0.808472156525E+00  0.335006117821E+00 -0.436293929815E+00
  0.808472156525E+00  0.335006117821E+00  0.436293929815E+00
  0.812772512436E+00  0.522506594658E+00 -0.347333252430E+00
  0.812772512436E+00  0.522506594658E+00  0.347333252430E+00
  0.850473463535E+00  0.161138445139E+00 -0.522850036621E+00
  0.850473463535E+00  0.161138445139E+00  0.522850036621E+00
  0.872256100178E+00  0.724590361118E+00 -0.234920680523E+00
  0.872256100178E+00  0.724590361118E+00  0.234920680523E+00
  0.942254066467E+00  0.942254066467E+00  0.000000000000E+00
  0.944064557552E+00  0.000000000000E+00 -0.604293465614E+00
  0.944064557552E+00  0.000000000000E+00  0.604293465614E+00
  0.981252849102E+00  0.942254066467E+00 -0.109218299389E+00
  0.981252849102E+00  0.942254066467E+00  0.109218299389E+00
  0.995972692966E+00  0.522506594658E+00 -0.436293959618E+00
  0.995972692966E+00  0.522506594658E+00  0.436293959618E+00
  0.101485633850E+01  0.724590361118E+00 -0.347333282232E+00
  0.101485633850E+01  0.724590361118E+00  0.347333282232E+00
  0.102434122562E+01  0.335006117821E+00 -0.522850096226E+00
  0.102434122562E+01  0.335006117821E+00  0.522850096226E+00
  0.108991980553E+01  0.942254066467E+00 -0.234920710325E+00
  0.108991980553E+01  0.942254066467E+00  0.234920710325E+00
  0.110520303249E+01  0.161138445139E+00 -0.604293525219E+00
  0.110520303249E+01  0.161138445139E+00  0.604293525219E+00
  0.117653930187E+01  0.117653930187E+01  0.000000000000E+00
  0.119805645943E+01  0.724590361118E+00 -0.436293989420E+00
  0.119805645943E+01  0.724590361118E+00  0.436293989420E+00
  0.121184170246E+01  0.522506594658E+00 -0.522850096226E+00
  0.121184170246E+01  0.522506594658E+00  0.522850096226E+00
  0.121553814411E+01  0.117653930187E+01 -0.109218306839E+00
  0.121553814411E+01  0.117653930187E+01  0.109218306839E+00
  0.123251998425E+01  0.942254066467E+00 -0.347333312035E+00
  0.123251998425E+01  0.942254066467E+00  0.347333312035E+00
  0.123833239079E+01  0.000000000000E+00 -0.683996438980E+00
  0.123833239079E+01  0.000000000000E+00  0.683996438980E+00
  0.127907073498E+01  0.335006117821E+00 -0.604293525219E+00
  0.127907073498E+01  0.335006117821E+00  0.604293525219E+00
  0.132420504093E+01  0.117653930187E+01 -0.234920725226E+00
  0.132420504093E+01  0.117653930187E+01  0.234920725226E+00
  0.139947092533E+01  0.161138445139E+00 -0.683996498585E+00
  0.139947092533E+01  0.161138445139E+00  0.683996498585E+00
  0.141392552853E+01  0.724590361118E+00 -0.522850155830E+00
  0.141392552853E+01  0.724590361118E+00  0.522850155830E+00
  0.141572022438E+01  0.942254066467E+00 -0.436294019222E+00
  0.141572022438E+01  0.942254066467E+00  0.436294019222E+00
  0.142853081226E+01  0.142853081226E+01  0.000000000000E+00
  0.146657133102E+01  0.522506594658E+00 -0.604293584824E+00
  0.146657133102E+01  0.522506594658E+00  0.604293584824E+00
  0.146680521965E+01  0.117653930187E+01 -0.347333341837E+00
  0.146680521965E+01  0.117653930187E+01  0.347333341837E+00
  0.146752965450E+01  0.142853081226E+01 -0.109218314290E+00
  0.146752965450E+01  0.142853081226E+01  0.109218314290E+00
  0.157333862782E+01  0.335006117821E+00 -0.683996558189E+00
  0.157333862782E+01  0.335006117821E+00  0.683996558189E+00
  0.157619655132E+01  0.142853081226E+01 -0.234920740128E+00
  0.157619655132E+01  0.142853081226E+01  0.234920740128E+00
  0.157641971111E+01  0.000000000000E+00 -0.760520398617E+00
  0.157641971111E+01  0.000000000000E+00  0.760520398617E+00
  0.163158929348E+01  0.942254066467E+00 -0.522850155830E+00
  0.163158929348E+01  0.942254066467E+00  0.522850155830E+00
  0.165000545979E+01  0.117653930187E+01 -0.436294049025E+00
  0.165000545979E+01  0.117653930187E+01  0.436294049025E+00
  0.166865515709E+01  0.724590361118E+00 -0.604293584824E+00
  0.166865515709E+01  0.724590361118E+00  0.604293584824E+00
  0.169935321808E+01  0.169935321808E+01  0.000000000000E+00
  0.171879673004E+01  0.142853081226E+01 -0.347333371639E+00
  0.171879673004E+01  0.142853081226E+01  0.347333371639E+00
  0.173755824566E+01  0.161138445139E+00 -0.760520458221E+00
  0.173755824566E+01  0.161138445139E+00  0.760520458221E+00
  0.173835194111E+01  0.169935321808E+01 -0.109218329191E+00
  0.173835194111E+01  0.169935321808E+01  0.109218329191E+00
  0.176083922386E+01  0.522506594658E+00 -0.683996558189E+00
  0.176083922386E+01  0.522506594658E+00  0.683996558189E+00
  0.184701895714E+01  0.169935321808E+01 -0.234920755029E+00
  0.184701895714E+01  0.169935321808E+01  0.234920755029E+00
  0.186587452888E+01  0.117653930187E+01 -0.522850215435E+00
  0.186587452888E+01  0.117653930187E+01  0.522850215435E+00
  0.188631892204E+01  0.942254066467E+00 -0.604293644428E+00
  0.188631892204E+01  0.942254066467E+00  0.604293644428E+00
  0.190199697018E+01  0.142853081226E+01 -0.436294078827E+00
  0.190199697018E+01  0.142853081226E+01  0.436294078827E+00
  0.191142594814E+01  0.335006117821E+00 -0.760520458221E+00
  0.191142594814E+01  0.335006117821E+00  0.760520458221E+00
  0.196138751507E+01  0.000000000000E+00 -0.833668828011E+00
  0.196138751507E+01  0.000000000000E+00  0.833668828011E+00
  0.196292304993E+01  0.724590361118E+00 -0.683996617794E+00
  0.196292304993E+01  0.724590361118E+00  0.683996617794E+00
  0.198961913586E+01  0.169935321808E+01 -0.347333401442E+00
  0.198961913586E+01  0.169935321808E+01  0.347333401442E+00
  0.199016737938E+01  0.199016737938E+01  0.000000000000E+00
  0.202916622162E+01  0.199016737938E+01 -0.109218336642E+00
  0.202916622162E+01  0.199016737938E+01  0.109218336642E+00
  0.209892654419E+01  0.522506594658E+00 -0.760520517826E+00
  0.209892654419E+01  0.522506594658E+00  0.760520517826E+00
  0.211786603928E+01  0.142853081226E+01 -0.522850275040E+00
  0.211786603928E+01  0.142853081226E+01  0.522850275040E+00
  0.212060427666E+01  0.117653930187E+01 -0.604293704033E+00
  0.212060427666E+01  0.117653930187E+01  0.604293704033E+00
  0.212252616882E+01  0.161138445139E+00 -0.833668828011E+00
  0.212252616882E+01  0.161138445139E+00  0.833668828011E+00
  0.213783311844E+01  0.199016737938E+01 -0.234920784831E+00
  0.213783311844E+01  0.199016737938E+01  0.234920784831E+00
  0.217281937599E+01  0.169935321808E+01 -0.436294138432E+00
  0.217281937599E+01  0.169935321808E+01  0.436294138432E+00
  0.218058681488E+01  0.942254066467E+00 -0.683996677399E+00
  0.218058681488E+01  0.942254066467E+00  0.683996677399E+00
  0.228043341637E+01  0.199016737938E+01 -0.347333431244E+00
  0.228043341637E+01  0.199016737938E+01  0.347333431244E+00
  0.229639387131E+01  0.335006117821E+00 -0.833668887615E+00
  0.229639387131E+01  0.335006117821E+00  0.833668887615E+00
  0.230101037025E+01  0.724590361118E+00 -0.760520577431E+00
  0.230101037025E+01  0.724590361118E+00  0.760520577431E+00
  0.230216526985E+01  0.230216526985E+01  0.000000000000E+00
  0.234116411209E+01  0.230216526985E+01 -0.109218344092E+00
  0.234116411209E+01  0.230216526985E+01  0.109218344092E+00
  0.237259578705E+01  0.142853081226E+01 -0.604293763638E+00
  0.237259578705E+01  0.142853081226E+01  0.604293763638E+00
  0.238868856430E+01  0.169935321808E+01 -0.522850275040E+00
  0.238868856430E+01  0.169935321808E+01  0.522850275040E+00
  0.239635515213E+01  0.000000000000E+00 -0.902061045170E+00
  0.239635515213E+01  0.000000000000E+00  0.902061045170E+00
  0.241487216949E+01  0.117653930187E+01 -0.683996737003E+00
  0.241487216949E+01  0.117653930187E+01  0.683996737003E+00
  0.244983124733E+01  0.230216526985E+01 -0.234920799732E+00
  0.244983124733E+01  0.230216526985E+01  0.234920799732E+00
  0.246363353729E+01  0.199016737938E+01 -0.436294168234E+00
  0.246363353729E+01  0.199016737938E+01  0.436294168234E+00
[...]
CELL_DATA               13888
SCALARS C_p_inc float 1
LOOKUP_TABLE default
  0.309460525650E+00
  0.255177289011E+00
  0.221118563200E+00
  0.190556619309E+00
  0.184567951457E+00
  0.167627071240E+00
  0.163464736513E+00
  0.153532013827E+00
  0.149846248975E+00
  0.143467956394E+00
  0.140046192405E+00
  0.135678004162E+00
  0.132488269465E+00
  0.129359700127E+00
  0.126373969224E+00
  0.124039484444E+00
  0.121149273694E+00
  0.119297373787E+00
  0.116289070626E+00
  0.114690276562E+00
  0.111631178111E+00
  0.110265837785E+00
  0.107500288389E+00
  0.106418875676E+00
  0.103832187127E+00
  0.102880896379E+00
  0.995656953965E-01
  0.984273306635E-01
  0.954939229103E-01
  0.946571534937E-01
  0.917666056847E-01
  0.908681930186E-01
  0.868651041905E-01
  0.856813479872E-01
  0.844055361236E-01
  0.842125562619E-01
  0.832390263157E-01
  0.827241296188E-01
  0.847283517294E-01
  0.852981012013E-01
  0.888147076962E-01
  0.883406635669E-01
  0.965658790115E-01
  0.949113855323E-01
  0.109711108004E+00
  0.106955744108E+00
  0.124290365525E+00
  0.121009457119E+00
  0.153448802753E+00
  0.145976129096E+00
  0.190267300478E+00
  0.181566635387E+00
  0.229453513193E+00
  0.219628127246E+00
  0.270209761652E+00
  0.259372014346E+00
  0.311466035177E+00
  0.299798197654E+00
  0.352087618615E+00
  0.339573230317E+00
  0.394710448911E+00
  0.380218799052E+00
  0.442328879705E+00
  0.425323569222E+00
  0.494223044238E+00
  0.475256697209E+00
  0.551822626993E+00
  0.531013420004E+00
  0.613050865449E+00
  0.591886049098E+00
  0.684322989755E+00
  0.664243689654E+00
  0.758457718340E+00
  0.745281188245E+00
  0.834263596438E+00
  0.839636453232E+00
  0.854665490474E+00
  0.856986125475E+00
  0.723793006358E+00
  0.604042982844E+00
  0.137236012498E+00
  0.346931527547E+00
 -0.195740137106E+00
  0.427698416064E-01
 -0.472744721638E+00
 -0.217636343949E+00
 -0.575874269072E+00
 -0.408000282635E+00
 -0.556661555402E+00
 -0.447956515180E+00
 -0.567935272238E+00
 -0.501152280101E+00
 -0.571105402392E+00
 -0.524161424370E+00
 -0.581262737021E+00
 -0.549634372500E+00
 -0.588265482242E+00
 -0.566170099049E+00
 -0.592235593229E+00
 -0.578303052777E+00
 -0.592783484585E+00
 -0.583564839497E+00
 -0.597006025526E+00
 -0.588961233460E+00
 -0.605741290765E+00
 -0.598933209977E+00
 -0.614541779671E+00
 -0.609365523844E+00
 -0.621031006498E+00
 -0.617617291898E+00
 -0.623872975629E+00
 -0.622305453769E+00
 -0.608758191241E+00
 -0.614381284112E+00
 -0.577708252214E+00
 -0.583084477849E+00
 -0.547429885138E+00
 -0.553825981468E+00
 -0.511771978220E+00
 -0.519336557265E+00
 -0.481580959348E+00
 -0.475025065894E+00
 -0.446043816490E+00
 -0.438249476584E+00
 -0.407413570034E+00
 -0.400505330444E+00
 -0.371895381777E+00
 -0.363794800681E+00
 -0.333666848034E+00
 -0.326211508680E+00
 -0.300103178178E+00
 -0.292844855114E+00
 -0.268801389995E+00
 -0.261145252957E+00
 -0.238552221614E+00
 -0.231103405368E+00
 -0.211346752480E+00
 -0.203582220568E+00
 -0.185294988868E+00
 -0.176942148269E+00
 -0.159915314623E+00
 -0.150973644962E+00
 -0.135607455458E+00
 -0.125974729427E+00
 -0.112309406886E+00
 -0.101617078316E+00
 -0.893696072779E-01
 -0.771642898413E-01
 -0.662292274298E-01
 -0.519302608625E-01
 -0.423471619394E-01
 -0.250805571533E-01
 -0.169533496164E-01
  0.476814060726E-02
  0.113796599519E-01
  0.401662259558E-01
  0.457393273268E-01
  0.824528015395E-01
  0.109311280025E+00
  0.124981643884E+00
  0.278786415108E+00
  0.304321057501E+00
  0.221162112003E+00
  0.220414134823E+00
  0.193852314277E+00
  0.184421730867E+00
  0.172695589095E+00
  0.163420799412E+00
  0.156721985041E+00
  0.149827628213E+00
  0.144940911405E+00
  0.140036473996E+00
  0.136021989815E+00
  0.132482488905E+00
  0.129000296511E+00
  0.126370163073E+00
  0.123183574942E+00
  0.121146624130E+00
  0.117950683521E+00
  0.116287480910E+00
  0.113021705354E+00
  0.111630625997E+00
  0.108646523325E+00
  0.107500266045E+00
  0.104825491703E+00
  0.103832406783E+00
  0.100543292411E+00
  0.995669055339E-01
  0.963194305045E-01
  0.954948490750E-01
  0.925409143424E-01
  0.917676468988E-01
  0.876216631988E-01
  0.868657937456E-01
  0.846336418011E-01
  0.843979652717E-01
  0.832924030407E-01
  0.832264557666E-01
  0.841169334976E-01
  0.847005582297E-01
  0.883261393142E-01
  0.873326315732E-01
  0.949071965277E-01
  0.929615162128E-01
  0.106972763413E+00
  0.103952923674E+00
  0.121042865459E+00
  0.116879548259E+00
  0.146121968347E+00
  0.139376083255E+00
  0.181706549722E+00
  0.173626792960E+00
  0.219697738702E+00
  0.210801632503E+00
  0.259280660794E+00
  0.249829105167E+00
  0.299430147371E+00
  0.289642253680E+00
  0.338815091277E+00
  0.328752712789E+00
  0.378822433631E+00
  0.368305622986E+00
  0.422665066560E+00
  0.411827297465E+00
  0.470342770697E+00
  0.459784540073E+00
  0.522033211661E+00
  0.512632471199E+00
  0.576182521300E+00
  0.568973852432E+00
  0.635330151000E+00
  0.631618171694E+00
  0.694290418423E+00
  0.693984486332E+00
  0.743161214459E+00
  0.739596928198E+00
  0.714236424615E+00
  0.685060674955E+00
  0.471613459927E+00
  0.371107871688E+00
 -0.865531361217E-01
  0.290272547566E-01
 -0.359767742965E+00
 -0.217839464922E+00
 -0.614063125077E+00
 -0.463241603601E+00
 -0.697235240819E+00
 -0.562940596789E+00
 -0.648836107614E+00
 -0.552222991951E+00
 -0.639579558207E+00
 -0.567562734145E+00
 -0.625010479010E+00
 -0.572235092149E+00
 -0.622064836731E+00
 -0.583156134159E+00
 -0.618605233799E+00
 -0.590314577897E+00
 -0.614385087855E+00
 -0.594235558882E+00
 -0.609127594883E+00
 -0.594448830332E+00
 -0.609832936659E+00
 -0.598304674312E+00
 -0.615996096259E+00
 -0.606862379196E+00
 -0.622417983521E+00
 -0.615588655329E+00
 -0.626511810340E+00
 -0.622057395647E+00
 -0.626425787249E+00
 -0.624976015593E+00
 -0.606593385257E+00
 -0.609908255034E+00
 -0.573821118512E+00
 -0.578543247445E+00
 -0.542152107437E+00
 -0.548112878671E+00
 -0.505377556069E+00
 -0.512295727673E+00
 -0.475009924380E+00
 -0.468715626580E+00
 -0.438182478719E+00
 -0.431203450383E+00
 -0.400450471594E+00
 -0.393471733202E+00
 -0.363720628733E+00
 -0.356161578413E+00
 -0.326158314520E+00
 -0.318696397148E+00
 -0.292803535514E+00
 -0.285315475648E+00
 -0.261110505315E+00
 -0.253379442050E+00
 -0.231080896773E+00
 -0.223219929102E+00
 -0.203565427835E+00
 -0.195313143114E+00
 -0.176931080622E+00
 -0.168092426935E+00
 -0.150969520429E+00
 -0.141434223704E+00
 -0.125976757310E+00
 -0.115535958167E+00
 -0.101624488316E+00
 -0.899247758725E-01
 -0.771782566953E-01
 -0.637645709511E-01
 -0.519539090734E-01
 -0.362434329891E-01
 -0.251208033544E-01
 -0.641508072296E-02
  0.469239539273E-02
  0.266815429873E-01
  0.399868527032E-01
  0.626441178809E-01
  0.819377858776E-01
  0.991075323173E-01
  0.124008640963E+00
  0.157863812709E+00
  0.251245826667E+00
  0.277972522358E+00
  0.210260942228E+00
  0.220341438461E+00
  0.191851402316E+00
  0.193460070035E+00
  0.175985750993E+00
  0.172542782264E+00
  0.161741832103E+00
  0.156660188806E+00
  0.149546838228E+00
  0.144911780875E+00
  0.139684909931E+00
  0.136006074695E+00
  0.131817826418E+00
  0.128990525248E+00
  0.125370416062E+00
  0.123177108814E+00
  0.119703086028E+00
  0.117946578136E+00
  0.114470190089E+00
  0.113019665712E+00
  0.109850290183E+00
  0.108645851798E+00
  0.105846406131E+00
  0.104825509784E+00
  0.101476105630E+00
  0.100544537458E+00
  0.971373453023E-01
  0.963214411634E-01
  0.932499883149E-01
  0.925430197743E-01
  0.882400508841E-01
  0.876232421650E-01
  0.848754619565E-01
  0.846266253062E-01
  0.832066748605E-01
  0.832765211136E-01
  0.834979368623E-01
  0.840797445953E-01
  0.873419810907E-01
  0.861856098276E-01
  0.930078416954E-01
  0.910235048471E-01
  0.104053361036E+00
  0.101024548479E+00
  0.117061406274E+00
  0.112853114260E+00
  0.139686539149E+00
  0.133623414730E+00
  0.173878364625E+00
  0.166485845225E+00
  0.210866723615E+00
  0.202826630072E+00
  0.249566772544E+00
  0.241225922077E+00
  0.288897547455E+00
  0.280518518738E+00
  0.327378326092E+00
  0.319123716387E+00
  0.366008928284E+00
  0.357991337268E+00
  0.407983993345E+00
  0.400455068749E+00
  0.453534701613E+00
  0.446965889284E+00
  0.502716481298E+00
  0.497741692256E+00
  0.553904615082E+00
  0.551009638100E+00
  0.608803866296E+00
  0.608122808529E+00
  0.661292461341E+00
  0.661061707514E+00
  0.696133804154E+00
  0.687641227568E+00
  0.638187890414E+00
  0.603424928623E+00
  0.337197878433E+00
  0.245836969363E+00
 -0.239353209202E+00
 -0.141288996134E+00
 -0.490898423012E+00
 -0.374528070994E+00
 -0.732698060416E+00
 -0.608034208822E+00
 -0.797966761019E+00
 -0.682666940579E+00
 -0.727948735242E+00
 -0.640019105959E+00
 -0.703431589911E+00
 -0.634049117616E+00
 -0.675502909375E+00
 -0.622208384932E+00
 -0.662025273524E+00
 -0.620946173705E+00
 -0.649703478856E+00
 -0.618574925804E+00
 -0.638360893052E+00
 -0.614976419325E+00
 -0.627720938627E+00
 -0.609937051098E+00
 -0.624575974501E+00
 -0.610666272346E+00
 -0.627742433529E+00
 -0.616877006263E+00
 -0.631458591564E+00
 -0.623402701443E+00
 -0.632834745937E+00
 -0.627659061885E+00
 -0.629369978613E+00
 -0.627880623322E+00
 -0.605841173700E+00
 -0.608232552400E+00
 -0.570891302635E+00
 -0.575203780839E+00
 -0.537586062373E+00
 -0.543362707549E+00
 -0.499654869616E+00
 -0.506366369071E+00
 -0.468658774504E+00
 -0.462548196005E+00
 -0.431090727412E+00
 -0.424394781201E+00
 -0.393356185617E+00
 -0.386340394806E+00
 -0.356042975657E+00
 -0.348593532111E+00
 -0.318604575287E+00
 -0.311069433415E+00
 -0.285240906759E+00
 -0.277537208255E+00
 -0.253321963863E+00
 -0.245370265784E+00
 -0.223178926547E+00
 -0.214944834838E+00
 -0.195282613628E+00
 -0.186566659469E+00
 -0.168073372023E+00
 -0.158717294737E+00
 -0.141427547827E+00
 -0.131276283240E+00
 -0.115540672561E+00
 -0.104348907782E+00
 -0.899415796934E-01
 -0.773873562815E-01
 -0.637981945585E-01
 -0.495494038501E-01
 -0.363050746503E-01
 -0.201720654009E-01
 -0.653157065536E-02
  0.110325672183E-01
  0.264434587175E-01
  0.436302239105E-01
  0.621614261473E-01
  0.773352652531E-01
  0.983123420736E-01
  0.114621461554E+00
  0.155808017010E+00
  0.185913168317E+00
  0.285989306666E+00
  0.252530042952E+00
  0.211792563897E+00
  0.210041171991E+00
  0.189098464492E+00
  0.191525721680E+00
  0.175021929423E+00
  0.175763257714E+00
  0.163347037785E+00
  0.161621918276E+00
  0.152562970876E+00
  0.149486360798E+00
  0.142855981380E+00
  0.139652822075E+00
  0.134575053113E+00
  0.131799182187E+00
  0.127620068847E+00
  0.125358722117E+00
  0.121525331507E+00
  0.119695775908E+00
  0.115970435326E+00
  0.114466219528E+00
  0.111099237526E+00
  0.109848576113E+00
  0.106895816287E+00
  0.105845968447E+00
  0.102393514224E+00
  0.101477281142E+00
  0.979409045355E-01
  0.971398528940E-01
  0.939193963819E-01
  0.932526210503E-01
  0.887781578969E-01
  0.882419370377E-01
  0.851177229732E-01
  0.848698876701E-01
  0.830642336908E-01
  0.831893452935E-01
  0.828865057471E-01
  0.834598522130E-01
  0.862116216604E-01
  0.850005973815E-01
  0.910945137682E-01
  0.891349310144E-01
  0.101159141203E+00
  0.982171119598E-01
  0.113081431612E+00
  0.109013891684E+00
  0.133942968919E+00
  0.128464877000E+00
  0.166708239719E+00
  0.160027841585E+00
  0.202792846653E+00
  0.195563782366E+00
  0.240777763244E+00
  0.233416793868E+00
  0.279494501902E+00
  0.272300733338E+00
  0.317376924819E+00
  0.310564560765E+00
  0.355267349435E+00
  0.349044417013E+00
  0.396255337069E+00
  0.390898721354E+00
  0.440655743826E+00
  0.436497919640E+00
  0.488508813558E+00
  0.485896098497E+00
  0.538072342693E+00
  0.537102116277E+00
  0.590342142959E+00
  0.590486025714E+00
  0.638126046058E+00
  0.636957730232E+00
  0.661429935940E+00
  0.650158318171E+00
  0.579799877640E+00
  0.543042647171E+00
  0.231650522294E+00
  0.145817184644E+00
 -0.367494400635E+00
 -0.277687044076E+00
 -0.604179673482E+00
 -0.500960422483E+00
 -0.837308158339E+00
 -0.726947132546E+00
 -0.888024434550E+00
 -0.784533817505E+00
 -0.799929356542E+00
 -0.718542864329E+00
 -0.762803152610E+00
 -0.696547122623E+00
 -0.723732386944E+00
 -0.671180191878E+00
 -0.701259431515E+00
 -0.659486984254E+00
 -0.681237271225E+00
 -0.648490763158E+00
 -0.663531429091E+00
 -0.638024059561E+00
 -0.647778022557E+00
 -0.627890003629E+00
 -0.640690479819E+00
 -0.625035627495E+00
 -0.640649853088E+00
 -0.628443905357E+00
 -0.641425140720E+00
 -0.632422625111E+00
 -0.639790848829E+00
 -0.634122236539E+00
 -0.632810453812E+00
 -0.631110995025E+00
 -0.606010347983E+00
 -0.607774539147E+00
 -0.568657849196E+00
 -0.572645286767E+00
 -0.533559080680E+00
 -0.539173040850E+00
 -0.494386467680E+00
 -0.500990553040E+00
 -0.462496000967E+00
 -0.456538453102E+00
 -0.424270495517E+00
 -0.417723520433E+00
 -0.386192256672E+00
 -0.379158419534E+00
 -0.348444831917E+00
 -0.341016812248E+00
 -0.310947051435E+00
 -0.303304165299E+00
 -0.277434376270E+00
 -0.269525932389E+00
 -0.245289916496E+00
 -0.237077270295E+00
 -0.214884767408E+00
 -0.206276099866E+00
 -0.186521628124E+00
 -0.177356404548E+00
 -0.158688975108E+00
 -0.148822723965E+00
 -0.131266024142E+00
 -0.120531388831E+00
 -0.104357009877E+00
 -0.925470723334E-01
 -0.774176812843E-01
 -0.643641308919E-01
 -0.496134684253E-01
 -0.353636188378E-01
 -0.202950168044E-01
 -0.543782202873E-02
  0.108014134349E-01
  0.249237612210E-01
  0.432151318774E-01
  0.551099383413E-01
  0.766298261741E-01
  0.847829279843E-01
  0.113289507625E+00
  0.111486333672E+00
  0.181584962490E+00
  0.135480703653E+00
  0.258493469399E+00
  0.282657763522E+00
  0.207461346127E+00
  0.211298273590E+00
  0.187119257104E+00
  0.188844390011E+00
  0.173364498251E+00
  0.174821084102E+00
  0.162794184573E+00
  0.163201684484E+00
  0.153526274001E+00
  0.152472005298E+00
  0.144847598033E+00
  0.142803181040E+00
  0.136853385285E+00
  0.134544149110E+00
  0.129736729707E+00
  0.127601156121E+00
  0.123339936123E+00
  0.121513675781E+00
  0.117493335980E+00
  0.115963833509E+00
  0.112376461814E+00
  0.111095991165E+00
  0.107968413933E+00
  0.106894590778E+00
  0.103309093281E+00
  0.102394409798E+00
  0.987285134772E-01
  0.979436020459E-01
  0.945634527606E-01
  0.939224735980E-01
  0.892653528012E-01
  0.887805086223E-01
  0.853477641530E-01
  0.851137097408E-01
  0.829101650412E-01
  0.830475422134E-01
  0.822882028529E-01
  0.828502361525E-01
  0.850366797133E-01
  0.838371412487E-01
  0.892185866441E-01
  0.873178038798E-01
  0.983646124645E-01
  0.955675767215E-01
  0.109251683560E+00
  0.105421078163E+00
  0.128760592808E+00
  0.123800806234E+00
  0.160199680063E+00
  0.154250712389E+00
  0.195441011888E+00
  0.189017262163E+00
  0.232835530715E+00
  0.226388386380E+00
  0.271105520572E+00
  0.264957064374E+00
  0.308624811185E+00
  0.303010642093E+00
  0.346159193799E+00
  0.341311825860E+00
  0.386698251579E+00
  0.382874725556E+00
  0.430545806014E+00
  0.427962464894E+00
  0.477687010679E+00
  0.476472340679E+00
  0.526261137194E+00
  0.526245943524E+00
  0.576553684729E+00
  0.576845173764E+00
  0.620311169458E+00
  0.618198674111E+00
  0.633269621954E+00
  0.620305219830E+00
  0.530570507629E+00
  0.493137529455E+00
  0.140460903954E+00
  0.585503953290E-01
 -0.481955356664E+00
 -0.396641809460E+00
 -0.706637792973E+00
 -0.611304654333E+00
 -0.933029932038E+00
 -0.831731532569E+00
 -0.971145607482E+00
 -0.875737148266E+00
 -0.867034188863E+00
 -0.790681856074E+00
 -0.818923805380E+00
 -0.755515413328E+00
 -0.770119917246E+00
 -0.718686352276E+00
 -0.739747720022E+00
 -0.697889239195E+00
 -0.712880471387E+00
 -0.679211743679E+00
 -0.689372133617E+00
 -0.662491572235E+00
 -0.668737836880E+00
 -0.647429091473E+00
 -0.657709318520E+00
 -0.640826059070E+00
 -0.654356568503E+00
 -0.641193451329E+00
 -0.652031275020E+00
 -0.642382886789E+00
 -0.647186503755E+00
 -0.641223060689E+00
 -0.636787618224E+00
 -0.634775070174E+00
 -0.606876239244E+00
 -0.608175482680E+00
 -0.566997228057E+00
 -0.570710016116E+00
 -0.530007567368E+00
 -0.535454758663E+00
 -0.489471133804E+00
 -0.496020211211E+00
 -0.456518891188E+00
 -0.450698143298E+00
 -0.417607442795E+00
 -0.411138855944E+00
 -0.378997217954E+00
 -0.371961022572E+00
 -0.340850811164E+00
 -0.333398890848E+00
 -0.303159972950E+00
 -0.295388360532E+00
 -0.269401533144E+00
 -0.261288946828E+00
 -0.236977787723E+00
 -0.228484129188E+00
 -0.206199555858E+00
 -0.197222953125E+00
 -0.177298968224E+00
 -0.167709136489E+00
 -0.148786957812E+00
 -0.138459300219E+00
 -0.120519854292E+00
 -0.109329887129E+00
 -0.925627217614E-01
 -0.804429629786E-01
 -0.644158342960E-01
 -0.515054821758E-01
 -0.354712381204E-01
 -0.223262365198E-01
 -0.563552446735E-02
  0.669927053652E-02
  0.245903147764E-01
  0.349129294277E-01
  0.545906605918E-01
  0.618595703449E-01
  0.840391170545E-01
  0.877824855983E-01
  0.110753012614E+00
  0.114641273928E+00
  0.137337153987E+00
  0.166842955648E+00
  0.239981823608E+00
  0.258516945936E+00
  0.197012673310E+00
  0.206967112209E+00
  0.181548694833E+00
  0.186810451601E+00
  0.170248496651E+00
  0.173165399779E+00
  0.161062563124E+00
  0.162649871937E+00
  0.152985526927E+00
  0.153421720294E+00
  0.145457936993E+00
  0.144777297577E+00
  0.138258543892E+00
  0.136808768598E+00
  0.131440596613E+00
  0.129708768387E+00
  0.125001960002E+00
  0.123322600145E+00
  0.118974168142E+00
  0.117483217352E+00
  0.113650797789E+00
  0.112371079244E+00
  0.109050137914E+00
  0.107965974675E+00
  0.104225423855E+00
  0.103309431823E+00
  0.995034174246E-01
  0.987311662041E-01
  0.951902101693E-01
  0.945669314134E-01
  0.897217440391E-01
  0.892684509807E-01
  0.855652060366E-01
  0.853456045371E-01
  0.827695502469E-01
  0.828961437224E-01
  0.817176643100E-01
  0.822561322956E-01
  0.838791871989E-01
  0.827353545501E-01
  0.874076848540E-01
  0.856015735458E-01
  0.957170757384E-01
  0.931090589774E-01
  0.105650891830E+00
  0.102119658156E+00
  0.124063183132E+00
  0.119602531829E+00
  0.154369616034E+00
  0.149136939042E+00
  0.188824137970E+00
  0.183196630532E+00
  0.225721604414E+00
  0.220136249761E+00
  0.263674043080E+00
  0.258463244813E+00
  0.301002915540E+00
  0.296409754769E+00
  0.338429127204E+00
  0.334682107119E+00
  0.378853594430E+00
  0.376169958133E+00
  0.422518074458E+00
  0.421022658413E+00
  0.469305888819E+00
  0.468973557875E+00
  0.517215933852E+00
  0.517701036687E+00
  0.565835853800E+00
  0.566039684857E+00
  0.605854642252E+00
  0.602944818266E+00
  0.609137895294E+00
  0.595086410782E+00
  0.486912372445E+00
  0.449348157279E+00
  0.578129674466E-01
 -0.211712328460E-01
 -0.587870172489E+00
 -0.505166731954E+00
 -0.801976569594E+00
 -0.711780492469E+00
 -0.102269506045E+01
 -0.927622653036E+00
 -0.104940373342E+01
 -0.959889435367E+00
 -0.930596674437E+00
 -0.858198828683E+00
 -0.872572218682E+00
 -0.811646170026E+00
 -0.815010048177E+00
 -0.764777394929E+00
 -0.777539533880E+00
 -0.735916804305E+00
 -0.744459592625E+00
 -0.710337255543E+00
 -0.715564336930E+00
 -0.687852059935E+00
 -0.690249904577E+00
 -0.668018341504E+00
 -0.675316839287E+00
 -0.657605876183E+00
 -0.668589410351E+00
 -0.654789169854E+00
 -0.663045428038E+00
 -0.653004623944E+00
 -0.654897584941E+00
 -0.648747724820E+00
 -0.641229772731E+00
 -0.638911678842E+00
 -0.608273966855E+00
 -0.609226863186E+00
 -0.565806961445E+00
 -0.569290155964E+00
 -0.526863006762E+00
 -0.532158555396E+00
 -0.484841607710E+00
 -0.491363687735E+00
 -0.450729505035E+00
 -0.445018339824E+00
 -0.411044551604E+00
 -0.404615346284E+00
 -0.371802428425E+00
 -0.364761138949E+00
 -0.333226435984E+00
 -0.325719784452E+00
 -0.295230554728E+00
 -0.287318143274E+00
 -0.261149354481E+00
 -0.252828025370E+00
 -0.228369656488E+00
 -0.219593645266E+00
 -0.197133126534E+00
 -0.187813926232E+00
 -0.167642002232E+00
 -0.157684573490E+00
 -0.138418789734E+00
 -0.127748659773E+00
 -0.109320700104E+00
 -0.979304719616E-01
 -0.804717110919E-01
 -0.685278274773E-01
 -0.515859414392E-01
 -0.395644302473E-01
 -0.224812854904E-01
 -0.111766328594E-01