# vtk DataFile Version 3.0
MachLine results file. Generated by MachLine, USU AeroLab (c) 2022.
ASCII
DATASET POLYDATA
POINTS                 144 float
  0.312930634121E-04  0.000000000000E+00  0.387506237003E-20
  0.113539063053E+01  0.000000000000E+00 -0.658087935210E+00
  0.113539063053E+01  0.000000000000E+00  0.658087935210E+00
  0.192378249374E+01  0.192372498306E+01  0.118693775247E-20
  0.305914835645E+01  0.192374081896E+01 -0.658086193634E+00
  0.305914835645E+01  0.192374081896E+01  0.658086193634E+00
  0.423028253315E+01  0.000000000000E+00 -0.108742011765E+01
  0.423028253315E+01  0.000000000000E+00  0.108742011765E+01
  0.547037632114E+01  0.547028701656E+01  0.184311801238E-20
  0.615404028205E+01  0.192375045511E+01 -0.108741647537E+01
  0.615404028205E+01  0.192375045511E+01  0.108741647537E+01
  0.660573385881E+01  0.547031260802E+01 -0.658068469811E+00
  0.660573385881E+01  0.547031260802E+01  0.658068469811E+00
  0.939508564654E+01  0.000000000000E+00 -0.980702541365E+00
  0.939508564654E+01  0.000000000000E+00  0.980702541365E+00
  0.970062414602E+01  0.547032722042E+01 -0.108739780002E+01
  0.970062414602E+01  0.547032722042E+01  0.108739780002E+01
  0.113188445158E+02  0.192375687882E+01 -0.980693094219E+00
  0.113188445158E+02  0.192375687882E+01  0.980693094219E+00
  0.113820643673E+02  0.113819393863E+02  0.103177094566E-19
  0.125174139439E+02  0.113819753230E+02 -0.658047284009E+00
  0.125174139439E+02  0.113819753230E+02  0.658047284009E+00
  0.145401991734E+02  0.000000000000E+00 -0.479574165270E+00
  0.145401991734E+02  0.000000000000E+00  0.479574165270E+00
  0.148654325708E+02  0.547033565208E+01 -0.980679907908E+00
  0.148654325708E+02  0.547033565208E+01  0.980679907908E+00
  0.156123048447E+02  0.113819959977E+02 -0.108737528443E+01
  0.156123048447E+02  0.113819959977E+02  0.108737528443E+01
  0.164639622288E+02  0.192375787923E+01 -0.479572980793E+00
  0.164639622288E+02  0.192375787923E+01  0.479572980793E+00
  0.176505079470E+02  0.000000000000E+00 -0.144172424756E+00
  0.176505079470E+02  0.000000000000E+00  0.144172424756E+00
  0.189999778925E+02  0.000000000000E+00 -0.165542730925E-05
  0.195742705951E+02  0.192375720641E+01 -0.144166632792E+00
  0.195742705951E+02  0.192375720641E+01  0.144166632792E+00
  0.197562681851E+02  0.197561219516E+02  0.150902427192E-19
  0.200105551723E+02  0.547033748596E+01 -0.479557181615E+00
  0.200105551723E+02  0.547033748596E+01  0.479557181615E+00
  0.207771191273E+02  0.113820071544E+02 -0.980659764437E+00
  0.207771191273E+02  0.113820071544E+02  0.980659764437E+00
  0.208916146114E+02  0.197561629460E+02 -0.658032293233E+00
  0.208916146114E+02  0.197561629460E+02  0.658032293233E+00
  0.209237410836E+02  0.192377783745E+01 -0.254601661134E-05
  0.231208669354E+02  0.547033723104E+01 -0.144147288307E+00
  0.231208669354E+02  0.547033723104E+01  0.144147288307E+00
  0.239865086400E+02  0.197561881221E+02 -0.108735995859E+01
  0.239865086400E+02  0.197561881221E+02  0.108735995859E+01
  0.244703257500E+02  0.547037144337E+01 -0.420209809024E-05
  0.259222501778E+02  0.113820100762E+02 -0.479534889879E+00
  0.259222501778E+02  0.113820100762E+02  0.479534889879E+00
  0.290325693319E+02  0.113820100595E+02 -0.144123159709E+00
  0.290325693319E+02  0.113820100595E+02  0.144123159709E+00
  0.291513358854E+02  0.197562015750E+02 -0.980641566995E+00
  0.291513358854E+02  0.197562015750E+02  0.980641566995E+00
  0.292438739780E+02  0.292437358852E+02  0.570007673422E-20
  0.303792302038E+02  0.292437728021E+02 -0.658034298375E+00
  0.303792302038E+02  0.292437728021E+02  0.658034298375E+00
  0.303820150452E+02  0.113820592806E+02 -0.606459828689E-05
  0.334741318570E+02  0.292437979831E+02 -0.108736325854E+01
  0.334741318570E+02  0.292437979831E+02  0.108736325854E+01
  0.342964796805E+02  0.197562051036E+02 -0.479518310694E+00
  0.342964796805E+02  0.197562051036E+02  0.479518310694E+00
  0.374068082499E+02  0.197562052085E+02 -0.144105313513E+00
  0.374068082499E+02  0.197562052085E+02  0.144105313513E+00
  0.376180497188E+02  0.376179427128E+02  0.220844969606E-20
  0.386389740370E+02  0.292438117601E+02 -0.980639078250E+00
  0.386389740370E+02  0.292438117601E+02  0.980639078250E+00
  0.387534178424E+02  0.376179696393E+02 -0.658052759190E+00
  0.387534178424E+02  0.376179696393E+02  0.658052759190E+00
  0.387562492294E+02  0.197562629782E+02 -0.717453034836E-05
  0.418483373371E+02  0.376179903301E+02 -0.108738447037E+01
  0.418483373371E+02  0.376179903301E+02  0.108738447037E+01
  0.435297029672E+02  0.435296308340E+02 -0.148872652358E-20
  0.437841353047E+02  0.292438149822E+02 -0.479519620832E+00
  0.437841353047E+02  0.292438149822E+02  0.479519620832E+00
  0.446650848654E+02  0.435296478006E+02 -0.658076458324E+00
  0.446650848654E+02  0.435296478006E+02  0.658076458324E+00
  0.468944715132E+02  0.292438150774E+02 -0.144105707172E+00
  0.468944715132E+02  0.292438150774E+02  0.144105707172E+00
  0.470131928898E+02  0.376180021786E+02 -0.980656468792E+00
  0.470131928898E+02  0.376180021786E+02  0.980656468792E+00
  0.470762711240E+02  0.470762252138E+02 -0.189503762973E-20
  0.477600142238E+02  0.435296624425E+02 -0.108741098466E+01
  0.477600142238E+02  0.435296624425E+02  0.108741098466E+01
  0.482116561869E+02  0.470762352010E+02 -0.658095644386E+00
  0.482116561869E+02  0.470762352010E+02  0.658095644386E+00
  0.482439203362E+02  0.292438688182E+02 -0.674948747450E-05
  0.490000098337E+02  0.489999829894E+02  0.328552793022E-20
  0.501354069086E+02  0.489999871344E+02 -0.658111061843E+00
  0.501354069086E+02  0.489999871344E+02  0.658111061843E+00
  0.506007778866E+02  0.494653516704E+02 -0.465360197472E+00
  0.506007778866E+02  0.494653516704E+02  0.465360197472E+00
  0.507935375703E+02  0.496581169850E+02 -0.771259651005E-15
  0.513065943267E+02  0.470762448761E+02 -0.108743228644E+01
  0.513065943267E+02  0.470762448761E+02  0.108743228644E+01
  0.521583703386E+02  0.376180044784E+02 -0.479538356774E+00
  0.521583703386E+02  0.376180044784E+02  0.479538356774E+00
  0.529248840674E+02  0.435296714441E+02 -0.980682430110E+00
  0.529248840674E+02  0.435296714441E+02  0.980682430110E+00
  0.532303491166E+02  0.489999893063E+02 -0.108744779990E+01
  0.532303491166E+02  0.489999893063E+02  0.108744779990E+01
  0.539993229218E+02  0.497689436952E+02 -0.768946532731E+00
  0.539993229218E+02  0.497689436952E+02  0.768946532731E+00
  0.543178430301E+02  0.500874571974E+02 -0.157374059169E-15
  0.552687143289E+02  0.376180044211E+02 -0.144124171041E+00
  0.552687143289E+02  0.376180044211E+02  0.144124171041E+00
  0.564714741318E+02  0.470762515457E+02 -0.980703384050E+00
  0.564714741318E+02  0.470762515457E+02  0.980703384050E+00
  0.566181803863E+02  0.376180447422E+02 -0.512671807591E-05
  0.580700700039E+02  0.435296728856E+02 -0.479561446547E+00
  0.580700700039E+02  0.435296728856E+02  0.479561446547E+00
  0.583952342525E+02  0.489999966035E+02 -0.980715337112E+00
  0.583952342525E+02  0.489999966035E+02  0.980715337112E+00
  0.590887388161E+02  0.496934812578E+02 -0.693469805575E+00
  0.590887388161E+02  0.496934812578E+02  0.693469805575E+00
  0.593759966941E+02  0.499807194883E+02 -0.424930093259E-20
  0.611804219244E+02  0.435296725276E+02 -0.144148458102E+00
  0.611804219244E+02  0.435296725276E+02  0.144148458102E+00
  0.616166681578E+02  0.470762525270E+02 -0.479577866536E+00
  0.616166681578E+02  0.470762525270E+02  0.479577866536E+00
  0.625299026009E+02  0.435296982293E+02 -0.330981405380E-05
  0.635404285646E+02  0.489999966685E+02 -0.479587400581E+00
  0.635404285646E+02  0.489999966685E+02  0.479587400581E+00
  0.638795744263E+02  0.493391226712E+02 -0.339121163529E+00
  0.638795744263E+02  0.493391226712E+02  0.339121163529E+00
  0.640200547551E+02  0.494795968058E+02  0.296949892487E-15
  0.647270242582E+02  0.470762518038E+02 -0.144167179154E+00
  0.647270242582E+02  0.470762518038E+02  0.144167179154E+00
  0.660765195290E+02  0.470762667259E+02 -0.196051129310E-05
  0.666507849833E+02  0.489999978860E+02 -0.144179063945E+00
  0.666507849833E+02  0.489999978860E+02  0.144179063945E+00
  0.667527523879E+02  0.491019555434E+02 -0.101954743525E+00
  0.667527523879E+02  0.491019555434E+02  0.101954743525E+00
  0.667949891457E+02  0.491441877800E+02 -0.260490388611E-16
  0.680002928756E+02  0.489999838682E+02  0.822676812894E-21
  0.209237410836E+02  0.192377783745E+01  0.254601661134E-05
  0.189999778925E+02  0.000000000000E+00  0.165542730925E-05
  0.244703257500E+02  0.547037144337E+01  0.420209809024E-05
  0.387562492294E+02  0.197562629782E+02  0.717453034836E-05
  0.303820150452E+02  0.113820592806E+02  0.606459828689E-05
  0.660765195290E+02  0.470762667259E+02  0.196051129310E-05
  0.625299026009E+02  0.435296982293E+02  0.330981405380E-05
  0.566181803863E+02  0.376180447422E+02  0.512671807591E-05
  0.482439203362E+02  0.292438688182E+02  0.674948747450E-05
VERTICES                 144                 288
1                   0
1                   1
1                   2
1                   3
1                   4
1                   5
1                   6
1                   7
1                   8
1                   9
1                  10
1                  11
1                  12
1                  13
1                  14
1                  15
1                  16
1                  17
1                  18
1                  19
1                  20
1                  21
1                  22
1                  23
1                  24
1                  25
1                  26
1                  27
1                  28
1                  29
1                  30
1                  31
1                  32
1                  33
1                  34
1                  35
1                  36
1                  37
1                  38
1                  39
1                  40
1                  41
1                  42
1                  43
1                  44
1                  45
1                  46
1                  47
1                  48
1                  49
1                  50
1                  51
1                  52
1                  53
1                  54
1                  55
1                  56
1                  57
1                  58
1                  59
1                  60
1                  61
1                  62
1                  63
1                  64
1                  65
1                  66
1                  67
1                  68
1                  69
1                  70
1                  71
1                  72
1                  73
1                  74
1                  75
1                  76
1                  77
1                  78
1                  79
1                  80
1                  81
1                  82
1                  83
1                  84
1                  85
1                  86
1                  87
1                  88
1                  89
1                  90
1                  91
1                  92
1                  93
1                  94
1                  95
1                  96
1                  97
1                  98
1                  99
1                 100
1                 101
1                 102
1                 103
1                 104
1                 105
1                 106
1                 107
1                 108
1                 109
1                 110
1                 111
1                 112
1                 113
1                 114
1                 115
1                 116
1                 117
1                 118
1                 119
1                 120
1                 121
1                 122
1                 123
1                 124
1                 125
1                 126
1                 127
1                 128
1                 129
1                 130
1                 131
1                 132
1                 133
1                 134
1                 135
1                 136
1                 137
1                 138
1                 139
1                 140
1                 141
1                 142
1                 143
POINT_DATA                 144
SCALARS phi float 1
LOOKUP_TABLE default
 -0.309493361275E-04
 -0.102564775453E+01
 -0.122019093488E+01
 -0.190265140397E+01
 -0.292827492016E+01
 -0.312281758566E+01
 -0.402308560455E+01
 -0.434454745903E+01
 -0.541028896017E+01
 -0.592571307384E+01
 -0.624717385160E+01
 -0.643590686250E+01
 -0.663044428851E+01
 -0.914693167694E+01
 -0.943684580721E+01
 -0.943334353644E+01
 -0.975479879341E+01
 -0.110495611123E+02
 -0.113394724498E+02
 -0.112570422171E+02
 -0.122826553772E+02
 -0.124771865403E+02
 -0.143096020640E+02
 -0.144513732139E+02
 -0.145571949086E+02
 -0.148471023480E+02
 -0.152800928545E+02
 -0.156015414555E+02
 -0.162122344182E+02
 -0.163540052180E+02
 -0.174353223148E+02
 -0.174779423972E+02
 -0.187912792946E+02
 -0.193379549472E+02
 -0.193805733174E+02
 -0.195392626359E+02
 -0.197198734355E+02
 -0.198616395647E+02
 -0.204039496696E+02
 -0.206938511542E+02
 -0.205648748962E+02
 -0.207594016277E+02
 -0.206939114762E+02
 -0.228455978480E+02
 -0.228882104996E+02
 -0.235623155165E+02
 -0.238837595868E+02
 -0.242015397273E+02
 -0.255666368702E+02
 -0.257083964095E+02
 -0.286923688641E+02
 -0.287349743828E+02
 -0.286861855763E+02
 -0.289760816814E+02
 -0.289226552704E+02
 -0.299482769262E+02
 -0.301428042505E+02
 -0.300482939442E+02
 -0.329457248959E+02
 -0.332671699417E+02
 -0.338488851423E+02
 -0.339906397806E+02
 -0.369746266354E+02
 -0.370172268784E+02
 -0.372048479206E+02
 -0.380696105820E+02
 -0.383595059513E+02
 -0.382304786148E+02
 -0.384250113964E+02
 -0.383305442318E+02
 -0.412279438235E+02
 -0.415493951400E+02
 -0.430515667620E+02
 -0.432323268671E+02
 -0.433740818927E+02
 -0.440772075765E+02
 -0.442717473641E+02
 -0.463580760508E+02
 -0.464006764102E+02
 -0.463518433001E+02
 -0.466417438104E+02
 -0.465591789295E+02
 -0.470746821244E+02
 -0.473961412790E+02
 -0.475848200382E+02
 -0.477793654975E+02
 -0.477140015257E+02
 -0.484617870305E+02
 -0.494874377402E+02
 -0.496819877572E+02
 -0.499761874116E+02
 -0.501137566451E+02
 -0.502356144133E+02
 -0.505823029583E+02
 -0.509037684101E+02
 -0.515145753898E+02
 -0.516563359541E+02
 -0.521985958167E+02
 -0.524885040017E+02
 -0.524849246697E+02
 -0.528063947075E+02
 -0.532925294463E+02
 -0.535198445147E+02
 -0.537212084204E+02
 -0.546403323101E+02
 -0.546829381278E+02
 -0.557062265541E+02
 -0.559961409334E+02
 -0.559962777990E+02
 -0.573613367253E+02
 -0.575031041154E+02
 -0.576088540640E+02
 -0.578987719769E+02
 -0.583371986716E+02
 -0.585422013987E+02
 -0.587238026334E+02
 -0.604871013117E+02
 -0.605297143091E+02
 -0.608689761335E+02
 -0.610107483776E+02
 -0.618430651175E+02
 -0.627716042839E+02
 -0.629133793464E+02
 -0.631277871529E+02
 -0.632280377519E+02
 -0.633168497261E+02
 -0.639947445137E+02
 -0.640373630454E+02
 -0.653507257201E+02
 -0.658973726315E+02
 -0.659399946765E+02
 -0.660044611641E+02
 -0.660346009053E+02
 -0.660613038582E+02
 -0.672533683673E+02
 -0.206939122289E+02
 -0.187912797839E+02
 -0.242015409695E+02
 -0.383305463527E+02
 -0.300482957370E+02
 -0.653507262997E+02
 -0.618430660960E+02
 -0.559962793145E+02
 -0.477140035209E+02
SCALARS phi_mu float 1
LOOKUP_TABLE default
 -0.309493361275E-04
 -0.102564775453E+01
 -0.122019093488E+01
 -0.190265140397E+01
 -0.292827492016E+01
 -0.312281758566E+01
 -0.402308560455E+01
 -0.434454745903E+01
 -0.541028896017E+01
 -0.592571307384E+01
 -0.624717385160E+01
 -0.643590686250E+01
 -0.663044428851E+01
 -0.914693167694E+01
 -0.943684580721E+01
 -0.943334353644E+01
 -0.975479879341E+01
 -0.110495611123E+02
 -0.113394724498E+02
 -0.112570422171E+02
 -0.122826553772E+02
 -0.124771865403E+02
 -0.143096020640E+02
 -0.144513732139E+02
 -0.145571949086E+02
 -0.148471023480E+02
 -0.152800928545E+02
 -0.156015414555E+02
 -0.162122344182E+02
 -0.163540052180E+02
 -0.174353223148E+02
 -0.174779423972E+02
 -0.187912792946E+02
 -0.193379549472E+02
 -0.193805733174E+02
 -0.195392626359E+02
 -0.197198734355E+02
 -0.198616395647E+02
 -0.204039496696E+02
 -0.206938511542E+02
 -0.205648748962E+02
 -0.207594016277E+02
 -0.206939114762E+02
 -0.228455978480E+02
 -0.228882104996E+02
 -0.235623155165E+02
 -0.238837595868E+02
 -0.242015397273E+02
 -0.255666368702E+02
 -0.257083964095E+02
 -0.286923688641E+02
 -0.287349743828E+02
 -0.286861855763E+02
 -0.289760816814E+02
 -0.289226552704E+02
 -0.299482769262E+02
 -0.301428042505E+02
 -0.300482939442E+02
 -0.329457248959E+02
 -0.332671699417E+02
 -0.338488851423E+02
 -0.339906397806E+02
 -0.369746266354E+02
 -0.370172268784E+02
 -0.372048479206E+02
 -0.380696105820E+02
 -0.383595059513E+02
 -0.382304786148E+02
 -0.384250113964E+02
 -0.383305442318E+02
 -0.412279438235E+02
 -0.415493951400E+02
 -0.430515667620E+02
 -0.432323268671E+02
 -0.433740818927E+02
 -0.440772075765E+02
 -0.442717473641E+02
 -0.463580760508E+02
 -0.464006764102E+02
 -0.463518433001E+02
 -0.466417438104E+02
 -0.465591789295E+02
 -0.470746821244E+02
 -0.473961412790E+02
 -0.475848200382E+02
 -0.477793654975E+02
 -0.477140015257E+02
 -0.484617870305E+02
 -0.494874377402E+02
 -0.496819877572E+02
 -0.499761874116E+02
 -0.501137566451E+02
 -0.502356144133E+02
 -0.505823029583E+02
 -0.509037684101E+02
 -0.515145753898E+02
 -0.516563359541E+02
 -0.521985958167E+02
 -0.524885040017E+02
 -0.524849246697E+02
 -0.528063947075E+02
 -0.532925294463E+02
 -0.535198445147E+02
 -0.537212084204E+02
 -0.546403323101E+02
 -0.546829381278E+02
 -0.557062265541E+02
 -0.559961409334E+02
 -0.559962777990E+02
 -0.573613367253E+02
 -0.575031041154E+02
 -0.576088540640E+02
 -0.578987719769E+02
 -0.583371986716E+02
 -0.585422013987E+02
 -0.587238026334E+02
 -0.604871013117E+02
 -0.605297143091E+02
 -0.608689761335E+02
 -0.610107483776E+02
 -0.618430651175E+02
 -0.627716042839E+02
 -0.629133793464E+02
 -0.631277871529E+02
 -0.632280377519E+02
 -0.633168497261E+02
 -0.639947445137E+02
 -0.640373630454E+02
 -0.653507257201E+02
 -0.658973726315E+02
 -0.659399946765E+02
 -0.660044611641E+02
 -0.660346009053E+02
 -0.660613038582E+02
 -0.672533683673E+02
 -0.206939122289E+02
 -0.187912797839E+02
 -0.242015409695E+02
 -0.383305463527E+02
 -0.300482957370E+02
 -0.653507262997E+02
 -0.618430660960E+02
 -0.559962793145E+02
 -0.477140035209E+02
SCALARS phi_sigma float 1
LOOKUP_TABLE default
  0.000000000000E+00
  0.000000000000E+00
  0.000000000000E+00
  0.000000000000E+00
  0.000000000000E+00
  0.000000000000E+00
  0.000000000000E+00
  0.000000000000E+00
  0.000000000000E+00
  0.000000000000E+00
  0.000000000000E+00
  0.000000000000E+00
  0.000000000000E+00
  0.000000000000E+00
  0.000000000000E+00
  0.000000000000E+00
  0.000000000000E+00
  0.000000000000E+00
  0.000000000000E+00
  0.000000000000E+00
  0.000000000000E+00
  0.000000000000E+00
  0.000000000000E+00
  0.000000000000E+00
  0.000000000000E+00
  0.000000000000E+00
  0.000000000000E+00
  0.000000000000E+00
  0.000000000000E+00
  0.000000000000E+00
  0.000000000000E+00
  0.000000000000E+00
  0.000000000000E+00
  0.000000000000E+00
  0.000000000000E+00
  0.000000000000E+00
  0.000000000000E+00
  0.000000000000E+00
  0.000000000000E+00
  0.000000000000E+00
  0.000000000000E+00
  0.000000000000E+00
  0.000000000000E+00
  0.000000000000E+00
  0.000000000000E+00
  0.000000000000E+00
  0.000000000000E+00
  0.000000000000E+00
  0.000000000000E+00
  0.000000000000E+00
  0.000000000000E+00
  0.000000000000E+00
  0.000000000000E+00
  0.000000000000E+00
  0.000000000000E+00
  0.000000000000E+00
  0.000000000000E+00
  0.000000000000E+00
  0.000000000000E+00
  0.000000000000E+00
  0.000000000000E+00
  0.000000000000E+00
  0.000000000000E+00
  0.000000000000E+00
  0.000000000000E+00
  0.000000000000E+00
  0.000000000000E+00
  0.000000000000E+00
  0.000000000000E+00
  0.000000000000E+00
  0.000000000000E+00
  0.000000000000E+00
  0.000000000000E+00
  0.000000000000E+00
  0.000000000000E+00
  0.000000000000E+00
  0.000000000000E+00
  0.000000000000E+00
  0.000000000000E+00
  0.000000000000E+00
  0.000000000000E+00
  0.000000000000E+00
  0.000000000000E+00
  0.000000000000E+00
  0.000000000000E+00
  0.000000000000E+00
  0.000000000000E+00
  0.000000000000E+00
  0.000000000000E+00
  0.000000000000E+00
  0.000000000000E+00
  0.000000000000E+00
  0.000000000000E+00
  0.000000000000E+00
  0.000000000000E+00
  0.000000000000E+00
  0.000000000000E+00
  0.000000000000E+00
  0.000000000000E+00
  0.000000000000E+00
  0.000000000000E+00
  0.000000000000E+00
  0.000000000000E+00
  0.000000000000E+00
  0.000000000000E+00
  0.000000000000E+00
  0.000000000000E+00
  0.000000000000E+00
  0.000000000000E+00
  0.000000000000E+00
  0.000000000000E+00
  0.000000000000E+00
  0.000000000000E+00
  0.000000000000E+00
  0.000000000000E+00
  0.000000000000E+00
  0.000000000000E+00
  0.000000000000E+00
  0.000000000000E+00
  0.000000000000E+00
  0.000000000000E+00
  0.000000000000E+00
  0.000000000000E+00
  0.000000000000E+00
  0.000000000000E+00
  0.000000000000E+00
  0.000000000000E+00
  0.000000000000E+00
  0.000000000000E+00
  0.000000000000E+00
  0.000000000000E+00
  0.000000000000E+00
  0.000000000000E+00
  0.000000000000E+00
  0.000000000000E+00
  0.000000000000E+00
  0.000000000000E+00
  0.000000000000E+00
  0.000000000000E+00
  0.000000000000E+00
  0.000000000000E+00
  0.000000000000E+00
  0.000000000000E+00
  0.000000000000E+00
