# vtk DataFile Version 3.0
MachLine results file. Generated by MachLine, USU AeroLab (c) 2022.
ASCII
DATASET POLYDATA
POINTS                 482 float
  0.000000000000E+00  0.000000000000E+00  0.000000000000E+00
  0.473465979099E+00  0.000000000000E+00 -0.436293870211E+00
  0.473465979099E+00  0.000000000000E+00  0.436293870211E+00
  0.757896304131E+00  0.757896304131E+00  0.000000000000E+00
  0.123136246204E+01  0.757896304131E+00 -0.436293989420E+00
  0.123136246204E+01  0.757896304131E+00  0.436293989420E+00
  0.157641971111E+01  0.000000000000E+00 -0.760520398617E+00
  0.157641971111E+01  0.000000000000E+00  0.760520398617E+00
  0.178897356987E+01  0.178897356987E+01  0.000000000000E+00
  0.226243972778E+01  0.178897356987E+01 -0.436294138432E+00
  0.226243972778E+01  0.178897356987E+01  0.436294138432E+00
  0.233431649208E+01  0.757896304131E+00 -0.760520577431E+00
  0.233431649208E+01  0.757896304131E+00  0.760520577431E+00
  0.317279767990E+01  0.317279767990E+01  0.000000000000E+00
  0.336539411545E+01  0.178897356987E+01 -0.760520815849E+00
  0.336539411545E+01  0.178897356987E+01  0.760520815849E+00
  0.342464399338E+01  0.000000000000E+00 -0.102348911762E+01
  0.342464399338E+01  0.000000000000E+00  0.102348911762E+01
  0.364626431465E+01  0.317279767990E+01 -0.436294317245E+00
  0.364626431465E+01  0.317279767990E+01  0.436294317245E+00
  0.418254137039E+01  0.757896304131E+00 -0.102348935604E+01
  0.418254137039E+01  0.757896304131E+00  0.102348935604E+01
  0.474921894073E+01  0.317279767990E+01 -0.760521173477E+00
  0.474921894073E+01  0.317279767990E+01  0.760521173477E+00
  0.499661636353E+01  0.499661636353E+01  0.000000000000E+00
  0.521361970901E+01  0.178897356987E+01 -0.102348971367E+01
  0.521361970901E+01  0.178897356987E+01  0.102348971367E+01
  0.547008323669E+01  0.499661636353E+01 -0.436294585466E+00
  0.547008323669E+01  0.499661636353E+01  0.436294585466E+00
  0.611307668686E+01  0.000000000000E+00 -0.114008128643E+01
  0.611307668686E+01  0.000000000000E+00  0.114008128643E+01
  0.657303857803E+01  0.499661636353E+01 -0.760521650314E+00
  0.657303857803E+01  0.499661636353E+01  0.760521650314E+00
  0.659744548798E+01  0.317279767990E+01 -0.102349019051E+01
  0.659744548798E+01  0.317279767990E+01  0.102349019051E+01
  0.687097454071E+01  0.757896304131E+00 -0.114008152485E+01
  0.687097454071E+01  0.757896304131E+00  0.114008152485E+01
  0.734362459183E+01  0.734362459183E+01  0.000000000000E+00
  0.781709194183E+01  0.734362459183E+01 -0.436294913292E+00
  0.781709194183E+01  0.734362459183E+01  0.436294913292E+00
  0.790205335617E+01  0.178897356987E+01 -0.114008200169E+01
  0.790205335617E+01  0.178897356987E+01  0.114008200169E+01
  0.842126560211E+01  0.499661636353E+01 -0.102349078655E+01
  0.842126560211E+01  0.499661636353E+01  0.102349078655E+01
  0.892004776001E+01  0.734362459183E+01 -0.760522186756E+00
  0.892004776001E+01  0.734362459183E+01  0.760522186756E+00
  0.928588008881E+01  0.317279767990E+01 -0.114008247852E+01
  0.928588008881E+01  0.317279767990E+01  0.114008247852E+01
  0.939508819580E+01  0.000000000000E+00 -0.980745851994E+00
  0.939508819580E+01  0.000000000000E+00  0.980745851994E+00
  0.101529865265E+02  0.757896304131E+00 -0.980746090412E+00
  0.101529865265E+02  0.757896304131E+00  0.980746090412E+00
  0.102728376389E+02  0.102728376389E+02  0.000000000000E+00
  0.107463054657E+02  0.102728376389E+02 -0.436295330524E+00
  0.107463054657E+02  0.102728376389E+02  0.436295330524E+00
  0.107682771683E+02  0.734362459183E+01 -0.102349150181E+01
  0.107682771683E+02  0.734362459183E+01  0.102349150181E+01
  0.111097030640E+02  0.499661636353E+01 -0.114008307457E+01
  0.111097030640E+02  0.499661636353E+01  0.114008307457E+01
  0.111840667725E+02  0.178897356987E+01 -0.980746388435E+00
  0.111840667725E+02  0.178897356987E+01  0.980746388435E+00
  0.118492631912E+02  0.102728376389E+02 -0.760522902012E+00
  0.118492631912E+02  0.102728376389E+02  0.760522902012E+00
  0.125678949356E+02  0.317279767990E+01 -0.980746865273E+00
  0.125678949356E+02  0.317279767990E+01  0.980746865273E+00
  0.126670312881E+02  0.000000000000E+00 -0.678052663803E+00
  0.126670312881E+02  0.000000000000E+00  0.678052663803E+00
  0.134249305725E+02  0.757896304131E+00 -0.678052842617E+00
  0.134249305725E+02  0.757896304131E+00  0.678052842617E+00
  0.134567155838E+02  0.734362459183E+01 -0.114008402824E+01
  0.134567155838E+02  0.734362459183E+01  0.114008402824E+01
  0.136974935532E+02  0.102728376389E+02 -0.102349245548E+01
  0.136974935532E+02  0.102728376389E+02  0.102349245548E+01
  0.137921218872E+02  0.137921218872E+02  0.000000000000E+00
  0.142655897141E+02  0.137921218872E+02 -0.436295837164E+00
  0.142655897141E+02  0.137921218872E+02  0.436295837164E+00
  0.143917188644E+02  0.499661636353E+01 -0.980747401714E+00
  0.143917188644E+02  0.499661636353E+01  0.980747401714E+00
  0.144560117722E+02  0.178897356987E+01 -0.678053081036E+00
  0.144560117722E+02  0.178897356987E+01  0.678053081036E+00
  0.153437566757E+02  0.000000000000E+00 -0.393031150103E+00
  0.153437566757E+02  0.000000000000E+00  0.393031150103E+00
  0.153685483932E+02  0.137921218872E+02 -0.760523796082E+00
  0.153685483932E+02  0.137921218872E+02  0.760523796082E+00
  0.158398418427E+02  0.317279767990E+01 -0.678053379059E+00
  0.158398418427E+02  0.317279767990E+01  0.678053379059E+00
  0.161016559601E+02  0.757896304131E+00 -0.393031239510E+00
  0.161016559601E+02  0.757896304131E+00  0.393031239510E+00
  0.163859348297E+02  0.102728376389E+02 -0.114008510113E+01
  0.163859348297E+02  0.102728376389E+02  0.114008510113E+01
  0.167387351990E+02  0.734362459183E+01 -0.980748176575E+00
  0.167387351990E+02  0.734362459183E+01  0.980748176575E+00
  0.171327381134E+02  0.178897356987E+01 -0.393031388521E+00
  0.171327381134E+02  0.178897356987E+01  0.393031388521E+00
  0.172004318237E+02  0.000000000000E+00 -0.192506864667E+00
  0.172004318237E+02  0.000000000000E+00  0.192506864667E+00
  0.172167816162E+02  0.137921218872E+02 -0.102349364758E+01
  0.172167816162E+02  0.137921218872E+02  0.102349364758E+01
  0.176636676788E+02  0.499661636353E+01 -0.678053736687E+00
  0.176636676788E+02  0.499661636353E+01  0.678053736687E+00
  0.178320064545E+02  0.178320064545E+02  0.000000000000E+00
  0.179583320618E+02  0.757896304131E+00 -0.192506924272E+00
  0.179583320618E+02  0.757896304131E+00  0.192506924272E+00
  0.183054752350E+02  0.178320064545E+02 -0.436296403408E+00
  0.183054752350E+02  0.178320064545E+02  0.436296403408E+00
  0.183450412750E+02  0.000000000000E+00 -0.698660761118E-01
  0.183450412750E+02  0.000000000000E+00  0.698660761118E-01
  0.185165691376E+02  0.317279767990E+01 -0.393031567335E+00
  0.185165691376E+02  0.317279767990E+01  0.393031567335E+00
  0.189894161224E+02  0.178897356987E+01 -0.192506983876E+00
  0.189894161224E+02  0.178897356987E+01  0.192506983876E+00
  0.190000000000E+02  0.000000000000E+00  0.000000000000E+00
  0.191029415131E+02  0.757896304131E+00 -0.698660910130E-01
  0.191029415131E+02  0.757896304131E+00  0.698660910130E-01
  0.194084339142E+02  0.178320064545E+02 -0.760524809361E+00
  0.194084339142E+02  0.178320064545E+02  0.760524809361E+00
  0.196679573059E+02  0.102728376389E+02 -0.980749070644E+00
  0.196679573059E+02  0.102728376389E+02  0.980749070644E+00
  0.197579002380E+02  0.757896304131E+00  0.000000000000E+00
  0.199052257538E+02  0.137921218872E+02 -0.114008641243E+01
  0.199052257538E+02  0.137921218872E+02  0.114008641243E+01
  0.200106849670E+02  0.734362459183E+01 -0.678054273129E+00
  0.200106849670E+02  0.734362459183E+01  0.678054273129E+00
  0.201340255737E+02  0.178897356987E+01 -0.698661133647E-01
  0.201340255737E+02  0.178897356987E+01  0.698661133647E-01
  0.203403968811E+02  0.499661636353E+01 -0.393031775951E+00
  0.203403968811E+02  0.499661636353E+01  0.393031775951E+00
  0.203732471466E+02  0.317279767990E+01 -0.192507073283E+00
  0.203732471466E+02  0.317279767990E+01  0.192507073283E+00
  0.207889842987E+02  0.178897356987E+01  0.000000000000E+00
  0.212566699982E+02  0.178320064545E+02 -0.102349495888E+01
  0.212566699982E+02  0.178320064545E+02  0.102349495888E+01
  0.215178565979E+02  0.317279767990E+01 -0.698661431670E-01
  0.215178565979E+02  0.317279767990E+01  0.698661431670E-01
  0.221728172302E+02  0.317279767990E+01  0.000000000000E+00
  0.221970767975E+02  0.499661636353E+01 -0.192507177591E+00
  0.221970767975E+02  0.499661636353E+01  0.192507177591E+00
  0.222339305878E+02  0.222339305878E+02  0.000000000000E+00
  0.226874179840E+02  0.734362459183E+01 -0.393032073975E+00
  0.226874179840E+02  0.734362459183E+01  0.393032073975E+00
  0.227074012756E+02  0.222339305878E+02 -0.436297029257E+00
  0.227074012756E+02  0.222339305878E+02  0.436297029257E+00
  0.229399108887E+02  0.102728376389E+02 -0.678054928780E+00
  0.229399108887E+02  0.102728376389E+02  0.678054928780E+00
  0.231872520447E+02  0.137921218872E+02 -0.980750203133E+00
  0.231872520447E+02  0.137921218872E+02  0.980750203133E+00
  0.233416862488E+02  0.499661636353E+01 -0.698661878705E-01
  0.233416862488E+02  0.499661636353E+01  0.698661878705E-01
  0.238103618622E+02  0.222339305878E+02 -0.760525882244E+00
  0.238103618622E+02  0.222339305878E+02  0.760525882244E+00
  0.239451179504E+02  0.178320064545E+02 -0.114008784294E+01
  0.239451179504E+02  0.178320064545E+02  0.114008784294E+01
  0.239966468811E+02  0.499661636353E+01  0.000000000000E+00
  0.245440979004E+02  0.734362459183E+01 -0.192507326603E+00
  0.245440979004E+02  0.734362459183E+01  0.192507326603E+00
  0.256166458130E+02  0.102728376389E+02 -0.393032461405E+00
  0.256166458130E+02  0.102728376389E+02  0.393032461405E+00
  0.256585998535E+02  0.222339305878E+02 -0.102349650860E+01
  0.256585998535E+02  0.222339305878E+02  0.102349650860E+01
  0.256887092590E+02  0.734362459183E+01 -0.698662400246E-01
  0.256887092590E+02  0.734362459183E+01  0.698662400246E-01
[...]
CELL_DATA                 904
SCALARS C_p_inc float 1
LOOKUP_TABLE default
  0.165964572142E+00
  0.143529110031E+00
  0.110421191845E+00
  0.934486686930E-01
  0.772205474860E-01
  0.683817634989E-01
  0.499507234894E-01
  0.432396675362E-01
  0.261293469413E-01
  0.215195018254E-01
  0.315516992717E-01
  0.256832363614E-01
  0.128905999390E+00
  0.966848714309E-01
  0.277282338038E+00
  0.232955060114E+00
  0.482290233139E+00
  0.438985300366E+00
  0.702292852310E+00
  0.693147248815E+00
 -0.294503822261E+00
  0.123187295594E+00
 -0.630612420976E+00
 -0.374315389611E+00
 -0.561170021195E+00
 -0.482686304086E+00
 -0.543482986059E+00
 -0.519565718985E+00
 -0.479348341906E+00
 -0.499729446419E+00
 -0.382268152133E+00
 -0.354025165895E+00
 -0.256560814961E+00
 -0.226289650067E+00
 -0.151241648880E+00
 -0.114621677939E+00
 -0.605356500742E-01
 -0.448423865263E-02
  0.563084661070E-01
  0.127583635910E+00
  0.160971758303E+00
  0.164596644280E+00
  0.113903863907E+00
  0.110226260384E+00
  0.860817912302E-01
  0.772094371933E-01
  0.560999444542E-01
  0.499952606577E-01
  0.282528115365E-01
  0.260802747918E-01
  0.256722646971E-01
  0.185148446365E-01
  0.979370985962E-01
  0.767270801393E-01
  0.229254514675E+00
  0.210595392946E+00
  0.406949015571E+00
  0.406768085302E+00
  0.576958407734E+00
  0.528790065391E+00
 -0.548212037741E+00
 -0.312939726683E+00
 -0.790715267582E+00
 -0.601949449618E+00
 -0.651201977464E+00
 -0.560166501360E+00
 -0.580423195802E+00
 -0.548954158237E+00
 -0.472896283779E+00
 -0.486052276745E+00
 -0.353651550205E+00
 -0.329078464089E+00
 -0.225761951240E+00
 -0.192798604324E+00
 -0.114454079126E+00
 -0.735680268609E-01
 -0.505914434157E-02
  0.287689808498E-01
  0.123233319745E+00
  0.133994331235E+00
  0.157900489981E+00
  0.160305703391E+00
  0.111984970500E+00
  0.113618772451E+00
  0.892385043139E-01
  0.859930324921E-01
  0.617369128260E-01
  0.561336870391E-01
  0.310041307443E-01
  0.282675506350E-01
  0.188767613620E-01
  0.152599550767E-01
  0.773941307497E-01
  0.672375480697E-01
  0.205943127825E+00
  0.199577974567E+00
  0.391564589670E+00
  0.397516022679E+00
  0.513295953257E+00
  0.462342274504E+00
 -0.758120227612E+00
 -0.554926431861E+00
 -0.933852419952E+00
 -0.770544576467E+00
 -0.730655428779E+00
 -0.645198667065E+00
 -0.613115213877E+00
 -0.584830568920E+00
 -0.468978815683E+00
 -0.482001289289E+00
 -0.329162088140E+00
 -0.304055768436E+00
 -0.192270177579E+00
 -0.158775081537E+00
 -0.735296782806E-01
 -0.438424771087E-01
  0.278481416968E-01
  0.430804495412E-01
  0.131911399276E+00
  0.137317898558E+00
  0.156785252815E+00
  0.157392277303E+00
  0.110328622800E+00
  0.111731186286E+00
  0.887710130686E-01
  0.891019819484E-01
  0.645610065426E-01
  0.617404292506E-01
  0.344318263865E-01
  0.310842405572E-01
  0.154414660430E-01
  0.160639953537E-01
  0.673173060429E-01
  0.657274624684E-01
  0.196751476660E+00
  0.199327858906E+00
  0.390984149380E+00
  0.399822864123E+00
  0.463596652559E+00
  0.412777587675E+00
 -0.941917041482E+00
 -0.759425149480E+00
 -0.105831722171E+01
 -0.920865840838E+00
 -0.797785799458E+00
 -0.727719797760E+00
 -0.640570991846E+00
 -0.619274628529E+00
 -0.464309803053E+00
 -0.479174983578E+00
 -0.304620393162E+00
 -0.280311741461E+00
 -0.158405712200E+00
 -0.132505946956E+00
 -0.439242416458E-01
 -0.272146049004E-01
  0.426105353616E-01
  0.509453859713E-01
  0.136515195166E+00
  0.139933314786E+00
  0.156356639213E+00
  0.156302574533E+00
  0.109431110838E+00
  0.110077267183E+00
  0.878653640394E-01
  0.886173525797E-01
  0.650445608468E-01
  0.645176732894E-01
  0.371052478562E-01
  0.345285269238E-01
  0.161096459780E-01
  0.197045644244E-01
  0.656814522986E-01
  0.702286400509E-01
  0.198309342110E+00
  0.206596849938E+00
  0.398812851032E+00
  0.408981793186E+00
  0.421674561761E+00
  0.372517967318E+00
 -0.109985389878E+01
 -0.941383504032E+00
 -0.116118789960E+01
 -0.105210660553E+01
 -0.850552293407E+00
 -0.798787330248E+00
 -0.660487887232E+00
 -0.648129839030E+00
 -0.459182179591E+00
 -0.474173168521E+00
 -0.281116160327E+00
 -0.262488950915E+00
 -0.132426159652E+00
 -0.117044231331E+00
 -0.272394860425E-01
 -0.181292913190E-01
  0.509035236313E-01
  0.559357800515E-01
  0.139958360547E+00
  0.142671125591E+00
  0.156534646823E+00
  0.155872530826E+00
  0.109129295560E+00
  0.109162561427E+00
  0.873606153624E-01
  0.876891290666E-01
  0.650057982749E-01
  0.649635960916E-01
  0.387142886776E-01
  0.371648628700E-01
  0.197295230195E-01
  0.240300506027E-01
  0.702180926231E-01
  0.776501129150E-01
  0.206704541685E+00
  0.217485073320E+00
  0.410919566552E+00
  0.420876742269E+00
  0.384372017677E+00
  0.339382290432E+00
 -0.122881804794E+01
 -0.109913301215E+01
 -0.124080961957E+01
 -0.115985763589E+01
 -0.889192446564E+00
 -0.854051094056E+00
 -0.674256002011E+00
 -0.667918769944E+00
 -0.456475430864E+00
 -0.466932016512E+00
 -0.263411098749E+00
 -0.252769705877E+00
 -0.117184752353E+00
 -0.109248448861E+00
 -0.180894564886E-01
 -0.131532501974E-01
  0.561436493369E-01
  0.591965424932E-01
  0.143130576265E+00
  0.145009904678E+00
  0.156795101263E+00
  0.156016412106E+00
  0.109029159541E+00
  0.108831229865E+00
  0.871208685247E-01
  0.871565903501E-01
  0.650455268730E-01
  0.648932055261E-01
  0.398968959424E-01
  0.387245675007E-01
  0.240598015539E-01
  0.277811622305E-01
  0.776672385012E-01
  0.850045117480E-01
  0.217989683232E+00
  0.228355607125E+00
  0.423651879037E+00
  0.432093558455E+00
  0.350565969953E+00
  0.312424691887E+00
 -0.132847752813E+01
 -0.122840529456E+01
 -0.129942345120E+01
 -0.124175843134E+01
 -0.916950458478E+00
 -0.892990514124E+00
 -0.685051101961E+00
 -0.679889389307E+00
 -0.457135994283E+00
 -0.461455899800E+00
 -0.253743277254E+00
 -0.248910627538E+00
 -0.109506903959E+00
 -0.105627595750E+00
 -0.130961607634E-01
 -0.103244967853E-01
  0.595120984235E-01
  0.615291914896E-01
  0.145683414145E+00
  0.147213178735E+00
  0.156744289889E+00
  0.156219513066E+00
  0.108636868209E+00
  0.108688578279E+00
  0.866396958432E-01
  0.868833103884E-01
  0.648466263399E-01
  0.649037932329E-01
  0.406542691030E-01
  0.398667877066E-01
  0.277995009749E-01
  0.305677982963E-01
  0.849981146703E-01
  0.907584532294E-01
  0.228775323465E+00
  0.236988428687E+00
  0.434380489931E+00
  0.440670094649E+00
  0.320821430548E+00
  0.291065359216E+00
 -0.140214344385E+01
 -0.132826916900E+01
 -0.134159004285E+01
 -0.130060154684E+01
 -0.937161811593E+00
 -0.919677097715E+00
 -0.693971528821E+00
 -0.688561142089E+00
 -0.459357381341E+00
 -0.460082551513E+00
 -0.249861120569E+00
 -0.247754711892E+00
 -0.105945299245E+00
 -0.103674302467E+00
 -0.102823357024E-01
 -0.819614166162E-02
  0.618744817880E-01
  0.637298484616E-01
  0.147976545189E+00
  0.149623257013E+00
  0.155894257824E+00
  0.156059783952E+00
  0.107354551904E+00
  0.108224871636E+00
  0.852303349360E-01
  0.863527340284E-01
  0.636988457715E-01
  0.646721700539E-01
  0.403600069751E-01
  0.405928455586E-01
  0.305661909377E-01
  0.318621351231E-01
  0.906986941637E-01
  0.942767482579E-01
  0.237155208919E+00
  0.242644094527E+00
  0.442050675715E+00
  0.446195112625E+00
  0.296387991237E+00
  0.275275957287E+00
 -0.145326317863E+01
 -0.140198515194E+01
 -0.137036880249E+01
 -0.134233649193E+01
 -0.950970754460E+00
 -0.938854527723E+00
 -0.700209499194E+00
 -0.696161577162E+00
 -0.460958994890E+00
 -0.461326830777E+00
 -0.248647731534E+00
 -0.246793525550E+00
 -0.104028566555E+00
 -0.101511227230E+00
 -0.818200424293E-02
 -0.546924248170E-02
  0.640824477412E-01
  0.667346296511E-01
  0.150457281120E+00
  0.152920785181E+00
  0.153957946132E+00
  0.154993163554E+00
  0.104566769870E+00
  0.106804524127E+00
  0.820875080964E-01
  0.848521207846E-01
  0.606932314722E-01
  0.634731576222E-01
  0.380988557217E-01
  0.402687381973E-01
  0.318303546393E-01
  0.308634259300E-01
  0.941300216807E-01
  0.949826948483E-01
  0.242505204970E+00
  0.245045177566E+00
  0.446686234643E+00
  0.448869959386E+00
  0.278106045105E+00
  0.265613319725E+00
 -0.148324706985E+01
 -0.145313584302E+01
 -0.138660085540E+01
 -0.137090181706E+01
 -0.958051572335E+00
 -0.952248103708E+00
 -0.702447504241E+00
 -0.701984560898E+00
 -0.460056490088E+00
 -0.462737602042E+00
 -0.247639685899E+00
 -0.244058072745E+00
 -0.101910881558E+00
 -0.974814112328E-01
 -0.549132355640E-02
 -0.771948184410E-03
  0.671093125618E-01
  0.716628344423E-01
  0.153888768937E+00
  0.157891794653E+00
  0.150580942079E+00
  0.152613442961E+00
  0.996155385491E-01
  0.103734181144E+00
  0.763111259772E-01
  0.815226123984E-01
  0.547578534706E-01
  0.603671531674E-01
  0.327532994607E-01
  0.379649477993E-01
  0.307734804431E-01
  0.265574668430E-01
  0.946863170615E-01
  0.921262412533E-01
  0.244506980471E+00
  0.243811704322E+00
  0.448450878832E+00
  0.448785000126E+00
  0.266352535166E+00
  0.262710013800E+00
 -0.149207054856E+01
 -0.148318976896E+01
 -0.138997272094E+01
 -0.138728695564E+01
 -0.957555132007E+00
 -0.959479931099E+00
 -0.699306601947E+00
 -0.704493475000E+00
 -0.454923790767E+00
 -0.462240107472E+00
 -0.244899859035E+00
 -0.237732667955E+00
 -0.979700550842E-01
 -0.897916648657E-01
 -0.851924232660E-03
  0.762422524871E-02
  0.720948540273E-01
  0.801416465872E-01
  0.159143340088E+00
  0.166018308293E+00
  0.145744657058E+00
  0.148384345851E+00
  0.922345993218E-01
  0.982190349022E-01
  0.672702173173E-01
  0.753614430312E-01
  0.448669916538E-01
  0.542203245456E-01
  0.230433634198E-01
  0.325373540049E-01
  0.263447540470E-01
  0.176885178003E-01
  0.915700851402E-01
  0.847259273748E-01
  0.242684628945E+00
  0.238356246011E+00
  0.447238015225E+00
  0.445758151517E+00
  0.261271590580E+00
  0.266786581148E+00
 -0.147963084657E+01
 -0.149211988043E+01
 -0.138004897537E+01
 -0.139110240969E+01
 -0.948640723518E+00
 -0.959578604396E+00
 -0.689460195532E+00
 -0.702213933050E+00
 -0.443811191686E+00
 -0.458132988745E+00
 -0.238626529056E+00
 -0.225880816644E+00
 -0.904563209959E-01
 -0.763645344151E-01
  0.742341736588E-02
  0.218183704449E-01
  0.806494647231E-01
  0.942721678482E-01
  0.167748773349E+00
  0.179468524443E+00
  0.140141056672E+00
  0.142018827196E+00
  0.830530628870E-01
  0.897625133221E-01
  0.552882235020E-01
  0.655452023242E-01
  0.307636379561E-01
  0.438756813239E-01
  0.793783001649E-02
  0.226469429035E-01
  0.172021251965E-01
  0.281125815021E-02
  0.837146807007E-01
  0.714951505967E-01
  0.236308184521E+00
  0.227845259114E+00
  0.442617120559E+00
  0.439334936345E+00
  0.262579504050E+00
  0.277359347996E+00
 -0.144680337896E+01
 -0.147980479212E+01
 -0.135695074747E+01
 -0.138183939154E+01
 -0.930778984343E+00
 -0.951662047606E+00
 -0.671682970404E+00
 -0.693892381268E+00
 -0.424854879490E+00
 -0.448899474197E+00
 -0.226875756880E+00
 -0.206518976216E+00
 -0.773562978998E-01
 -0.553763360105E-01
  0.213351682020E-01
  0.434323421036E-01
  0.947597994703E-01
  0.115761092362E+00
  0.181781823655E+00
  0.200221400398E+00
  0.133355940540E+00
  0.133608991812E+00
  0.719086878886E-01
  0.785164421317E-01
  0.404637212702E-01
  0.520309522467E-01
  0.130823077309E-01
  0.288132024601E-01
 -0.122057768146E-01
  0.711573565766E-02
  0.168075254855E-02
 -0.190270427285E-01
  0.696548165834E-01
  0.507993688861E-01
  0.224304407702E+00
  0.211060885456E+00
  0.433797796309E+00
  0.428742423916E+00
  0.269245103047E+00
  0.293163085377E+00
 -0.139584867698E+01
 -0.144709651374E+01
 -0.132159950882E+01
 -0.135956634723E+01
 -0.903792945286E+00
 -0.935242001692E+00
 -0.644746449319E+00
 -0.678574860852E+00
 -0.396071000107E+00
 -0.433211160054E+00
 -0.207668620033E+00
 -0.178632121454E+00
 -0.569664082268E-01
 -0.274167398933E-01
  0.423023155341E-01
  0.714287354374E-01
  0.115813280577E+00
  0.144589609737E+00
  0.202782889524E+00
  0.229515624032E+00
  0.121914916779E+00
  0.120343809304E+00
  0.534311257504E-01
  0.626149605051E-01
  0.166588824284E-01
  0.339992949271E-01
 -0.108841586918E-01
  0.925415363992E-02
 -0.357597251727E-01
 -0.139977012307E-01
 -0.216411304527E-01
 -0.459494232997E-01
  0.473471391796E-01
  0.211886427840E-01
  0.204966492684E+00
  0.186040437087E+00
  0.419431284327E+00
  0.412667026677E+00
  0.279245303516E+00
  0.312321136670E+00
 -0.133002264492E+01
 -0.139622823076E+01
 -0.127538002062E+01
 -0.132517479398E+01
 -0.867345906842E+00
 -0.910346000521E+00
 -0.606682528481E+00
 -0.655799451504E+00
 -0.355968610844E+00
 -0.410221180764E+00
 -0.180166964616E+00
 -0.145391607142E+00
 -0.300798705942E-01
  0.925451256658E-03
  0.691068978331E-01
  0.993894530342E-01
  0.143462238150E+00
  0.179183193491E+00
  0.231244397339E+00
  0.270993058050E+00
  0.996838907983E-01
  0.850760628013E-01
  0.182861204040E-02
  0.277395929940E-01
 -0.457869692652E-01
  0.225277858785E-02
 -0.555971712772E-01
 -0.179274330129E-01
 -0.646245921216E-01
 -0.393248460039E-01
 -0.515519759395E-01
 -0.723056567010E-01
  0.145608634373E-01
 -0.154044620433E-01
  0.175168549950E+00
  0.149575433768E+00
  0.396920302480E+00
  0.388563621341E+00
  0.289275077560E+00
  0.332646547796E+00
 -0.125247411436E+01
 -0.133042195379E+01
 -0.121904226047E+01
 -0.128009197211E+01
 -0.819207949322E+00
 -0.877414117603E+00
 -0.553600389886E+00
 -0.625801963091E+00
 -0.307940651591E+00
 -0.380074578269E+00
 -0.148149087061E+00
 -0.116235485314E+00
 -0.367660193234E-02
  0.154178552428E-01
  0.959608073609E-01
  0.107269339933E+00
  0.177657475982E+00
  0.213984793991E+00
  0.271385586099E+00
  0.348104794780E+00
  0.205209821554E-02
 -0.158447153961E+00
 -0.363676616514E+00
 -0.119371617460E+00
 -0.290449693125E+00
 -0.814497704663E-01
 -0.159285827580E+00
 -0.662710512484E-01
 -0.106478282490E+00
 -0.704604882204E-01
 -0.831690266213E-01
 -0.960468983521E-01
 -0.275954444289E-01
 -0.496995994145E-01
  0.129126458972E+00
  0.989425357449E-01
  0.360118260446E+00
  0.350612413281E+00
  0.293525137331E+00
  0.351728174114E+00
 -0.116452117223E+01
 -0.125277591657E+01
 -0.114994279229E+01
 -0.122543709975E+01
 -0.750562353941E+00
 -0.837300321614E+00
 -0.485902442367E+00
 -0.588618532906E+00
 -0.263753665075E+00
 -0.347237657544E+00
 -0.122518980062E+00
 -0.101173116254E+00
  0.567398449536E-02
 -0.716259896136E-02
  0.104619553902E+00
  0.749110732482E-02
  0.214668590612E+00
  0.874482807496E-01
  0.321842736154E+00
  0.587348043023E+00
 -0.934821403370E+02
  0.195987748911E+00
 -0.714886624145E+00
 -0.183580945495E+01
 -0.216633031672E+01
 -0.353629427129E+00
 -0.407790373049E+00
 -0.165110901424E+00
 -0.172537983043E+00
 -0.114305262380E+00
 -0.116226599119E+00
 -0.122157611327E+00
 -0.708563803919E-01
 -0.778066408339E-01
  0.611464586302E-01
  0.419409629740E-01
  0.291036156651E+00
  0.284054444864E+00
  0.276677097518E+00
  0.365829598141E+00
 -0.106156619792E+01
 -0.116453511837E+01
 -0.105076775838E+01
 -0.116124856144E+01
 -0.646261110362E+00
 -0.790294759715E+00
 -0.423218152457E+00
 -0.547383906825E+00
 -0.233796621455E+00
 -0.326963335647E+00
 -0.117824049060E+00
 -0.108376548295E+00
 -0.387503609049E-01
 -0.975741424979E-01
 -0.122323908292E-02
 -0.112011749457E+01
 -0.422444272608E+00
 -0.302521352572E+00
 -0.600999441320E+00
 -0.914971967308E+02
 -0.153665842764E+09
 -0.930130945667E+05
 -0.547403079206E+05
 -0.517196231146E+00
 -0.171717589985E+00
 -0.173189433027E+01
 -0.120577994360E+01
 -0.377916765265E+00
 -0.304286747950E+00
 -0.189324295433E+00
 -0.170029116812E+00
 -0.166979441447E+00
 -0.120222865694E+00
 -0.120282616166E+00
 -0.322389412075E-01
 -0.313977540657E-01
  0.135744755028E+00
  0.155776364043E+00
  0.137796363293E+00
  0.341189360178E+00
 -0.875063498154E+00
 -0.106137530077E+01
 -0.814461569223E+00
 -0.109807356623E+01
 -0.540801583408E+00
 -0.741176387463E+00
 -0.394686011888E+00
 -0.539991312653E+00
 -0.234224344907E+00
 -0.362671431400E+00
 -0.168797477440E+00
 -0.172823607691E+00
 -0.238334391717E+00
 -0.329208407183E+00
 -0.123426735958E+01
 -0.204683226300E+01
 -0.802440053168E-01
 -0.543461109679E+05
 -0.923393636875E+05
 -0.153680217836E+09
 -0.350255222422E+09
 -0.210771365820E+07
 -0.912395010507E+05
 -0.111136643390E+03
 -0.380753095916E+01
 -0.309573486713E+01
 -0.854811815591E+00
 -0.595235110474E+00
 -0.341280954361E+00
 -0.301875877265E+00
 -0.261458055148E+00
 -0.221095199740E+00
 -0.227254232348E+00
 -0.174647191665E+00
 -0.200563784915E+00
 -0.127406515096E+00
 -0.142794151752E+00
 -0.149491266827E+00
 -0.873139979537E+00
 -0.712895857330E+00
 -0.927586270720E+00
 -0.566790036136E+00
 -0.704352409436E+00
 -0.465479213227E+00
 -0.596563345744E+00
 -0.334259806289E+00
 -0.514351779560E+00
 -0.349131478537E+00
 -0.420760675004E+00
 -0.945602911297E+00
 -0.504760487334E+00
  0.451487984183E+00
 -0.163475822528E+03
 -0.920140471274E+05
 -0.209869673362E+07
 -0.350194130292E+09
 -0.367817131556E+09
 -0.807072705080E+07
 -0.131476148866E+06
 -0.811656893752E+03
 -0.744942796634E+01
 -0.437616093813E+01
 -0.117843808688E+01
 -0.885845942423E+00
 -0.512057969308E+00
 -0.475257417186E+00
 -0.389532632586E+00
 -0.357485570870E+00
 -0.356510469737E+00
 -0.320429776177E+00
 -0.356870927045E+00
 -0.309335597472E+00
 -0.366290972242E+00
 -0.284680820723E+00
 -0.838437893202E+00
 -0.718165830498E+00
 -0.858838738991E+00
 -0.630355777328E+00
 -0.715035753449E+00
 -0.559739689436E+00
 -0.660003139591E+00
 -0.459628256900E+00
 -0.660923872000E+00
 -0.559070023675E+00
 -0.688677460765E+00
 -0.148148162153E+01
 -0.779836383064E+00
  0.361338236450E+00
 -0.986076390889E+03
 -0.132752810682E+06
 -0.804757050474E+07
 -0.367722334983E+09
 -0.293687120201E+09
 -0.621849331060E+07
 -0.176612675288E+06
 -0.624694051432E+03
 -0.130239083014E+02
 -0.454235597239E+01
 -0.154602756100E+01
 -0.111925135207E+01
 -0.673410689313E+00
 -0.635009511853E+00
 -0.516271335415E+00
 -0.491403366876E+00
 -0.479741967783E+00
 -0.452895264438E+00
 -0.488741912201E+00
 -0.457593370367E+00
 -0.532770004189E+00
 -0.402508986743E+00
 -0.754910642570E+00
 -0.725625708585E+00
 -0.775384276589E+00
 -0.662443694158E+00
 -0.693055824288E+00
 -0.614243447934E+00
 -0.685919188207E+00
 -0.555719339463E+00
 -0.761086821929E+00
 -0.728671491761E+00
 -0.924952227494E+00
 -0.192049146741E+01
 -0.126326387334E+01
 -0.235931280942E+01
 -0.804058935964E+03
 -0.178008928608E+06
 -0.619494340072E+07
 -0.293599602375E+09
 -0.211211001483E+09
 -0.120960306723E+07
 -0.197289911697E+06
 -0.930347103059E+02
 -0.130740640598E+02
 -0.359255132196E+01
 -0.189530698520E+01
 -0.122237502839E+01
 -0.777425876833E+00
 -0.739743989136E+00
 -0.608242416700E+00
 -0.598416579896E+00
 -0.577471205366E+00
 -0.563982014938E+00
 -0.589377572753E+00
 -0.583623352921E+00
 -0.644856792278E+00
 -0.523301140578E+00
 -0.644089527320E+00
 -0.717717567857E+00
 -0.679581015208E+00
 -0.653773664040E+00
 -0.640472577267E+00
 -0.619753870738E+00
 -0.668938134509E+00
 -0.603310186355E+00
 -0.802865490680E+00
 -0.825042170733E+00
 -0.110432366103E+01
 -0.211150325764E+01
 -0.215037427253E+01
 -0.740756142489E+01
 -0.171812525484E+03
 -0.197954297679E+06
 -0.119935636455E+07
 -0.211174868064E+09
SCALARS sigma float 1
LOOKUP_TABLE default
  0.000000000000E+00
  0.000000000000E+00
  0.000000000000E+00
  0.000000000000E+00
  0.000000000000E+00
  0.000000000000E+00
  0.000000000000E+00
  0.000000000000E+00
  0.000000000000E+00
  0.000000000000E+00
  0.000000000000E+00
  0.000000000000E+00
  0.000000000000E+00
  0.000000000000E+00
  0.000000000000E+00
  0.000000000000E+00
  0.000000000000E+00
  0.000000000000E+00
  0.000000000000E+00
  0.000000000000E+00
  0.000000000000E+00
  0.000000000000E+00
  0.000000000000E+00
  0.000000000000E+00
  0.000000000000E+00
  0.000000000000E+00
  0.000000000000E+00
  0.000000000000E+00
  0.000000000000E+00
  0.000000000000E+00
  0.000000000000E+00
  0.000000000000E+00
  0.000000000000E+00
  0.000000000000E+00
  0.000000000000E+00
  0.000000000000E+00
  0.000000000000E+00
  0.000000000000E+00
  0.000000000000E+00
  0.000000000000E+00
  0.000000000000E+00
  0.000000000000E+00