# vtk DataFile Version 3.0
MachLine results file. Generated by MachLine, USU AeroLab (c) 2022.
ASCII
DATASET POLYDATA
POINTS                1848 float
  0.000000000000E+00  0.000000000000E+00  0.000000000000E+00
  0.147665724158E+00  0.000000000000E+00 -0.234920635819E+00
  0.147665724158E+00  0.000000000000E+00  0.234920635819E+00
  0.339639574289E+00  0.339639574289E+00  0.000000000000E+00
  0.473465979099E+00  0.000000000000E+00 -0.436293870211E+00
  0.473465979099E+00  0.000000000000E+00  0.436293870211E+00
  0.487305283546E+00  0.339639574289E+00 -0.234920650721E+00
  0.487305283546E+00  0.339639574289E+00  0.234920650721E+00
  0.735364913940E+00  0.735364913940E+00  0.000000000000E+00
  0.813105583191E+00  0.339639574289E+00 -0.436293929815E+00
  0.813105583191E+00  0.339639574289E+00  0.436293929815E+00
  0.883030653000E+00  0.735364913940E+00 -0.234920680523E+00
  0.883030653000E+00  0.735364913940E+00  0.234920680523E+00
  0.944064557552E+00  0.000000000000E+00 -0.604293465614E+00
  0.944064557552E+00  0.000000000000E+00  0.604293465614E+00
  0.119528055191E+01  0.119528055191E+01  0.000000000000E+00
  0.120883107185E+01  0.735364913940E+00 -0.436293989420E+00
  0.120883107185E+01  0.735364913940E+00  0.436293989420E+00
  0.128370416164E+01  0.339639574289E+00 -0.604293525219E+00
  0.128370416164E+01  0.339639574289E+00  0.604293525219E+00
  0.134294629097E+01  0.119528055191E+01 -0.234920725226E+00
  0.134294629097E+01  0.119528055191E+01  0.234920725226E+00
  0.157641971111E+01  0.000000000000E+00 -0.760520398617E+00
  0.157641971111E+01  0.000000000000E+00  0.760520398617E+00
  0.166874670982E+01  0.119528055191E+01 -0.436294049025E+00
  0.166874670982E+01  0.119528055191E+01  0.436294049025E+00
  0.167942965031E+01  0.735364913940E+00 -0.604293584824E+00
  0.167942965031E+01  0.735364913940E+00  0.604293584824E+00
  0.172824025154E+01  0.172824025154E+01  0.000000000000E+00
  0.187590610981E+01  0.172824025154E+01 -0.234920769930E+00
  0.187590610981E+01  0.172824025154E+01  0.234920769930E+00
  0.191605937481E+01  0.339639574289E+00 -0.760520458221E+00
  0.191605937481E+01  0.339639574289E+00  0.760520458221E+00
  0.213934540749E+01  0.119528055191E+01 -0.604293704033E+00
  0.213934540749E+01  0.119528055191E+01  0.604293704033E+00
  0.220170640945E+01  0.172824025154E+01 -0.436294138432E+00
  0.220170640945E+01  0.172824025154E+01  0.436294138432E+00
  0.231178498268E+01  0.735364913940E+00 -0.760520577431E+00
  0.231178498268E+01  0.735364913940E+00  0.760520577431E+00
  0.234375929832E+01  0.234375929832E+01  0.000000000000E+00
  0.239635515213E+01  0.000000000000E+00 -0.902061045170E+00
  0.239635515213E+01  0.000000000000E+00  0.902061045170E+00
  0.249142503738E+01  0.234375929832E+01 -0.234920814633E+00
  0.249142503738E+01  0.234375929832E+01  0.234920814633E+00
  0.267230534554E+01  0.172824025154E+01 -0.604293823242E+00
  0.267230534554E+01  0.172824025154E+01  0.604293823242E+00
  0.273599505424E+01  0.339639574289E+00 -0.902061164379E+00
  0.273599505424E+01  0.339639574289E+00  0.902061164379E+00
  0.277170085907E+01  0.119528055191E+01 -0.760520696640E+00
  0.277170085907E+01  0.119528055191E+01  0.760520696640E+00
  0.281722569466E+01  0.234375929832E+01 -0.436294227839E+00
  0.281722569466E+01  0.234375929832E+01  0.436294227839E+00
  0.305185556412E+01  0.305185556412E+01  0.000000000000E+00
  0.313172078133E+01  0.735364913940E+00 -0.902061283588E+00
  0.313172078133E+01  0.735364913940E+00  0.902061283588E+00
  0.319952154160E+01  0.305185556412E+01 -0.234920859337E+00
  0.319952154160E+01  0.305185556412E+01  0.234920859337E+00
  0.328782463074E+01  0.234375929832E+01 -0.604293942451E+00
  0.328782463074E+01  0.234375929832E+01  0.604293942451E+00
  0.330466079712E+01  0.172824025154E+01 -0.760520815849E+00
  0.330466079712E+01  0.172824025154E+01  0.760520815849E+00
  0.342464399338E+01  0.000000000000E+00 -0.102348911762E+01
  0.342464399338E+01  0.000000000000E+00  0.102348911762E+01
  0.352532196045E+01  0.305185556412E+01 -0.436294317245E+00
  0.352532196045E+01  0.305185556412E+01  0.436294317245E+00
  0.359163665771E+01  0.119528055191E+01 -0.902061402798E+00
  0.359163665771E+01  0.119528055191E+01  0.902061402798E+00
  0.376428389549E+01  0.339639574289E+00 -0.102348923683E+01
  0.376428389549E+01  0.339639574289E+00  0.102348923683E+01
  0.386280250549E+01  0.386280250549E+01  0.000000000000E+00
  0.392018008232E+01  0.234375929832E+01 -0.760520994663E+00
  0.392018008232E+01  0.234375929832E+01  0.760520994663E+00
  0.399592113495E+01  0.305185556412E+01 -0.604294061661E+00
  0.399592113495E+01  0.305185556412E+01  0.604294061661E+00
  0.401046848297E+01  0.386280250549E+01 -0.234920918941E+00
  0.401046848297E+01  0.386280250549E+01  0.234920918941E+00
  0.412459707260E+01  0.172824025154E+01 -0.902061522007E+00
  0.412459707260E+01  0.172824025154E+01  0.902061522007E+00
  0.416000986099E+01  0.735364913940E+00 -0.102348935604E+01
  0.416000986099E+01  0.735364913940E+00  0.102348935604E+01
  0.433626890182E+01  0.386280250549E+01 -0.436294436455E+00
  0.433626890182E+01  0.386280250549E+01  0.436294436455E+00
  0.461992597580E+01  0.119528055191E+01 -0.102348947525E+01
  0.461992597580E+01  0.119528055191E+01  0.102348947525E+01
  0.462827682495E+01  0.305185556412E+01 -0.760521173477E+00
  0.462827682495E+01  0.305185556412E+01  0.760521173477E+00
  0.466872262955E+01  0.000000000000E+00 -0.111146688461E+01
  0.466872262955E+01  0.000000000000E+00  0.111146688461E+01
  0.474011659622E+01  0.234375929832E+01 -0.902061700821E+00
  0.474011659622E+01  0.234375929832E+01  0.902061700821E+00
  0.478677463531E+01  0.478677463531E+01  0.000000000000E+00
  0.480686807632E+01  0.386280250549E+01 -0.604294240475E+00
  0.480686807632E+01  0.386280250549E+01  0.604294240475E+00
  0.493444061279E+01  0.478677463531E+01 -0.234920993447E+00
  0.493444061279E+01  0.478677463531E+01  0.234920993447E+00
  0.500836277008E+01  0.339639574289E+00 -0.111146700382E+01
  0.500836277008E+01  0.339639574289E+00  0.111146700382E+01
  0.515288639069E+01  0.172824025154E+01 -0.102348971367E+01
  0.515288639069E+01  0.172824025154E+01  0.102348971367E+01
  0.526024150848E+01  0.478677463531E+01 -0.436294555664E+00
  0.526024150848E+01  0.478677463531E+01  0.436294555664E+00
  0.540408849716E+01  0.735364913940E+00 -0.111146712303E+01
  0.540408849716E+01  0.735364913940E+00  0.111146712303E+01
  0.543922424316E+01  0.386280250549E+01 -0.760521352291E+00
  0.543922424316E+01  0.386280250549E+01  0.760521352291E+00
  0.544821310043E+01  0.305185556412E+01 -0.902061939240E+00
  0.544821310043E+01  0.305185556412E+01  0.902061939240E+00
  0.573084068298E+01  0.478677463531E+01 -0.604294419289E+00
  0.573084068298E+01  0.478677463531E+01  0.604294419289E+00
  0.576840591431E+01  0.234375929832E+01 -0.102348983288E+01
  0.576840591431E+01  0.234375929832E+01  0.102348983288E+01
  0.583337688446E+01  0.583337688446E+01  0.000000000000E+00
  0.586400508881E+01  0.119528055191E+01 -0.111146736145E+01
  0.586400508881E+01  0.119528055191E+01  0.111146736145E+01
  0.598104286194E+01  0.583337688446E+01 -0.234921067953E+00
  0.598104286194E+01  0.583337688446E+01  0.234921067953E+00
  0.611307668686E+01  0.000000000000E+00 -0.114008128643E+01
  0.611307668686E+01  0.000000000000E+00  0.114008128643E+01
  0.625916051865E+01  0.386280250549E+01 -0.902062177658E+00
  0.625916051865E+01  0.386280250549E+01  0.902062177658E+00
  0.630684375763E+01  0.583337688446E+01 -0.436294704676E+00
  0.630684375763E+01  0.583337688446E+01  0.436294704676E+00
  0.636319684982E+01  0.478677463531E+01 -0.760521590710E+00
  0.636319684982E+01  0.478677463531E+01  0.760521590710E+00
  0.639696550369E+01  0.172824025154E+01 -0.111146748066E+01
  0.639696550369E+01  0.172824025154E+01  0.111146748066E+01
  0.645271682739E+01  0.339639574289E+00 -0.114008140564E+01
  0.645271682739E+01  0.339639574289E+00  0.114008140564E+01
  0.647650289536E+01  0.305185556412E+01 -0.102349007130E+01
  0.647650289536E+01  0.305185556412E+01  0.102349007130E+01
  0.677744340897E+01  0.583337688446E+01 -0.604294598103E+00
  0.677744340897E+01  0.583337688446E+01  0.604294598103E+00
  0.684844303131E+01  0.735364913940E+00 -0.114008152485E+01
  0.684844303131E+01  0.735364913940E+00  0.114008152485E+01
  0.701104879379E+01  0.701104879379E+01  0.000000000000E+00
  0.701248550415E+01  0.234375929832E+01 -0.111146771908E+01
  0.701248550415E+01  0.234375929832E+01  0.111146771908E+01
  0.715871477127E+01  0.701104879379E+01 -0.234921157360E+00
  0.715871477127E+01  0.701104879379E+01  0.234921157360E+00
  0.718313360214E+01  0.478677463531E+01 -0.902062416077E+00
  0.718313360214E+01  0.478677463531E+01  0.902062416077E+00
  0.728745079041E+01  0.386280250549E+01 -0.102349042892E+01
  0.728745079041E+01  0.386280250549E+01  0.102349042892E+01
  0.730835962296E+01  0.119528055191E+01 -0.114008176327E+01
  0.730835962296E+01  0.119528055191E+01  0.114008176327E+01
  0.740979957581E+01  0.583337688446E+01 -0.760521829128E+00
  0.740979957581E+01  0.583337688446E+01  0.760521829128E+00
  0.748451566696E+01  0.701104879379E+01 -0.436294883490E+00
  0.748451566696E+01  0.701104879379E+01  0.436294883490E+00
  0.771254587173E+01  0.000000000000E+00 -0.108925735950E+01
  0.771254587173E+01  0.000000000000E+00  0.108925735950E+01
  0.772058296204E+01  0.305185556412E+01 -0.111146795750E+01
  0.772058296204E+01  0.305185556412E+01  0.111146795750E+01
  0.784132003784E+01  0.172824025154E+01 -0.114008188248E+01
  0.784132003784E+01  0.172824025154E+01  0.114008188248E+01
  0.795511531830E+01  0.701104879379E+01 -0.604294836521E+00
  0.795511531830E+01  0.701104879379E+01  0.604294836521E+00
  0.805218601227E+01  0.339639574289E+00 -0.108925747871E+01
  0.805218601227E+01  0.339639574289E+00  0.108925747871E+01
  0.821142387390E+01  0.478677463531E+01 -0.102349066734E+01
  0.821142387390E+01  0.478677463531E+01  0.102349066734E+01
[...]
CELL_DATA                3576
SCALARS C_p_inc float 1
LOOKUP_TABLE default
  0.198195268944E+00
  0.173745696508E+00
  0.144231186921E+00
  0.123891062700E+00
  0.115838952053E+00
  0.104554196512E+00
  0.974981376481E-01
  0.910068875880E-01
  0.837951299984E-01
  0.793006489203E-01
  0.716722022469E-01
  0.681804415953E-01
  0.597341873733E-01
  0.566206021895E-01
  0.472533579420E-01
  0.443058030699E-01
  0.348390833188E-01
  0.321875934217E-01
  0.268514220073E-01
  0.256604346174E-01
  0.284935909873E-01
  0.274911393792E-01
  0.466927688866E-01
  0.413131797325E-01
  0.988982650061E-01
  0.839153701157E-01
  0.172344757360E+00
  0.152113505976E+00
  0.250689875695E+00
  0.227170411071E+00
  0.335723699456E+00
  0.306803555273E+00
  0.437439064622E+00
  0.402353078534E+00
  0.563266431280E+00
  0.528475400801E+00
  0.719797794660E+00
  0.714336232143E+00
  0.765165764240E+00
  0.721273508516E+00
  0.343866066054E-01
  0.295758256833E+00
 -0.444152384565E+00
 -0.136494891217E+00
 -0.518075751095E+00
 -0.352851559307E+00
 -0.510570826920E+00
 -0.428336511183E+00
 -0.514807390032E+00
 -0.473033443734E+00
 -0.523102715930E+00
 -0.499633265978E+00
 -0.539693733941E+00
 -0.523974017295E+00
 -0.551499231088E+00
 -0.545192614587E+00
 -0.528268813440E+00
 -0.536486965966E+00
 -0.471375420757E+00
 -0.483741307043E+00
 -0.419712683936E+00
 -0.406553514270E+00
 -0.352949559555E+00
 -0.338767761305E+00
 -0.287374341649E+00
 -0.273281831240E+00
 -0.228839702721E+00
 -0.214406309380E+00
 -0.176879618365E+00
 -0.161206175004E+00
 -0.129643629454E+00
 -0.111217110017E+00
 -0.846137773428E-01
 -0.612077677841E-01
 -0.389864265896E-01
 -0.572280638902E-02
  0.136925270902E-01
  0.639949028566E-01
  0.104899133723E+00
  0.166944304455E+00
  0.192199607176E+00
  0.196593133688E+00
  0.146358313996E+00
  0.143952195311E+00
  0.124459722376E+00
  0.115779875767E+00
  0.104816043703E+00
  0.974794799260E-01
  0.888936736359E-01
  0.837888246604E-01
  0.754577135419E-01
  0.716731121987E-01
  0.628107914359E-01
  0.597413041805E-01
  0.498384993965E-01
  0.472642583094E-01
  0.367186411793E-01
  0.348385652295E-01
  0.271722248319E-01
  0.267890722666E-01
  0.274106459141E-01
  0.252929608701E-01
  0.413576509075E-01
  0.348305913006E-01
  0.843984621082E-01
  0.713292234621E-01
  0.152445576183E+00
  0.135935481247E+00
  0.226498479399E+00
  0.209216262211E+00
  0.303642933146E+00
  0.287057474203E+00
  0.392042958580E+00
  0.379065429477E+00
  0.498167984044E+00
  0.493314431991E+00
  0.625318434137E+00
  0.623707992594E+00
  0.581921037919E+00
  0.514252518156E+00
 -0.191797848019E+00
 -0.511915269451E-01
 -0.597774394792E+00
 -0.422293941593E+00
 -0.635890771463E+00
 -0.504164470713E+00
 -0.591688366106E+00
 -0.507437723369E+00
 -0.567931925923E+00
 -0.515498103529E+00
 -0.557322745251E+00
 -0.524683965035E+00
 -0.561677286415E+00
 -0.541498609280E+00
 -0.562147122320E+00
 -0.553912993279E+00
 -0.526290173192E+00
 -0.530864509326E+00
 -0.462365336808E+00
 -0.473137467901E+00
 -0.406463526884E+00
 -0.394953078466E+00
 -0.338557288180E+00
 -0.325247222582E+00
 -0.273112264789E+00
 -0.258798481543E+00
 -0.214297965302E+00
 -0.198790149410E+00
 -0.161150117561E+00
 -0.143587679154E+00
 -0.111207580933E+00
 -0.901422290774E-01
 -0.612593942819E-01
 -0.349354649308E-01
 -0.592803525349E-02
  0.243669547731E-01
  0.631005481765E-01
  0.856498627835E-01
  0.162517368310E+00
  0.170268434216E+00
  0.187366240256E+00
  0.191499072520E+00
  0.144169863315E+00
  0.146011960639E+00
  0.126229918805E+00
  0.124289551454E+00
  0.109878464539E+00
  0.104755006205E+00
  0.939984905141E-01
  0.888720617935E-01
  0.795024705108E-01
  0.754533745911E-01
  0.660070706400E-01
  0.628179408856E-01
  0.523860036887E-01
  0.498537183300E-01
  0.384531464693E-01
  0.367251595839E-01
  0.274168476015E-01
  0.271125752315E-01
  0.253098059248E-01
  0.231919858241E-01
  0.351902884719E-01
  0.292842892716E-01
  0.721178718905E-01
  0.614832987164E-01
  0.136146352658E+00
  0.122923950659E+00
  0.207734160662E+00
  0.194812013624E+00
  0.282492806656E+00
  0.272080081545E+00
  0.368641185827E+00
  0.362993742388E+00
  0.472945884480E+00
  0.473155226598E+00
  0.590295660464E+00
  0.585849019596E+00
  0.487110889001E+00
  0.420468944850E+00
 -0.351615994124E+00
 -0.230488879521E+00
 -0.732163539535E+00
 -0.586384718449E+00
 -0.736489548165E+00
 -0.621164235313E+00
 -0.664105622480E+00
 -0.583552138767E+00
 -0.619351757060E+00
 -0.564386118389E+00
 -0.592860940164E+00
 -0.556420259482E+00
 -0.584804202095E+00
 -0.562459577103E+00
 -0.573486652580E+00
 -0.564671953798E+00
 -0.526499283998E+00
 -0.529834136364E+00
 -0.455070678443E+00
 -0.465373301102E+00
 -0.394862636883E+00
 -0.383788366161E+00
 -0.324965595168E+00
 -0.311633343747E+00
 -0.258554105205E+00
 -0.243614153049E+00
 -0.198626881688E+00
 -0.181913556698E+00
 -0.143504548352E+00
 -0.124320565277E+00
 -0.901517802708E-01
 -0.680062876094E-01
 -0.351138444405E-01
 -0.120825003177E-01
  0.237634952499E-01
  0.414976982639E-01
  0.842446897166E-01
  0.936816684981E-01
  0.167477387472E+00
  0.171264100355E+00
  0.188889600702E+00
  0.186978435524E+00
  0.143100364294E+00
  0.143906855643E+00
  0.125704849143E+00
  0.126042812332E+00
  0.111612471253E+00
  0.109771940105E+00
  0.976756281840E-01
  0.939527147922E-01
  0.833747818876E-01
  0.794893066149E-01
  0.692723124296E-01
  0.660126368009E-01
  0.549639267453E-01
  0.524034892386E-01
  0.401917564774E-01
  0.384653400465E-01
  0.277944004297E-01
  0.273726438785E-01
  0.232420877170E-01
  0.214893162263E-01
  0.296616649161E-01
  0.247805175841E-01
  0.621199865115E-01
  0.538007160440E-01
  0.122872650607E+00
  0.112734401383E+00
  0.193048604320E+00
  0.183717654651E+00
  0.267644484236E+00
  0.261273575951E+00
  0.354506931048E+00
  0.352625151622E+00
  0.459347202771E+00
  0.461333428943E+00
  0.567855948895E+00
  0.561683900230E+00
  0.412034694858E+00
  0.347322665414E+00
 -0.489323501968E+00
 -0.376054956246E+00
 -0.852693587935E+00
 -0.722537425868E+00
 -0.828132376314E+00
 -0.723520630137E+00
 -0.731911409091E+00
 -0.655611238625E+00
 -0.669424145216E+00
 -0.614745809475E+00
 -0.628619492960E+00
 -0.591184329833E+00
 -0.608394903434E+00
 -0.585462255754E+00
 -0.585425813389E+00
 -0.576390198792E+00
 -0.527905771810E+00
 -0.530622248554E+00
 -0.448737227490E+00
 -0.458860258943E+00
 -0.383835538035E+00
 -0.372879819172E+00
 -0.311367016026E+00
 -0.297805038848E+00
 -0.243335437528E+00
 -0.227723749791E+00
 -0.181711147912E+00
 -0.164040340829E+00
 -0.124222900590E+00
 -0.104586142325E+00
 -0.680656101414E-01
 -0.482429111944E-01
 -0.124193799930E-01
  0.356559575896E-02
  0.407534739871E-01
  0.505815525427E-01
  0.924610970795E-01
  0.965961129926E-01
  0.169132054317E+00
  0.166334663105E+00
  0.186623150243E+00
  0.188348325494E+00
  0.141999384624E+00
  0.142856873808E+00
  0.124897275054E+00
  0.125535222494E+00
  0.111691140437E+00
  0.111493542617E+00
  0.993707976358E-01
  0.976062039359E-01
  0.863129120065E-01
  0.833474431450E-01
  0.723391643751E-01
  0.692730856323E-01
  0.575465194373E-01
  0.549824703129E-01
  0.420043783226E-01
  0.402115102632E-01
  0.284143186539E-01
  0.277738000508E-01
  0.215381261045E-01
  0.203596473098E-01
  0.250957449795E-01
  0.214296780501E-01
  0.542574393112E-01
  0.481579930801E-01
  0.112541872633E+00
  0.105368769259E+00
  0.182034761891E+00
  0.175848783603E+00
  0.257478244965E+00
  0.254105018196E+00
  0.346103298186E+00
  0.346533866759E+00
  0.451937837368E+00
  0.454710742443E+00
  0.551616950784E+00
  0.544379923208E+00
  0.346581756557E+00
  0.283556933749E+00
 -0.615285557738E+00
 -0.506003211514E+00
 -0.964596951604E+00
 -0.844307320705E+00
 -0.913720443413E+00
 -0.817033659806E+00
 -0.795982775407E+00
 -0.724107751178E+00
 -0.717515967815E+00
 -0.664865396045E+00
 -0.663366963692E+00
 -0.626941557658E+00
 -0.631450285765E+00
 -0.609307578640E+00
 -0.597522413022E+00
 -0.588740989730E+00
 -0.529951215958E+00
 -0.532494931933E+00
 -0.442980439357E+00
 -0.453112300829E+00
 -0.373115761097E+00
 -0.362120456063E+00
 -0.297603856826E+00
 -0.283758286296E+00
 -0.227446106949E+00
 -0.211361168192E+00
 -0.163824888259E+00
 -0.146038070620E+00
 -0.104502702884E+00
 -0.865298243028E-01
 -0.483669186833E-01
 -0.331486127783E-01
  0.318315251935E-02
  0.136416040427E-01
  0.499470345174E-01
  0.560093966694E-01
  0.957406669092E-01
  0.987738327403E-01
  0.165329668365E+00
  0.167270978577E+00
  0.186342095458E+00
  0.186267062749E+00
  0.141110769744E+00
  0.141776390668E+00
  0.123998049990E+00
  0.124735411486E+00
  0.111178525426E+00
  0.111572994593E+00
  0.997469164839E-01
  0.992898376219E-01
  0.879272909404E-01
  0.862700886421E-01
  0.747647651934E-01
  0.723309591287E-01
  0.599765020007E-01
  0.575638685748E-01
  0.438953884551E-01
  0.420323593104E-01
  0.293457208162E-01
  0.284212299434E-01
  0.203947788115E-01
  0.199170693666E-01
  0.216641917384E-01
  0.193188676154E-01
  0.484606885968E-01
  0.444795695018E-01
  0.105125084832E+00
  0.100648088328E+00
  0.174430952340E+00
  0.171010561686E+00
  0.251124038672E+00
  0.250165909350E+00
  0.341767052042E+00
  0.343833503867E+00
  0.448476994182E+00
  0.451666242929E+00
  0.539104533001E+00
  0.531145187952E+00
  0.286739631235E+00
  0.225138720843E+00
 -0.733648055818E+00
 -0.627021688544E+00
 -0.107017106981E+01
 -0.957318550899E+00
 -0.994371078764E+00
 -0.904473750321E+00
 -0.856416914581E+00
 -0.789366247685E+00
 -0.763025837197E+00
 -0.713667882002E+00
 -0.696311587518E+00
 -0.662208081324E+00
 -0.653362745701E+00
 -0.632842788383E+00
 -0.609213335121E+00
 -0.601229511228E+00
 -0.532103777382E+00
 -0.534902364179E+00
 -0.437470157927E+00
 -0.447771826759E+00
 -0.362543661832E+00
 -0.351430489150E+00
 -0.283642746088E+00
 -0.269643949339E+00
 -0.211109872838E+00
 -0.195156006989E+00
 -0.145839114374E+00
 -0.129368273045E+00
 -0.864834609824E-01
 -0.718383466812E-01
 -0.332962896115E-01
 -0.223439040016E-01
  0.133241302912E-01
  0.205585462935E-01
  0.555632221741E-01
  0.600230604123E-01
  0.982139357365E-01
  0.100665122184E+00
  0.166437657666E+00
  0.166766895851E+00
  0.184837822903E+00
  0.185963358230E+00
  0.140188796773E+00
  0.140901298127E+00
  0.123163824841E+00
  0.123843581968E+00
  0.110498250534E+00
  0.111061647266E+00
  0.994964501383E-01
  0.996612659098E-01
  0.884876003540E-01
  0.878730076765E-01
  0.762666576971E-01
  0.747446819627E-01
  0.619840503208E-01
  0.599887896466E-01
  0.457703643143E-01
  0.439294417644E-01
  0.305913380973E-01
  0.293783477258E-01
  0.199359925653E-01
  0.201922786611E-01
  0.194741945309E-01
  0.184535253443E-01
  0.446614426459E-01
  0.426426372779E-01
  0.100413273248E+00
  0.983102591931E-01
  0.169928107983E+00
  0.168899078238E+00
  0.248011943709E+00
  0.249059788707E+00
  0.340589496030E+00
  0.343918700101E+00
  0.447843553417E+00
  0.451279661117E+00
  0.529122895992E+00
  0.520616095455E+00
  0.230642357271E+00
  0.170355608156E+00
 -0.846007499662E+00
 -0.741950881169E+00
 -0.117012126932E+01
 -0.106398953505E+01
 -0.107025160504E+01
 -0.986953551231E+00
 -0.912944027344E+00
 -0.851231016624E+00
 -0.805417326404E+00
 -0.760235319387E+00
 -0.726885777262E+00
 -0.695939440295E+00
 -0.673664516627E+00
 -0.655337153843E+00
 -0.620016011879E+00
 -0.613301585755E+00
 -0.533940752626E+00
 -0.537324300018E+00
 -0.431979569797E+00
 -0.442512174908E+00
 -0.352004977240E+00
 -0.340847867758E+00
 -0.269614108864E+00
 -0.255894047090E+00
 -0.194952600671E+00
 -0.180144690719E+00
 -0.129214569851E+00
 -0.115346719186E+00
 -0.718256615428E-01
 -0.607073159362E-01
 -0.224661224260E-01
 -0.145371954844E-01
  0.203439342801E-01
  0.256826538586E-01
  0.597454871350E-01
  0.632647478072E-01
  0.100337805901E+00
  0.102709643840E+00
  0.166387454532E+00
  0.168391618536E+00
  0.184837529354E+00
  0.184543780427E+00
  0.139748218301E+00
  0.139995929434E+00
  0.122542936078E+00
  0.123013979464E+00
  0.109860756816E+00
  0.110381423370E+00
  0.990289497334E-01
  0.994073231478E-01
  0.884588688184E-01
  0.884254166082E-01
  0.769487735806E-01
  0.762348603216E-01
  0.633665837454E-01
  0.619871246364E-01
  0.474470356148E-01
  0.458054616900E-01
  0.320613074943E-01
  0.306430031453E-01
  0.201997671350E-01
  0.211251701341E-01
  0.185439932440E-01
  0.187468708136E-01
  0.427388133069E-01
  0.424656067864E-01
  0.981189407661E-01
  0.980473492292E-01
  0.168151997910E+00
  0.169123629449E+00
  0.247656072735E+00
  0.250346840827E+00
  0.341957841524E+00
  0.346274497422E+00
  0.449353219406E+00
  0.452923119918E+00
  0.520971659487E+00
  0.512025148500E+00
  0.177377457632E+00
  0.118499813373E+00
 -0.952692018054E+00
 -0.851815214169E+00
 -0.126430730901E+01
 -0.116505496453E+01
 -0.114106508355E+01
 -0.106460767646E+01
 -0.965175369588E+00
 -0.909253253927E+00
 -0.844257311710E+00
 -0.803797177694E+00
 -0.754680234128E+00
 -0.727373806404E+00
 -0.691958513744E+00
 -0.676220694458E+00
 -0.629545504493E+00
 -0.624430569821E+00
 -0.535181847061E+00
 -0.539306953851E+00
 -0.426449971563E+00
 -0.437079463213E+00
 -0.341519779410E+00
 -0.330638343824E+00
 -0.255942834269E+00
 -0.243243997672E+00
 -0.180010644952E+00
 -0.167352955696E+00
 -0.115252048995E+00
 -0.104408630356E+00
 -0.607095092645E-01
 -0.524728632298E-01
 -0.146120809244E-01
 -0.875063087634E-02
  0.255683325776E-01
  0.296394841154E-01
  0.631286690988E-01
  0.659065085990E-01
  0.102550338187E+00
  0.104311164881E+00
  0.168147628282E+00
  0.168795759663E+00
  0.185131013210E+00
  0.184525584770E+00
  0.139660988023E+00
  0.139557150688E+00
  0.122213951596E+00
  0.122394227795E+00
  0.109404908376E+00
  0.109742292846E+00
  0.985773160027E-01
  0.989357284947E-01
  0.881993044072E-01
  0.883899363386E-01
  0.771227148540E-01
  0.769067627118E-01
  0.641533560729E-01
  0.633581357473E-01
  0.487659249470E-01
  0.474768816354E-01
  0.335873919335E-01
  0.321222098464E-01
  0.211296649476E-01
  0.225636226312E-01
  0.187927497175E-01
  0.200190268956E-01
  0.425079122972E-01
  0.436953006465E-01
  0.979149955602E-01
  0.995077105268E-01
  0.168674241826E+00
  0.171248851009E+00
  0.249570806870E+00
  0.253545357828E+00
  0.345347490482E+00
  0.350391193960E+00
  0.452470783099E+00
  0.456066897343E+00
  0.514138919148E+00
  0.504856939701E+00
  0.126509486688E+00
  0.693528911695E-01
 -0.105338104235E+01
 -0.956664553960E+00
 -0.135220243598E+01
 -0.126034639141E+01
 -0.120635473753E+01
 -0.113707007178E+01
 -0.101274023034E+01
 -0.962900106265E+00
 -0.879221000846E+00
 -0.843753248833E+00
 -0.779403831984E+00
 -0.755967641229E+00
 -0.707970208459E+00
 -0.695011581249E+00
 -0.637578743857E+00
 -0.634164842209E+00
 -0.535748279951E+00
 -0.540515135270E+00
 -0.421060256220E+00
 -0.431372703947E+00
 -0.331355007207E+00
 -0.321317892587E+00
 -0.243368133091E+00
 -0.232473167637E+00
 -0.167301739544E+00
 -0.157266915532E+00
 -0.104368349179E+00
 -0.962500831291E-01
 -0.524760133626E-01
 -0.464164204910E-01
 -0.877751979856E-02
 -0.442355703575E-02
  0.296086609468E-01
  0.326747791705E-01
  0.658818382259E-01
  0.679789652049E-01
  0.104298300690E+00
  0.105606938883E+00
  0.168809751886E+00
  0.169308956504E+00
  0.185592164957E+00
  0.184808678226E+00
  0.139725555004E+00
  0.139461925230E+00
  0.122057284752E+00
  0.122059262651E+00
  0.109115528186E+00
  0.109281164472E+00
  0.982341950809E-01
  0.984784287108E-01
  0.879182995255E-01
  0.881234563966E-01
  0.770770712247E-01
  0.770715224440E-01
  0.645443769974E-01
  0.641331745897E-01
  0.497084609580E-01
  0.487855478904E-01
  0.350047502202E-01
  0.336471201951E-01
  0.225726255708E-01
  0.242910113047E-01
  0.200404115836E-01
  0.220097780979E-01
  0.437091102914E-01
  0.460095442875E-01
  0.994354553818E-01
  0.102297015836E+00
  0.171041322446E+00
  0.174814843748E+00
  0.253258024985E+00
  0.258154501122E+00
  0.350249020010E+00
  0.355754412930E+00
  0.456704956524E+00
  0.460216160559E+00
  0.508200379555E+00
  0.498716891509E+00
  0.778919374214E-01
  0.229572054751E-01
 -0.114746022176E+01
 -0.105602125372E+01
 -0.143317399796E+01
 -0.134928047139E+01
 -0.126567890898E+01
 -0.120380747455E+01
 -0.105536188370E+01
 -0.101169408334E+01
 -0.910116137123E+00
 -0.879666138349E+00
 -0.800917602152E+00
 -0.781332955105E+00
 -0.721609940866E+00
 -0.711354145118E+00
 -0.644118481573E+00
 -0.642208846534E+00
 -0.535811695435E+00
 -0.540816012447E+00
 -0.416211456463E+00
 -0.425549678936E+00
 -0.322043831370E+00
 -0.313471214184E+00
 -0.232671860501E+00
 -0.224020333568E+00
 -0.157296107361E+00
 -0.149772891548E+00
 -0.962523097346E-01
 -0.903270098462E-01
 -0.464158492818E-01
 -0.419923074134E-01
 -0.441066706767E-02
 -0.118469650140E-02
  0.327110935985E-01
  0.350389080315E-01
  0.680472380512E-01
  0.696955760918E-01
  0.105717168240E+00
  0.106794518789E+00
  0.169498754837E+00
  0.169920821304E+00
  0.185106319802E+00
  0.185244961198E+00
  0.139520960185E+00
  0.139513633001E+00
  0.121871139213E+00
  0.121893196927E+00
  0.108892209156E+00
  0.108983862000E+00
  0.979830744657E-01
  0.981279317288E-01
  0.876941429293E-01
  0.878348640194E-01
  0.769878814332E-01
  0.770171140795E-01
  0.647514917091E-01
  0.645131640878E-01
  0.503829384667E-01
  0.497155858554E-01
  0.362416844116E-01
  0.350551160432E-01
  0.243071623568E-01
  0.260985285499E-01
  0.220219000216E-01
  0.244192722183E-01
  0.460120412550E-01
  0.490403033905E-01
  0.102275408560E+00
  0.105990175324E+00
  0.174785568991E+00
  0.179349993054E+00
  0.258216628875E+00
  0.263673903578E+00
  0.356160548819E+00
  0.361862353228E+00
  0.461590465229E+00
  0.464910170112E+00
  0.502807969683E+00
  0.493294402759E+00
  0.315908295987E-01
 -0.205030047273E-01
 -0.123424855172E+01
 -0.114916140242E+01
 -0.150667258812E+01
 -0.143116434799E+01
 -0.131873253573E+01
 -0.126431449823E+01
 -0.109292505634E+01
 -0.105528452752E+01
 -0.936935667947E+00
 -0.911266613610E+00
 -0.819287805584E+00
 -0.803257609592E+00
 -0.733021071080E+00
 -0.725091608261E+00
 -0.649414066873E+00
 -0.648512832866E+00
 -0.535748437776E+00
 -0.540365186580E+00
 -0.412346924350E+00
 -0.420056151672E+00
 -0.314190764161E+00
 -0.307459675401E+00
 -0.224286771722E+00
 -0.217856050418E+00
 -0.149868653732E+00
 -0.144447041253E+00
 -0.903611964554E-01
 -0.861135191882E-01
 -0.419890386777E-01
 -0.387702719717E-01
 -0.114288488512E-02
  0.128472375153E-02
  0.351248187040E-01
  0.369889774025E-01
  0.698334238409E-01
  0.713286151763E-01
  0.106999267082E+00
  0.108313692422E+00
  0.170259694168E+00
  0.171726763099E+00
  0.185064439959E+00
  0.184789170121E+00
  0.139453848739E+00
  0.139310854062E+00
  0.121753764351E+00
  0.121702174121E+00
  0.108731540459E+00
  0.108753563724E+00
  0.978016083635E-01
  0.978692375315E-01
  0.875356142727E-01
  0.876028630159E-01
  0.769273202961E-01
  0.769194228881E-01
  0.649094617771E-01
  0.647101175654E-01
  0.509211581195E-01
  0.503774274997E-01
  0.373219723488E-01
  0.362782948003E-01
  0.261190783718E-01
  0.278540553003E-01
  0.244300124912E-01
  0.269767318643E-01
  0.490402971306E-01
  0.524223481075E-01
  0.106003084179E+00
  0.110163849460E+00
  0.179434629011E+00
  0.184394527770E+00
  0.263955197659E+00
  0.269626890205E+00
  0.362601995008E+00
  0.368249557505E+00
  0.466701913828E+00
  0.469740127444E+00
  0.497698996626E+00
  0.488354181048E+00
 -0.121762065530E-01
 -0.607902623781E-01
 -0.131317640925E+01
 -0.123531522733E+01
 -0.157238246033E+01
 -0.150539960690E+01
 -0.136545394896E+01
 -0.131824394677E+01
 -0.112554081145E+01
 -0.109351199013E+01
 -0.959901332249E+00
 -0.938502278707E+00
 -0.834808498106E+00
 -0.821766602878E+00
 -0.742564211777E+00
 -0.736339193793E+00
 -0.653882551236E+00
 -0.653329403986E+00
 -0.535965300247E+00
 -0.539597480002E+00
 -0.409719584738E+00
 -0.415452081947E+00
 -0.308167076564E+00
 -0.303287184729E+00
 -0.218175644953E+00
 -0.213643260414E+00
 -0.144592704281E+00
 -0.140797866084E+00
 -0.861721510728E-01
 -0.831588904942E-01