# vtk DataFile Version 3.0
MachLine results file. Generated by MachLine, USU AeroLab (c) 2022.
ASCII
DATASET POLYDATA
POINTS                 144 float
  0.000000000000E+00  0.000000000000E+00  0.000000000000E+00
  0.113538098335E+01  0.000000000000E+00 -0.658124566078E+00
  0.113538098335E+01  0.000000000000E+00  0.658124566078E+00
  0.192375373840E+01  0.192375373840E+01  0.000000000000E+00
  0.305913543701E+01  0.192375373840E+01 -0.658124983311E+00
  0.305913543701E+01  0.192375373840E+01  0.658124983311E+00
  0.423028087616E+01  0.000000000000E+00 -0.108747220039E+01
  0.423028087616E+01  0.000000000000E+00  0.108747220039E+01
  0.547033166885E+01  0.547033166885E+01  0.000000000000E+00
  0.615403699875E+01  0.192375373840E+01 -0.108747279644E+01
  0.615403699875E+01  0.192375373840E+01  0.108747279644E+01
  0.660571479797E+01  0.547033166885E+01 -0.658125698566E+00
  0.660571479797E+01  0.547033166885E+01  0.658125698566E+00
  0.939508819580E+01  0.000000000000E+00 -0.980745851994E+00
  0.939508819580E+01  0.000000000000E+00  0.980745851994E+00
  0.970061969757E+01  0.547033166885E+01 -0.108747410774E+01
  0.970061969757E+01  0.547033166885E+01  0.108747410774E+01
  0.113188476562E+02  0.192375373840E+01 -0.980746448040E+00
  0.113188476562E+02  0.192375373840E+01  0.980746448040E+00
  0.113820018768E+02  0.113820018768E+02  0.000000000000E+00
  0.125173873901E+02  0.113820018768E+02 -0.658127009869E+00
  0.125173873901E+02  0.113820018768E+02  0.658127009869E+00
  0.145402030945E+02  0.000000000000E+00 -0.479613035917E+00
  0.145402030945E+02  0.000000000000E+00  0.479613035917E+00
  0.148654365540E+02  0.547033166885E+01 -0.980747580528E+00
  0.148654365540E+02  0.547033166885E+01  0.980747580528E+00
  0.156122989655E+02  0.113820018768E+02 -0.108747613430E+01
  0.156122989655E+02  0.113820018768E+02  0.108747613430E+01
  0.164639663696E+02  0.192375373840E+01 -0.479613333941E+00
  0.164639663696E+02  0.192375373840E+01  0.479613333941E+00
  0.176505107880E+02  0.000000000000E+00 -0.144198849797E+00
  0.176505107880E+02  0.000000000000E+00  0.144198849797E+00
  0.190000000000E+02  0.000000000000E+00  0.000000000000E+00
  0.195742740631E+02  0.192375373840E+01 -0.144198939204E+00
  0.195742740631E+02  0.192375373840E+01  0.144198939204E+00
  0.197561950684E+02  0.197561950684E+02  0.000000000000E+00
  0.200105609894E+02  0.547033166885E+01 -0.479613870382E+00
  0.200105609894E+02  0.547033166885E+01  0.479613870382E+00
  0.207771244049E+02  0.113820018768E+02 -0.980749428272E+00
  0.207771244049E+02  0.113820018768E+02  0.980749428272E+00
  0.208915824890E+02  0.197561950684E+02 -0.658128738403E+00
  0.208915824890E+02  0.197561950684E+02  0.658128738403E+00
  0.209237651825E+02  0.192375373840E+01  0.000000000000E+00
  0.231208724976E+02  0.547033166885E+01 -0.144199103117E+00
  0.231208724976E+02  0.547033166885E+01  0.144199103117E+00
  0.239865016937E+02  0.197561950684E+02 -0.108747911453E+01
  0.239865016937E+02  0.197561950684E+02  0.108747911453E+01
  0.244703655243E+02  0.547033166885E+01  0.000000000000E+00
  0.259222583771E+02  0.113820018768E+02 -0.479614794254E+00
  0.259222583771E+02  0.113820018768E+02  0.479614794254E+00
  0.290325775146E+02  0.113820018768E+02 -0.144199386239E+00
  0.290325775146E+02  0.113820018768E+02  0.144199386239E+00
  0.291513423920E+02  0.197561950684E+02 -0.980752110481E+00
  0.291513423920E+02  0.197561950684E+02  0.980752110481E+00
  0.292438049316E+02  0.292438049316E+02  0.000000000000E+00
  0.303791980743E+02  0.292438049316E+02 -0.658130764961E+00
  0.303791980743E+02  0.292438049316E+02  0.658130764961E+00
  0.303820724487E+02  0.113820018768E+02  0.000000000000E+00
  0.334741249084E+02  0.292438049316E+02 -0.108748245239E+01
  0.334741249084E+02  0.292438049316E+02  0.108748245239E+01
  0.342964897156E+02  0.197561950684E+02 -0.479616105556E+00
  0.342964897156E+02  0.197561950684E+02  0.479616105556E+00
  0.374068183899E+02  0.197561950684E+02 -0.144199773669E+00
  0.374068183899E+02  0.197561950684E+02  0.144199773669E+00
  0.376179962158E+02  0.376179962158E+02  0.000000000000E+00
  0.386389808655E+02  0.292438049316E+02 -0.980755090714E+00
  0.386389808655E+02  0.292438049316E+02  0.980755090714E+00
  0.387533912659E+02  0.376179962158E+02 -0.658132553101E+00
  0.387533912659E+02  0.376179962158E+02  0.658132553101E+00
  0.387563171387E+02  0.197561950684E+02  0.000000000000E+00
  0.418483314514E+02  0.376179962158E+02 -0.108748543262E+01
  0.418483314514E+02  0.376179962158E+02  0.108748543262E+01
  0.435296669006E+02  0.435296669006E+02  0.000000000000E+00
  0.437841453552E+02  0.292438049316E+02 -0.479617565870E+00
  0.437841453552E+02  0.292438049316E+02  0.479617565870E+00
  0.446650657654E+02  0.435296669006E+02 -0.658133804798E+00
  0.446650657654E+02  0.435296669006E+02  0.658133804798E+00
  0.468944816589E+02  0.292438049316E+02 -0.144200220704E+00
  0.468944816589E+02  0.292438049316E+02  0.144200220704E+00
  0.470131988525E+02  0.376179962158E+02 -0.980757772923E+00
  0.470131988525E+02  0.376179962158E+02  0.980757772923E+00
  0.470762481689E+02  0.470762481689E+02  0.000000000000E+00
  0.477600097656E+02  0.435296669006E+02 -0.108748745918E+01
  0.477600097656E+02  0.435296669006E+02  0.108748745918E+01
  0.482116432190E+02  0.470762481689E+02 -0.658134579659E+00
  0.482116432190E+02  0.470762481689E+02  0.658134579659E+00
  0.482439842224E+02  0.292438049316E+02  0.000000000000E+00
  0.490000000000E+02  0.490000000000E+02  0.000000000000E+00
  0.501353988647E+02  0.490000000000E+02 -0.658134996891E+00
  0.501353988647E+02  0.490000000000E+02  0.658134996891E+00
  0.506007728577E+02  0.494653701782E+02 -0.465371757746E+00
  0.506007728577E+02  0.494653701782E+02  0.465371757746E+00
  0.507935333252E+02  0.496581344604E+02 -0.771266485397E-15
  0.513065910339E+02  0.470762481689E+02 -0.108748877048E+01
  0.513065910339E+02  0.470762481689E+02  0.108748877048E+01
  0.521583786011E+02  0.376179962158E+02 -0.479618877172E+00
  0.521583786011E+02  0.376179962158E+02  0.479618877172E+00
  0.529248886108E+02  0.435296669006E+02 -0.980759620667E+00
  0.529248886108E+02  0.435296669006E+02  0.980759620667E+00
  0.532303466797E+02  0.490000000000E+02 -0.108748936653E+01
  0.532303466797E+02  0.490000000000E+02  0.108748936653E+01
  0.539993209839E+02  0.497689704895E+02 -0.768971264362E+00
  0.539993209839E+02  0.497689704895E+02  0.768971264362E+00
  0.543178405762E+02  0.500874900818E+02 -0.157378642191E-15
  0.552687225342E+02  0.376179962158E+02 -0.144200608134E+00
  0.552687225342E+02  0.376179962158E+02  0.144200608134E+00
  0.564714775085E+02  0.470762481689E+02 -0.980760753155E+00
  0.564714775085E+02  0.470762481689E+02  0.980760753155E+00
  0.566182289124E+02  0.376179962158E+02  0.000000000000E+00
  0.580700759888E+02  0.435296669006E+02 -0.479619771242E+00
  0.580700759888E+02  0.435296669006E+02  0.479619771242E+00
  0.583952369690E+02  0.490000000000E+02 -0.980761349201E+00
  0.583952369690E+02  0.490000000000E+02  0.980761349201E+00
  0.590887413025E+02  0.496935043335E+02 -0.693503141403E+00
  0.590887413025E+02  0.496935043335E+02  0.693503141403E+00
  0.593759994507E+02  0.499807624817E+02  0.000000000000E+00
  0.611804275513E+02  0.435296669006E+02 -0.144200876355E+00
  0.611804275513E+02  0.435296669006E+02  0.144200876355E+00
  0.616166725159E+02  0.470762481689E+02 -0.479620337486E+00
  0.616166725159E+02  0.470762481689E+02  0.479620337486E+00
  0.625299339294E+02  0.435296669006E+02  0.000000000000E+00
  0.635404319763E+02  0.490000000000E+02 -0.479620635509E+00
  0.635404319763E+02  0.490000000000E+02  0.479620635509E+00
  0.638795776367E+02  0.493391418457E+02 -0.339143037796E+00
  0.638795776367E+02  0.493391418457E+02  0.339143037796E+00
  0.640200576782E+02  0.494796218872E+02  0.296956834055E-15
  0.647270278931E+02  0.470762481689E+02 -0.144201040268E+00
  0.647270278931E+02  0.470762481689E+02  0.144201040268E+00
  0.660765380859E+02  0.470762481689E+02  0.000000000000E+00
  0.666507873535E+02  0.490000000000E+02 -0.144201144576E+00
  0.666507873535E+02  0.490000000000E+02  0.144201144576E+00
  0.667527542114E+02  0.491019668579E+02 -0.101965606213E+00
  0.667527542114E+02  0.491019668579E+02  0.101965606213E+00
  0.667949905396E+02  0.491441993713E+02 -0.260488604752E-16
  0.680002975464E+02  0.490000000000E+02  0.000000000000E+00
  0.566182289124E+02  0.376179962158E+02  0.000000000000E+00
  0.482439842224E+02  0.292438049316E+02  0.000000000000E+00
  0.660765380859E+02  0.470762481689E+02  0.000000000000E+00
  0.625299339294E+02  0.435296669006E+02  0.000000000000E+00
  0.209237651825E+02  0.192375373840E+01  0.000000000000E+00
  0.190000000000E+02  0.000000000000E+00  0.000000000000E+00
  0.244703655243E+02  0.547033166885E+01  0.000000000000E+00
  0.303820724487E+02  0.113820018768E+02  0.000000000000E+00
  0.387563171387E+02  0.197561950684E+02  0.000000000000E+00
POLYGONS                 256                1024
3                  32                  33                  42
3                  32                  30                  33
3                  30                  28                  33
3                  30                  22                  28
3                  22                  17                  28
3                  22                  13                  17
3                  13                   6                  17
3                  17                   6                   9
3                   6                   1                   9
3                   9                   1                   4
3                   1                   0                   4
3                   4                   0                   3
3                   0                   5                   3
3                   0                   2                   5
3                   2                  10                   5
3                   2                   7                  10
[...]
CELL_DATA                 256
SCALARS C_p_inc float 1
LOOKUP_TABLE default
  0.135254569104E+00
  0.114666067572E+00
  0.762603958101E-01
  0.577071939216E-01
  0.239184630562E-01
  0.108317624160E-01
  0.520803057365E-01
  0.294932052119E-01
  0.248780952973E+00
  0.183100079534E+00
  0.594944433598E+00
  0.596003112574E+00
 -0.538435961925E+00
  0.130064368471E-01
 -0.658485287914E+00
 -0.462300017513E+00
 -0.467039391425E+00
 -0.478134471297E+00
 -0.336400825696E+00
 -0.275105676946E+00
 -0.150244772833E+00
 -0.714804741438E-01
  0.131042324990E-01
  0.994762350089E-01
  0.130648453551E+00
  0.133926466303E+00
  0.785088517353E-01
  0.761294484835E-01
  0.318920329085E-01
  0.240433134278E-01
  0.301718444700E-01
  0.255209637485E-01
  0.177697168528E+00
  0.180100900305E+00
  0.523169237545E+00
  0.508747174156E+00
 -0.825191178941E+00
 -0.513004555435E+00
 -0.796936705761E+00
 -0.653392609148E+00
 -0.479873575412E+00
 -0.484770511285E+00
 -0.275783819855E+00
 -0.221305589139E+00
 -0.712326199422E-01
 -0.252603618368E-01
  0.963338051505E-01
  0.112601882454E+00
  0.129187208955E+00
  0.129878408076E+00
  0.762955845022E-01
  0.782237698273E-01
  0.340225161300E-01
  0.320191654057E-01
  0.256884171502E-01
  0.357331268690E-01
  0.178633726833E+00
  0.200175864315E+00
  0.511859597772E+00
  0.494905951546E+00
 -0.101742825900E+01
 -0.819478321683E+00
 -0.876185849572E+00
 -0.801189623160E+00
 -0.482365480319E+00
 -0.495698762501E+00
 -0.222701083036E+00
 -0.196810272078E+00
 -0.252584942328E-01
 -0.103850515241E-01
  0.112699919897E+00
  0.119904189704E+00
  0.126556757863E+00
  0.128276250413E+00
  0.730437240359E-01
  0.759027994771E-01
  0.329905493256E-01
  0.340040825957E-01
  0.357318465358E-01
  0.413808048219E-01
  0.200754516726E+00
  0.217527089780E+00
  0.505374182424E+00
  0.492393672664E+00
 -0.111627390004E+01
 -0.101739739277E+01
 -0.913670123573E+00
 -0.882981838905E+00
 -0.488033093072E+00
 -0.491084281920E+00
 -0.198216754799E+00
 -0.189828489048E+00
 -0.103274321802E-01
 -0.220865608760E-02
  0.121029938199E+00
  0.127731131581E+00
  0.117473953865E+00
  0.125043381096E+00
  0.620616190271E-01
  0.723634947711E-01
  0.238811647157E-01
  0.328312035199E-01
  0.412391457621E-01
  0.362117770790E-01
  0.217192951969E+00
  0.219096621919E+00
  0.495961787717E+00
  0.492067948663E+00
 -0.114200987867E+01
 -0.111664927376E+01
 -0.918947846606E+00
 -0.917343740342E+00
 -0.481558003929E+00
 -0.492463787303E+00
 -0.191177100948E+00
 -0.176933548853E+00
 -0.224787729035E-02
  0.151234717204E-01
  0.129291487919E+00
  0.145373645972E+00
  0.103730388425E+00
  0.113878371925E+00
  0.394483680670E-01
  0.603027996819E-01
 -0.302878795394E-02
  0.233867049574E-01
  0.355746918096E-01
  0.110488434083E-01
  0.216770171181E+00
  0.200445717580E+00
  0.487881171991E+00
  0.494732058911E+00
 -0.109865743121E+01
 -0.114228501214E+01
 -0.887838166402E+00
 -0.922522429336E+00
 -0.451696692824E+00
 -0.486889584018E+00
 -0.178234832837E+00
 -0.142043945837E+00
  0.148858001114E-01
  0.606253557546E-01
  0.147806045792E+00
  0.192289133754E+00
  0.187383768419E+00
  0.895428097801E-01
 -0.180430001657E-02
  0.315188962378E-01
 -0.623800518184E-01
 -0.545663818236E-02
  0.797630720346E-02
 -0.493985564045E-01
  0.193306008131E+00
  0.152163306283E+00
  0.478290399295E+00
  0.495597102104E+00
 -0.100320447291E+01
 -0.109870002263E+01
 -0.828585368090E+00
 -0.892681801386E+00
 -0.401787372027E+00
 -0.460145096398E+00
 -0.142576862124E+00
 -0.906199309539E-01
  0.603469362088E-01
  0.133914481092E+00
  0.195518185675E+00
  0.380171340500E+00
 -0.223759483094E+02
 -0.870061904960E-01
  0.678973636615E+00
 -0.144818495135E+00
 -0.454589321711E+00
 -0.751647605844E-01
 -0.649195484721E-01
 -0.139159520120E+00
  0.130593823341E+00
  0.572500720266E-01
  0.451574632282E+00
  0.482157590932E+00
 -0.878263072855E+00
 -0.100234526381E+01
 -0.745789980980E+00
 -0.836280966709E+00
 -0.342575416374E+00
 -0.416351160814E+00
 -0.903090090560E-01
 -0.307650093713E+00
  0.104539226948E+00
  0.775103568960E+00
 -0.251207014625E+00
 -0.216486102445E+02
 -0.402733921420E+08
 -0.210479194057E+05
 -0.118382693367E+05
  0.868184690893E+00
  0.105637605307E+00
 -0.449045818709E+00
 -0.229267824632E+00
 -0.262373729786E+00
 -0.962195465919E-02
 -0.398529991176E-01
  0.307206885608E+00
  0.397711742383E+00
 -0.686660912435E+00
 -0.874441811021E+00
 -0.527006246379E+00
 -0.797350570105E+00
 -0.357102866274E+00
 -0.370654417515E+00
 -0.356725092214E+00
 -0.636183293862E+00
  0.844779548618E+00
 -0.117385202702E+05
 -0.208946717548E+05
 -0.402764215704E+08
 -0.838872209527E+08
 -0.476392163716E+06
 -0.177868592384E+05
 -0.239657090827E+02
 -0.549142763093E+00
 -0.650091696552E+00
 -0.445299879306E+00
 -0.269273725155E+00
 -0.288489246538E+00
 -0.121524510560E+00
 -0.686177848763E+00
 -0.481799854293E+00
 -0.669412061911E+00
 -0.540932570529E+00
 -0.459109167131E+00
  0.620000959757E+00
 -0.390506033012E+02
 -0.179951375700E+05
 -0.473773089944E+06
 -0.838674082730E+08
 -0.573339560964E+08
 -0.570080675098E+06
 -0.212758451440E+05
 -0.359122156393E+02
 -0.406185889991E+00
 -0.907338238622E+00
 -0.688084777899E+00
 -0.506106904438E+00
 -0.534355613909E+00
 -0.395465244466E+00
 -0.586985671653E+00
 -0.597900104101E+00
 -0.620610680157E+00
 -0.734573414193E+00
 -0.693124533174E+00
  0.972602657015E+00
 -0.618429083872E+02
 -0.214794386015E+05
 -0.566093161959E+06
 -0.573173059263E+08
SCALARS sigma float 1
LOOKUP_TABLE default
  0.000000000000E+00
  0.000000000000E+00
  0.000000000000E+00
  0.000000000000E+00
  0.000000000000E+00
  0.000000000000E+00
  0.000000000000E+00
  0.000000000000E+00
  0.000000000000E+00
  0.000000000000E+00
  0.000000000000E+00
  0.000000000000E+00
  0.000000000000E+00
  0.000000000000E+00
  0.000000000000E+00
  0.000000000000E+00
  0.000000000000E+00
  0.000000000000E+00
  0.000000000000E+00
  0.000000000000E+00
  0.000000000000E+00
  0.000000000000E+00
  0.000000000000E+00
  0.000000000000E+00
  0.000000000000E+00
  0.000000000000E+00
  0.000000000000E+00
  0.000000000000E+00
  0.000000000000E+00
  0.000000000000E+00
  0.000000000000E+00
  0.000000000000E+00
  0.000000000000E+00
  0.000000000000E+00
  0.000000000000E+00
  0.000000000000E+00
  0.000000000000E+00
  0.000000000000E+00
  0.000000000000E+00
  0.000000000000E+00
  0.000000000000E+00
  0.000000000000E+00
  0.000000000000E+00
  0.000000000000E+00
  0.000000000000E+00
  0.000000000000E+00
  0.000000000000E+00
  0.000000000000E+00
  0.000000000000E+00
  0.000000000000E+00
  0.000000000000E+00
  0.000000000000E+00
  0.000000000000E+00
  0.000000000000E+00
  0.000000000000E+00
  0.000000000000E+00
  0.000000000000E+00
  0.000000000000E+00
  0.000000000000E+00
  0.000000000000E+00
  0.000000000000E+00
  0.000000000000E+00
  0.000000000000E+00
  0.000000000000E+00
  0.000000000000E+00
  0.000000000000E+00
  0.000000000000E+00
  0.000000000000E+00
  0.000000000000E+00
  0.000000000000E+00
  0.000000000000E+00
  0.000000000000E+00
  0.000000000000E+00
  0.000000000000E+00
  0.000000000000E+00
  0.000000000000E+00
  0.000000000000E+00
  0.000000000000E+00
  0.000000000000E+00
  0.000000000000E+00
  0.000000000000E+00
  0.000000000000E+00
  0.000000000000E+00
  0.000000000000E+00
  0.000000000000E+00
  0.000000000000E+00
  0.000000000000E+00
  0.000000000000E+00
  0.000000000000E+00
  0.000000000000E+00
  0.000000000000E+00
  0.000000000000E+00
  0.000000000000E+00
  0.000000000000E+00
  0.000000000000E+00
  0.000000000000E+00
  0.000000000000E+00
  0.000000000000E+00
  0.000000000000E+00
  0.000000000000E+00
  0.000000000000E+00
  0.000000000000E+00
  0.000000000000E+00
  0.000000000000E+00
  0.000000000000E+00
  0.000000000000E+00
  0.000000000000E+00
  0.000000000000E+00
  0.000000000000E+00
  0.000000000000E+00
  0.000000000000E+00
  0.000000000000E+00
  0.000000000000E+00
  0.000000000000E+00
  0.000000000000E+00
  0.000000000000E+00
  0.000000000000E+00
  0.000000000000E+00
  0.000000000000E+00
  0.000000000000E+00
  0.000000000000E+00
  0.000000000000E+00
  0.000000000000E+00
  0.000000000000E+00
  0.000000000000E+00
  0.000000000000E+00
  0.000000000000E+00
  0.000000000000E+00
  0.000000000000E+00
  0.000000000000E+00
  0.000000000000E+00
  0.000000000000E+00
  0.000000000000E+00
  0.000000000000E+00
  0.000000000000E+00
  0.000000000000E+00
  0.000000000000E+00
  0.000000000000E+00
  0.000000000000E+00
  0.000000000000E+00
  0.000000000000E+00
  0.000000000000E+00
  0.000000000000E+00
  0.000000000000E+00
  0.000000000000E+00
  0.000000000000E+00
  0.000000000000E+00
  0.000000000000E+00
  0.000000000000E+00
  0.000000000000E+00
  0.000000000000E+00
  0.000000000000E+00
  0.000000000000E+00
  0.000000000000E+00
  0.000000000000E+00
  0.000000000000E+00
  0.000000000000E+00
  0.000000000000E+00
  0.000000000000E+00
  0.000000000000E+00
  0.000000000000E+00
  0.000000000000E+00
  0.000000000000E+00
  0.000000000000E+00
  0.000000000000E+00
  0.000000000000E+00
  0.000000000000E+00
  0.000000000000E+00
  0.000000000000E+00
  0.000000000000E+00
  0.000000000000E+00
  0.000000000000E+00
  0.000000000000E+00
  0.000000000000E+00
  0.000000000000E+00
  0.000000000000E+00
  0.000000000000E+00
  0.000000000000E+00
  0.000000000000E+00
  0.000000000000E+00
  0.000000000000E+00
  0.000000000000E+00
  0.000000000000E+00
  0.000000000000E+00
  0.000000000000E+00
  0.000000000000E+00
  0.000000000000E+00
  0.000000000000E+00
  0.000000000000E+00
  0.000000000000E+00
  0.000000000000E+00
  0.000000000000E+00
  0.000000000000E+00
  0.000000000000E+00
  0.000000000000E+00
  0.000000000000E+00
  0.000000000000E+00
  0.000000000000E+00
  0.000000000000E+00
  0.000000000000E+00
  0.000000000000E+00
  0.000000000000E+00
  0.000000000000E+00
  0.000000000000E+00
  0.000000000000E+00
  0.000000000000E+00
  0.000000000000E+00
  0.000000000000E+00
  0.000000000000E+00
  0.000000000000E+00
  0.000000000000E+00
  0.000000000000E+00
  0.000000000000E+00
  0.000000000000E+00
  0.000000000000E+00
  0.000000000000E+00
  0.000000000000E+00
  0.000000000000E+00
  0.000000000000E+00
  0.000000000000E+00
  0.000000000000E+00
  0.000000000000E+00
  0.000000000000E+00
  0.000000000000E+00
  0.000000000000E+00
  0.000000000000E+00
  0.000000000000E+00
  0.000000000000E+00
  0.000000000000E+00
  0.000000000000E+00
  0.000000000000E+00
  0.000000000000E+00
  0.000000000000E+00
  0.000000000000E+00
  0.000000000000E+00
  0.000000000000E+00
  0.000000000000E+00
  0.000000000000E+00
  0.000000000000E+00
  0.000000000000E+00
  0.000000000000E+00
  0.000000000000E+00
  0.000000000000E+00
  0.000000000000E+00
  0.000000000000E+00
  0.000000000000E+00
  0.000000000000E+00
  0.000000000000E+00
  0.000000000000E+00
  0.000000000000E+00
  0.000000000000E+00
  0.000000000000E+00
  0.000000000000E+00
  0.000000000000E+00
  0.000000000000E+00
  0.000000000000E+00
SCALARS inclination float 1
LOOKUP_TABLE default
  0.100000000000E+01
  0.100000000000E+01
  0.100000000000E+01
  0.100000000000E+01
  0.100000000000E+01
  0.100000000000E+01
  0.100000000000E+01
  0.100000000000E+01
  0.100000000000E+01
  0.100000000000E+01
  0.100000000000E+01
  0.100000000000E+01
  0.100000000000E+01
  0.100000000000E+01
  0.100000000000E+01
  0.100000000000E+01
  0.100000000000E+01
  0.100000000000E+01
  0.100000000000E+01
  0.100000000000E+01
  0.100000000000E+01
  0.100000000000E+01
  0.100000000000E+01
  0.100000000000E+01
  0.100000000000E+01
  0.100000000000E+01
  0.100000000000E+01
  0.100000000000E+01
  0.100000000000E+01
  0.100000000000E+01
  0.100000000000E+01
  0.100000000000E+01
  0.100000000000E+01
  0.100000000000E+01
  0.100000000000E+01
  0.100000000000E+01
  0.100000000000E+01
  0.100000000000E+01
  0.100000000000E+01
  0.100000000000E+01
  0.100000000000E+01
  0.100000000000E+01
  0.100000000000E+01
  0.100000000000E+01
  0.100000000000E+01
  0.100000000000E+01
  0.100000000000E+01
  0.100000000000E+01
  0.100000000000E+01
  0.100000000000E+01
  0.100000000000E+01
  0.100000000000E+01
  0.100000000000E+01
  0.100000000000E+01
  0.100000000000E+01
  0.100000000000E+01
  0.100000000000E+01
  0.100000000000E+01
  0.100000000000E+01
  0.100000000000E+01
  0.100000000000E+01
  0.100000000000E+01
  0.100000000000E+01
  0.100000000000E+01
  0.100000000000E+01
  0.100000000000E+01
  0.100000000000E+01
  0.100000000000E+01
  0.100000000000E+01
  0.100000000000E+01
  0.100000000000E+01
  0.100000000000E+01
  0.100000000000E+01
  0.100000000000E+01
  0.100000000000E+01
  0.100000000000E+01
  0.100000000000E+01
  0.100000000000E+01
  0.100000000000E+01
  0.100000000000E+01
  0.100000000000E+01
  0.100000000000E+01
  0.100000000000E+01
  0.100000000000E+01
  0.100000000000E+01
  0.100000000000E+01
  0.100000000000E+01
  0.100000000000E+01
  0.100000000000E+01
  0.100000000000E+01
  0.100000000000E+01
  0.100000000000E+01
  0.100000000000E+01
  0.100000000000E+01
  0.100000000000E+01
  0.100000000000E+01
  0.100000000000E+01
  0.100000000000E+01
  0.100000000000E+01
  0.100000000000E+01
  0.100000000000E+01
  0.100000000000E+01
  0.100000000000E+01
  0.100000000000E+01
  0.100000000000E+01
  0.100000000000E+01
  0.100000000000E+01
  0.100000000000E+01
  0.100000000000E+01
  0.100000000000E+01
  0.100000000000E+01
  0.100000000000E+01
  0.100000000000E+01
  0.100000000000E+01
  0.100000000000E+01
  0.100000000000E+01
  0.100000000000E+01
  0.100000000000E+01
  0.100000000000E+01
  0.100000000000E+01
  0.100000000000E+01
  0.100000000000E+01
  0.100000000000E+01
  0.100000000000E+01
  0.100000000000E+01
  0.100000000000E+01
  0.100000000000E+01
  0.100000000000E+01
  0.100000000000E+01
  0.100000000000E+01
  0.100000000000E+01
  0.100000000000E+01
  0.100000000000E+01
  0.100000000000E+01
  0.100000000000E+01
  0.100000000000E+01
  0.100000000000E+01
  0.100000000000E+01
  0.100000000000E+01
  0.100000000000E+01
  0.100000000000E+01
  0.100000000000E+01
  0.100000000000E+01
  0.100000000000E+01
  0.100000000000E+01
  0.100000000000E+01
  0.100000000000E+01
  0.100000000000E+01
  0.100000000000E+01
  0.100000000000E+01
  0.100000000000E+01
  0.100000000000E+01
  0.100000000000E+01
  0.100000000000E+01
  0.100000000000E+01
  0.100000000000E+01
  0.100000000000E+01
  0.100000000000E+01
  0.100000000000E+01
  0.100000000000E+01
  0.100000000000E+01
  0.100000000000E+01
  0.100000000000E+01
  0.100000000000E+01
  0.100000000000E+01
  0.100000000000E+01
  0.100000000000E+01
  0.100000000000E+01
  0.100000000000E+01
  0.100000000000E+01
  0.100000000000E+01
  0.100000000000E+01
  0.100000000000E+01
  0.100000000000E+01
  0.100000000000E+01
  0.100000000000E+01
  0.100000000000E+01
  0.100000000000E+01
  0.100000000000E+01
  0.100000000000E+01
  0.100000000000E+01
  0.100000000000E+01
  0.100000000000E+01
  0.100000000000E+01
  0.100000000000E+01
  0.100000000000E+01
  0.100000000000E+01
  0.100000000000E+01
  0.100000000000E+01
  0.100000000000E+01
  0.100000000000E+01
  0.100000000000E+01
  0.100000000000E+01
  0.100000000000E+01
  0.100000000000E+01
  0.100000000000E+01
  0.100000000000E+01
  0.100000000000E+01
  0.100000000000E+01
  0.100000000000E+01
  0.100000000000E+01
  0.100000000000E+01
  0.100000000000E+01
  0.100000000000E+01
  0.100000000000E+01
  0.100000000000E+01
  0.100000000000E+01
  0.100000000000E+01
  0.100000000000E+01
  0.100000000000E+01
  0.100000000000E+01
  0.100000000000E+01
  0.100000000000E+01
  0.100000000000E+01
  0.100000000000E+01
  0.100000000000E+01
  0.100000000000E+01
  0.100000000000E+01
  0.100000000000E+01
  0.100000000000E+01
  0.100000000000E+01
  0.100000000000E+01
  0.100000000000E+01
  0.100000000000E+01
  0.100000000000E+01
  0.100000000000E+01
  0.100000000000E+01
  0.100000000000E+01
  0.100000000000E+01
  0.100000000000E+01
  0.100000000000E+01
  0.100000000000E+01
  0.100000000000E+01
  0.100000000000E+01
  0.100000000000E+01
  0.100000000000E+01
  0.100000000000E+01
  0.100000000000E+01
  0.100000000000E+01
  0.100000000000E+01
  0.100000000000E+01
  0.100000000000E+01
  0.100000000000E+01
  0.100000000000E+01
  0.100000000000E+01
  0.100000000000E+01
  0.100000000000E+01
  0.100000000000E+01
  0.100000000000E+01
  0.100000000000E+01
  0.100000000000E+01
  0.100000000000E+01
  0.100000000000E+01
  0.100000000000E+01
  0.100000000000E+01
  0.100000000000E+01
VECTORS v float
  0.150719772913E+03  0.328201669311E+01  0.157543572718E+02
  0.152508247579E+03  0.276657992763E+01  0.160005533196E+02
  0.155752248520E+03 -0.477437055904E+00  0.168477499509E+02
  0.157319846541E+03  0.500520147195E+00  0.169113254508E+02
  0.160239388329E+03 -0.241903627935E+01  0.158428863039E+02
  0.161344688811E+03 -0.586641339849E+00  0.157720686315E+02
  0.158651748847E+03  0.210630274925E+01  0.323487765309E+01
  0.160475477979E+03 -0.462350337861E+01  0.341162930916E+01
  0.139263549022E+03  0.165884455374E+02 -0.170184091164E+02
  0.145890977344E+03 -0.146524109119E+01 -0.204423527289E+02
  0.821847752993E+02  0.622409865659E+02 -0.115604344227E+02
  0.826110112617E+02  0.612901062456E+02 -0.123586810278E+02
  0.167486564337E+03 -0.235854468298E+02  0.110755056484E+03
  0.144481007695E+03  0.277371383562E+02  0.676706845727E+02
  0.204749692693E+03 -0.325315615118E+02  0.329174188302E+02
  0.195030690475E+03 -0.605616109328E+01  0.278962694812E+02
  0.197210339432E+03 -0.823580279318E+01 -0.424536972902E+01
  0.197843887304E+03 -0.105736799824E+02 -0.430677560621E+01
  0.187542323204E+03 -0.272080908313E+00 -0.182930729294E+02
  0.182949742916E+03 -0.788577428550E+01 -0.185873306757E+02
  0.173818760088E+03  0.124525381186E+01 -0.186102486271E+02
  0.167703278862E+03 -0.256993781212E+01 -0.183622002012E+02
  0.161005571846E+03  0.412780233198E+01 -0.167630763639E+02
  0.153749237711E+03  0.621907407495E+01 -0.157642295354E+02
  0.151050337967E+03  0.657908283271E+01  0.154373672256E+02
  0.150759007955E+03  0.675752120122E+01  0.153871746766E+02
  0.155578998160E+03  0.193750318401E+01  0.165686369704E+02
  0.155779752372E+03  0.191508344461E+01  0.165927059190E+02
  0.159595200329E+03 -0.190038259803E+01  0.157296266827E+02
  0.160247069263E+03 -0.160170854757E+01  0.157640263848E+02
  0.160476669771E+03 -0.183131372838E+01  0.335395490147E+01
  0.160847690203E+03 -0.274344292443E+01  0.338047207468E+01
  0.146144467379E+03  0.119597915352E+02 -0.186151005974E+02
  0.145899041108E+03  0.124314300072E+02 -0.185156293869E+02
  0.855106709724E+02  0.728198267509E+02 -0.735625648668E+01
  0.801276230838E+02  0.814314995914E+02  0.755793014193E+00
  0.183730984405E+03 -0.221718617298E+02  0.119351742133E+03
  0.172400655403E+03 -0.404587230698E+01  0.102277382482E+03
  0.211312877378E+03 -0.429580964644E+02  0.352743694189E+02
  0.204789523877E+03 -0.304220746669E+02  0.326303005741E+02
  0.196947516227E+03 -0.225800427309E+02 -0.453635840449E+01
  0.197203947758E+03 -0.232104625832E+02 -0.455468218491E+01
  0.182939777052E+03 -0.894624325376E+01 -0.186896499044E+02
  0.178859117909E+03 -0.108159251663E+02 -0.184743038143E+02
  0.167736350234E+03  0.306894786768E+00 -0.180555283802E+02
  0.164101126363E+03  0.712870796938E+00 -0.176197246112E+02
  0.153803330772E+03  0.110107258140E+02 -0.152579976252E+02
  0.152349659900E+03  0.119010918657E+02 -0.150075223061E+02
  0.151128123464E+03  0.792201891828E+01  0.153021880738E+02
  0.151066036070E+03  0.796964743478E+01  0.152904559048E+02
  0.155758702830E+03  0.327695309838E+01  0.164435606380E+02
  0.155595269630E+03  0.335293544032E+01  0.164177511336E+02
  0.159443213945E+03 -0.495026697733E+00  0.155779409558E+02
  0.159608220592E+03 -0.514896558922E+00  0.155959480443E+02
  0.160848112191E+03 -0.175479568293E+01  0.336005081033E+01
  0.160026859574E+03 -0.215160545715E+00  0.331126455124E+01
  0.145926491501E+03  0.138852217226E+02 -0.183177566222E+02
  0.143671698516E+03  0.173783714348E+02 -0.175203513909E+02
  0.800253326169E+02  0.810247670171E+02  0.579323882806E+00
  0.746693742734E+02  0.882192708559E+02  0.785420706657E+01