# vtk DataFile Version 3.0
TriPan results file. Generated by TriPan, USU AeroLab (c) 2021.
ASCII
DATASET POLYDATA
POINTS                7064 float
  0.248117048081E-05  0.000000000000E+00 -0.200896182535E-21
  0.390009530229E-01  0.000000000000E+00 -0.109216802644E+00
  0.390009530229E-01  0.000000000000E+00  0.109216802644E+00
  0.147667587429E+00  0.000000000000E+00 -0.234918546461E+00
  0.147667587429E+00  0.000000000000E+00  0.234918546461E+00
  0.161140126811E+00  0.161136763467E+00 -0.907747527188E-22
  0.200138918513E+00  0.161136784202E+00 -0.109217282026E+00
  0.200138918513E+00  0.161136784202E+00  0.109217282026E+00
  0.290267336203E+00  0.000000000000E+00 -0.347330612704E+00
  0.290267336203E+00  0.000000000000E+00  0.347330612704E+00
  0.308805753889E+00  0.161136845646E+00 -0.234918966854E+00
  0.308805753889E+00  0.161136845646E+00  0.234918966854E+00
  0.335007894265E+00  0.335004341377E+00 -0.239726178949E-22
  0.374006676601E+00  0.335004371478E+00 -0.109217238696E+00
  0.374006676601E+00  0.335004371478E+00  0.109217238696E+00
  0.451405695827E+00  0.161137052624E+00 -0.347330980480E+00
  0.451405695827E+00  0.161137052624E+00  0.347330980480E+00
  0.473467227553E+00  0.000000000000E+00 -0.436290954441E+00
  0.473467227553E+00  0.000000000000E+00  0.436290954441E+00
  0.482673530543E+00  0.335004444157E+00 -0.234918888772E+00
  0.482673530543E+00  0.335004444157E+00  0.234918888772E+00
  0.522508472950E+00  0.522504716366E+00  0.126735146352E-22
  0.561507275069E+00  0.522504756486E+00 -0.109217191547E+00
  0.561507275069E+00  0.522504756486E+00  0.109217191547E+00
  0.625273429732E+00  0.335004664083E+00 -0.347330881903E+00
  0.625273429732E+00  0.335004664083E+00  0.347330881903E+00
  0.634605647116E+00  0.161137252065E+00 -0.436291201616E+00
  0.634605647116E+00  0.161137252065E+00  0.436291201616E+00
  0.670174087105E+00  0.522504841270E+00 -0.234918819742E+00
  0.670174087105E+00  0.522504841270E+00  0.234918819742E+00
  0.689336105034E+00  0.000000000000E+00 -0.522846809678E+00
  0.689336105034E+00  0.000000000000E+00  0.522846809678E+00
  0.724592348672E+00  0.724588373564E+00  0.000000000000E+00
  0.763591140102E+00  0.724588424374E+00 -0.109217140388E+00
  0.763591140102E+00  0.724588424374E+00  0.109217140388E+00
  0.808473398767E+00  0.335004875579E+00 -0.436291120216E+00
  0.808473398767E+00  0.335004875579E+00  0.436291120216E+00
  0.812774031945E+00  0.522505075150E+00 -0.347330805804E+00
  0.812774031945E+00  0.522505075150E+00  0.347330805804E+00
  0.850474557516E+00  0.161137351158E+00 -0.522846992743E+00
  0.850474557516E+00  0.161137351158E+00  0.522846992743E+00
  0.872257939128E+00  0.724588522168E+00 -0.234918744568E+00
  0.872257939128E+00  0.724588522168E+00  0.234918744568E+00
  0.942256171024E+00  0.942251961910E+00  0.284004058967E-22
  0.944065572333E+00  0.000000000000E+00 -0.604289928279E+00
  0.944065572333E+00  0.000000000000E+00  0.604289928279E+00
  0.981254891470E+00  0.942252024099E+00 -0.109217085037E+00
  0.981254891470E+00  0.942252024099E+00  0.109217085037E+00
  0.995973988017E+00  0.522505299608E+00 -0.436291030581E+00
  0.995973988017E+00  0.522505299608E+00  0.436291030581E+00
  0.101485792856E+01  0.724588771058E+00 -0.347330722008E+00
  0.101485792856E+01  0.724588771058E+00  0.347330722008E+00
  0.102434236145E+01  0.335004981989E+00 -0.522846935900E+00
  0.102434236145E+01  0.335004981989E+00  0.522846935900E+00
  0.108992173615E+01  0.942252135844E+00 -0.234918677862E+00
  0.108992173615E+01  0.942252135844E+00  0.234918677862E+00
  0.110520403330E+01  0.161137444330E+00 -0.604290132511E+00
  0.110520403330E+01  0.161137444330E+00  0.604290132511E+00
  0.117654153149E+01  0.117653707225E+01 -0.601761213589E-22
  0.119805781112E+01  0.724589009429E+00 -0.436290932283E+00
  0.119805781112E+01  0.724589009429E+00  0.436290932283E+00
  0.121184288325E+01  0.522505413871E+00 -0.522846810817E+00
  0.121184288325E+01  0.522505413871E+00  0.522846810817E+00
  0.121554029945E+01  0.117653714653E+01 -0.109217025314E+00
  0.121554029945E+01  0.117653714653E+01  0.109217025314E+00
  0.123252164987E+01  0.942252400848E+00 -0.347330630148E+00
  0.123252164987E+01  0.942252400848E+00  0.347330630148E+00
  0.123833332178E+01  0.000000000000E+00 -0.683992575719E+00
  0.123833332178E+01  0.000000000000E+00  0.683992575719E+00
  0.127907177119E+01  0.335005081612E+00 -0.604290012508E+00
  0.127907177119E+01  0.335005081612E+00  0.604290012508E+00
  0.132420706960E+01  0.117653727320E+01 -0.234918589542E+00
  0.132420706960E+01  0.117653727320E+01  0.234918589542E+00
  0.139947185373E+01  0.161137516738E+00 -0.683992760737E+00
  0.139947185373E+01  0.161137516738E+00  0.683992760737E+00
  0.141392675754E+01  0.724589132110E+00 -0.522846736253E+00
  0.141392675754E+01  0.724589132110E+00  0.522846736253E+00
  0.141572163672E+01  0.942252654127E+00 -0.436290824909E+00
  0.141572163672E+01  0.942252654127E+00  0.436290824909E+00
  0.142853317529E+01  0.142852844923E+01 -0.143497736444E-21
  0.146657240526E+01  0.522505520421E+00 -0.604289943199E+00
  0.146657240526E+01  0.522505520421E+00  0.604289943199E+00
  0.146680696606E+01  0.117653755546E+01 -0.347330529873E+00
  0.146680696606E+01  0.117653755546E+01  0.347330529873E+00
  0.146753193045E+01  0.142852853631E+01 -0.109216961055E+00
  0.146753193045E+01  0.142852853631E+01  0.109216961055E+00
  0.157333958654E+01  0.335005159101E+00 -0.683992698276E+00
  0.157333958654E+01  0.335005159101E+00  0.683992698276E+00
  0.157619868467E+01  0.142852867891E+01 -0.234918494249E+00
  0.157619868467E+01  0.142852867891E+01  0.234918494249E+00
  0.157642056144E+01  0.000000000000E+00 -0.760516189264E+00
  0.157642056144E+01  0.000000000000E+00  0.760516189264E+00
  0.163159057413E+01  0.942252785815E+00 -0.522846592560E+00
  0.163159057413E+01  0.942252785815E+00  0.522846592560E+00
  0.165000693697E+01  0.117653782469E+01 -0.436290708060E+00
  0.165000693697E+01  0.117653782469E+01  0.436290708060E+00
  0.166865627212E+01  0.724589246086E+00 -0.604289804906E+00
  0.166865627212E+01  0.724589246086E+00  0.604289804906E+00
  0.169935572313E+01  0.169935071303E+01  0.118317441648E-21
  0.171879856266E+01  0.142852897964E+01 -0.347330420851E+00
  0.171879856266E+01  0.142852897964E+01  0.347330420851E+00
  0.173755909906E+01  0.161137591741E+00 -0.760516356356E+00
  0.173755909906E+01  0.161137591741E+00  0.760516356356E+00
  0.173835434555E+01  0.169935081364E+01 -0.109216899558E+00
  0.173835434555E+01  0.169935081364E+01  0.109216899558E+00
  0.176084021515E+01  0.522505603365E+00 -0.683992567137E+00
  0.176084021515E+01  0.522505603365E+00  0.683992567137E+00
  0.184702120201E+01  0.169935097321E+01 -0.234918391742E+00
  0.184702120201E+01  0.169935097321E+01  0.234918391742E+00
  0.186587586475E+01  0.117653796600E+01 -0.522846498523E+00
  0.186587586475E+01  0.117653796600E+01  0.522846498523E+00
  0.188632008077E+01  0.942252907738E+00 -0.604289716380E+00
  0.188632008077E+01  0.942252907738E+00  0.604289716380E+00
  0.190199851656E+01  0.142852926588E+01 -0.436290581359E+00
  0.190199851656E+01  0.142852926588E+01  0.436290581359E+00
  0.191142682723E+01  0.335005238732E+00 -0.760516232872E+00
  0.191142682723E+01  0.335005238732E+00  0.760516232872E+00
  0.196138828406E+01  0.000000000000E+00 -0.833664252954E+00
  0.196138828406E+01  0.000000000000E+00  0.833664252954E+00
  0.196292407617E+01  0.724589334880E+00 -0.683992486046E+00
  0.196292407617E+01  0.724589334880E+00  0.683992486046E+00
  0.198962106032E+01  0.169935129362E+01 -0.347330302783E+00
  0.198962106032E+01  0.169935129362E+01  0.347330302783E+00
  0.199017003531E+01  0.199016472345E+01  0.179204840377E-21
  0.202916876266E+01  0.199016483834E+01 -0.109216825788E+00
  0.202916876266E+01  0.199016483834E+01  0.109216825788E+00
  0.209892745088E+01  0.522505687967E+00 -0.760516159807E+00
  0.209892745088E+01  0.522505687967E+00  0.760516159807E+00
  0.211786743409E+01  0.142852941745E+01 -0.522846394139E+00
  0.211786743409E+01  0.142852941745E+01  0.522846394139E+00
  0.212060548212E+01  0.117653809641E+01 -0.604289617574E+00
  0.212060548212E+01  0.117653809641E+01  0.604289617574E+00
  0.212252694648E+01  0.161137667481E+00 -0.833664346748E+00
  0.212252694648E+01  0.161137667481E+00  0.833664346748E+00
  0.213783548188E+01  0.199016501594E+01 -0.234918296716E+00
  0.213783548188E+01  0.199016501594E+01  0.234918296716E+00
  0.217282099607E+01  0.169935159800E+01 -0.436290474266E+00
  0.217282099607E+01  0.169935159800E+01  0.436290474266E+00
  0.218058787856E+01  0.942253002792E+00 -0.683992394927E+00
  0.218058787856E+01  0.942253002792E+00  0.683992394927E+00
  0.228043543846E+01  0.199016535729E+01 -0.347330175398E+00
  0.228043543846E+01  0.199016535729E+01  0.347330175398E+00
  0.229639467055E+01  0.335005318579E+00 -0.833664281975E+00
  0.229639467055E+01  0.335005318579E+00  0.833664281975E+00
  0.230101130656E+01  0.724589424811E+00 -0.760516077064E+00
  0.230101130656E+01  0.724589424811E+00  0.760516077064E+00
  0.230216808568E+01  0.230216245402E+01  0.132995971380E-21
  0.234116679803E+01  0.230216258391E+01 -0.109216747083E+00
  0.234116679803E+01  0.230216258391E+01  0.109216747083E+00
  0.237259704239E+01  0.142852955692E+01 -0.604289508070E+00
  0.237259704239E+01  0.142852955692E+01  0.604289508070E+00
  0.238869002190E+01  0.169935176048E+01 -0.522846219438E+00
  0.238869002190E+01  0.169935176048E+01  0.522846219438E+00
  0.239635584192E+01  0.000000000000E+00 -0.902056088369E+00
  0.239635584192E+01  0.000000000000E+00  0.902056088369E+00
  0.241487327321E+01  0.117653819815E+01 -0.683992293322E+00
  0.241487327321E+01  0.117653819815E+01  0.683992293322E+00
  0.244983373656E+01  0.230216278062E+01 -0.234918179192E+00
  0.244983373656E+01  0.230216278062E+01  0.234918179192E+00
  0.246363523572E+01  0.199016568095E+01 -0.436290326871E+00
  0.246363523572E+01  0.199016568095E+01  0.436290326871E+00
[...]
POINT_DATA                7064
SCALARS phi float 1
LOOKUP_TABLE default
  0.111022302463E-14
  0.444089209850E-14
  0.266453525910E-14
  0.188737914186E-14
  0.888178419700E-15
  0.999200722163E-15
 -0.155431223448E-14
  0.244249065418E-14
  0.299760216649E-14
  0.333066907388E-15
  0.333066907388E-15
  0.144328993201E-14
  0.000000000000E+00
 -0.199840144433E-14
  0.144328993201E-14
  0.133226762955E-14
 -0.444089209850E-15
 -0.377475828373E-14
  0.222044604925E-15
 -0.222044604925E-14
 -0.344169137634E-14
 -0.166533453694E-14
 -0.777156117238E-15
 -0.111022302463E-14
 -0.244249065418E-14
 -0.122124532709E-14
  0.344169137634E-14
 -0.444089209850E-15
 -0.122124532709E-14
  0.666133814775E-15
 -0.555111512313E-15
 -0.333066907388E-15
 -0.310862446895E-14
  0.666133814775E-15
  0.777156117238E-15
  0.144328993201E-14
  0.777156117238E-15
  0.777156117238E-15
  0.199840144433E-14
 -0.222044604925E-15
 -0.333066907388E-15
 -0.444089209850E-15
 -0.166533453694E-14
  0.144328993201E-14
 -0.144328993201E-14
 -0.144328993201E-14
 -0.510702591328E-14
 -0.177635683940E-14
  0.333066907388E-15
  0.333066907388E-15
 -0.888178419700E-15
  0.111022302463E-14
  0.643929354283E-14
  0.111022302463E-14
 -0.477395900589E-14
 -0.444089209850E-15
  0.333066907388E-14
  0.000000000000E+00
 -0.288657986403E-14
 -0.122124532709E-14
 -0.144328993201E-14
 -0.444089209850E-15
  0.222044604925E-15
  0.144328993201E-14
 -0.111022302463E-14
  0.666133814775E-15
 -0.266453525910E-14
  0.344169137634E-14
 -0.888178419700E-15
 -0.144328993201E-14
 -0.666133814775E-15
 -0.577315972805E-14
 -0.888178419700E-15
  0.111022302463E-15
 -0.111022302463E-15
  0.255351295664E-14
 -0.233146835171E-14
  0.577315972805E-14
 -0.888178419700E-15
  0.222044604925E-14
 -0.544009282066E-14
  0.111022302463E-15
  0.410782519111E-14
 -0.344169137634E-14
  0.621724893790E-14
  0.777156117238E-15
 -0.166533453694E-14
  0.999200722163E-15
  0.000000000000E+00
 -0.555111512313E-15
 -0.155431223448E-14
  0.133226762955E-14
 -0.111022302463E-15
 -0.166533453694E-14
 -0.177635683940E-14
  0.555111512313E-15
 -0.222044604925E-15
 -0.111022302463E-14
 -0.444089209850E-15
 -0.155431223448E-14
  0.122124532709E-14
 -0.399680288865E-14
  0.000000000000E+00
 -0.177635683940E-14
 -0.111022302463E-15
  0.310862446895E-14
 -0.188737914186E-14
 -0.166533453694E-14
  0.288657986403E-14
  0.133226762955E-14
 -0.222044604925E-15
 -0.421884749358E-14
  0.111022302463E-14
  0.177635683940E-14
  0.333066907388E-14
 -0.244249065418E-14
 -0.555111512313E-15
  0.277555756156E-14
 -0.444089209850E-15
 -0.210942374679E-14
 -0.888178419700E-15
 -0.122124532709E-14
 -0.199840144433E-14
  0.399680288865E-14
 -0.310862446895E-14
  0.777156117238E-15
  0.111022302463E-14
 -0.155431223448E-14
 -0.299760216649E-14
 -0.122124532709E-14
 -0.666133814775E-15
 -0.222044604925E-15
 -0.588418203051E-14
  0.000000000000E+00
 -0.199840144433E-14
 -0.166533453694E-14
 -0.666133814775E-15
  0.444089209850E-15
  0.188737914186E-14
 -0.133226762955E-14
  0.999200722163E-15
 -0.222044604925E-15
 -0.477395900589E-14
 -0.555111512313E-15
 -0.111022302463E-15
 -0.333066907388E-15
  0.144328993201E-14
  0.188737914186E-14
 -0.310862446895E-14
 -0.743849426499E-14
 -0.444089209850E-15
  0.299760216649E-14
 -0.444089209850E-15
  0.210942374679E-14
 -0.166533453694E-14
  0.199840144433E-14
 -0.133226762955E-14
  0.133226762955E-14
  0.144328993201E-14
 -0.888178419700E-15
  0.188737914186E-14
  0.122124532709E-14
 -0.888178419700E-15
 -0.321964677141E-14
  0.444089209850E-15
 -0.444089209850E-15
 -0.999200722163E-15
  0.666133814775E-15
 -0.111022302463E-15
 -0.399680288865E-14
 -0.333066907388E-15
 -0.333066907388E-15
 -0.255351295664E-14
 -0.777156117238E-15
  0.388578058619E-14
  0.144328993201E-14
  0.777156117238E-15
  0.777156117238E-15
  0.133226762955E-14
  0.222044604925E-15
 -0.266453525910E-14
  0.000000000000E+00
 -0.133226762955E-14
 -0.999200722163E-15
  0.244249065418E-14
 -0.177635683940E-14
  0.999200722163E-15
  0.000000000000E+00
  0.777156117238E-15
 -0.444089209850E-15
 -0.444089209850E-15
  0.666133814775E-15
 -0.111022302463E-15
  0.222044604925E-15
 -0.111022302463E-15
 -0.999200722163E-15
  0.288657986403E-14
 -0.210942374679E-14
  0.666133814775E-15
 -0.999200722163E-15
 -0.333066907388E-15
  0.444089209850E-15
  0.222044604925E-15
  0.666133814775E-15
 -0.444089209850E-15
  0.333066907388E-14
  0.222044604925E-15
 -0.166533453694E-14
  0.666133814775E-15
  0.111022302463E-14
 -0.177635683940E-14
  0.000000000000E+00
 -0.222044604925E-15
  0.244249065418E-14
  0.666133814775E-15
 -0.199840144433E-14
  0.444089209850E-15
  0.000000000000E+00
 -0.777156117238E-15
  0.421884749358E-14
 -0.111022302463E-15
 -0.299760216649E-14
  0.222044604925E-15
  0.277555756156E-14
  0.111022302463E-15
  0.177635683940E-14
  0.666133814775E-15
  0.222044604925E-15
  0.444089209850E-15
  0.421884749358E-14
 -0.222044604925E-15
 -0.188737914186E-14
  0.666133814775E-15
  0.122124532709E-14
  0.210942374679E-14
  0.333066907388E-15
 -0.666133814775E-15
  0.155431223448E-14
 -0.244249065418E-14
 -0.555111512313E-15
  0.111022302463E-14
 -0.666133814775E-15
  0.321964677141E-14
  0.210942374679E-14
 -0.310862446895E-14
 -0.122124532709E-14
 -0.999200722163E-15
 -0.222044604925E-15
  0.144328993201E-14
  0.333066907388E-15
  0.155431223448E-14
 -0.999200722163E-15
  0.277555756156E-14
 -0.444089209850E-15
  0.177635683940E-14
  0.333066907388E-15
  0.155431223448E-14
  0.333066907388E-15
  0.555111512313E-15
 -0.555111512313E-15
  0.555111512313E-15
 -0.666133814775E-15
  0.155431223448E-14
  0.444089209850E-15
 -0.266453525910E-14
  0.333066907388E-15
 -0.666133814775E-15
 -0.244249065418E-14
 -0.111022302463E-15
  0.666133814775E-15
  0.333066907388E-15
 -0.410782519111E-14
 -0.188737914186E-14
  0.333066907388E-15
 -0.244249065418E-14
  0.432986979604E-14
  0.222044604925E-15
 -0.222044604925E-15
 -0.144328993201E-14
 -0.111022302463E-14
  0.222044604925E-14
 -0.777156117238E-15
  0.444089209850E-15
  0.310862446895E-14
 -0.444089209850E-15
  0.222044604925E-15
  0.333066907388E-15
 -0.444089209850E-14
 -0.333066907388E-15
  0.377475828373E-14
  0.111022302463E-15
  0.333066907388E-15
  0.188737914186E-14
  0.888178419700E-15
  0.111022302463E-15
  0.488498130835E-14
 -0.444089209850E-15
 -0.477395900589E-14
  0.222044604925E-15
 -0.666133814775E-15
  0.555111512313E-15
 -0.199840144433E-14
 -0.888178419700E-15
  0.777156117238E-15
 -0.188737914186E-14
 -0.111022302463E-14
  0.666133814775E-15
 -0.999200722163E-15
  0.222044604925E-15
  0.555111512313E-15
 -0.310862446895E-14
  0.111022302463E-15
 -0.299760216649E-14
  0.111022302463E-14
 -0.122124532709E-14
 -0.333066907388E-15
  0.244249065418E-14
 -0.444089209850E-15
  0.710542735760E-14
  0.199840144433E-14
 -0.310862446895E-14
 -0.444089209850E-15
  0.155431223448E-14
 -0.144328993201E-14
  0.444089209850E-14
 -0.444089209850E-15
  0.188737914186E-14
 -0.444089209850E-15
  0.432986979604E-14
  0.000000000000E+00
 -0.444089209850E-15
 -0.888178419700E-15
  0.266453525910E-14
  0.111022302463E-14
 -0.177635683940E-14
  0.333066907388E-15
 -0.555111512313E-15
 -0.555111512313E-15
 -0.288657986403E-14
 -0.277555756156E-15
  0.444089209850E-14
 -0.255351295664E-14
  0.377475828373E-14
  0.444089209850E-15
  0.222044604925E-15
 -0.266453525910E-14
 -0.444089209850E-15
 -0.122124532709E-14
  0.333066907388E-15
 -0.432986979604E-14
  0.444089209850E-15
  0.377475828373E-14
  0.388578058619E-15
  0.122124532709E-14
 -0.444089209850E-15
 -0.999200722163E-15
 -0.666133814775E-15
 -0.111022302463E-15
  0.777156117238E-15
 -0.155431223448E-14
 -0.777156117238E-15
  0.777156117238E-15
  0.111022302463E-14
  0.210942374679E-14
 -0.111022302463E-15
 -0.111022302463E-14
  0.277555756156E-15
  0.199840144433E-14
 -0.777156117238E-15
 -0.210942374679E-14
 -0.666133814775E-15
 -0.266453525910E-14
  0.888178419700E-15
  0.388578058619E-14
  0.111022302463E-14
  0.477395900589E-14
  0.333066907388E-15
  0.277555756156E-14
  0.199840144433E-14
  0.555111512313E-15
  0.777156117238E-15
  0.455191440096E-14
 -0.321964677141E-14
  0.222044604925E-15
  0.355271367880E-14
 -0.277555756156E-15
 -0.444089209850E-15
  0.000000000000E+00
  0.333066907388E-14
  0.888178419700E-15
 -0.133226762955E-14
  0.155431223448E-14
 -0.444089209850E-15
  0.111022302463E-14
  0.111022302463E-15
  0.777156117238E-15
  0.288657986403E-14
 -0.444089209850E-15
 -0.266453525910E-14
  0.155431223448E-14
  0.133226762955E-14
  0.111022302463E-15
  0.555111512313E-15
  0.610622663544E-15
  0.555111512313E-15
 -0.999200722163E-15
  0.111022302463E-14
  0.444089209850E-15
 -0.144328993201E-14
  0.666133814775E-15
 -0.177635683940E-14
 -0.155431223448E-14
  0.222044604925E-15
  0.555111512313E-15
  0.333066907388E-15
  0.188737914186E-14
 -0.410782519111E-14
 -0.144328993201E-14
 -0.266453525910E-14
 -0.210942374679E-14
  0.166533453694E-14
  0.210942374679E-14
  0.155431223448E-14
 -0.333066907388E-15
 -0.399680288865E-14
  0.444089209850E-14
  0.277555756156E-15
  0.000000000000E+00
 -0.105471187339E-14
 -0.521804821574E-14
  0.233146835171E-14
  0.421884749358E-14
 -0.111022302463E-15
  0.177635683940E-14
  0.555111512313E-15
  0.244249065418E-14
  0.111022302463E-14
  0.888178419700E-15
  0.000000000000E+00
 -0.555111512313E-15
  0.111022302463E-14
  0.333066907388E-15
  0.177635683940E-14
 -0.111022302463E-14
  0.166533453694E-15
 -0.321964677141E-14
  0.777156117238E-15
  0.999200722163E-15
 -0.555111512313E-15
  0.155431223448E-14
  0.111022302463E-14
 -0.777156117238E-15
 -0.133226762955E-14
 -0.111022302463E-14
 -0.138777878078E-14
  0.166533453694E-14
  0.888178419700E-15
 -0.366373598126E-14
  0.555111512313E-16
 -0.166533453694E-14
  0.444089209850E-15
  0.122124532709E-14
 -0.333066907388E-15
 -0.321964677141E-14
 -0.444089209850E-15
 -0.199840144433E-14
 -0.222044604925E-15
  0.410782519111E-14
  0.888178419700E-15
  0.222044604925E-15
  0.111022302463E-14
  0.432986979604E-14
  0.222044604925E-15
  0.555111512313E-14
  0.199840144433E-14
  0.194289029309E-14
 -0.410782519111E-14
  0.444089209850E-15
 -0.388578058619E-14
  0.721644966006E-15
 -0.210942374679E-14
  0.721644966006E-15
 -0.333066907388E-15
  0.777156117238E-15
 -0.555111512313E-15
 -0.177635683940E-14
  0.299760216649E-14
  0.999200722163E-15
 -0.455191440096E-14
 -0.555111512313E-15
 -0.111022302463E-14
 -0.333066907388E-15
  0.555111512313E-15
  0.943689570931E-15
  0.555111512313E-14
 -0.166533453694E-14
 -0.288657986403E-14
  0.888178419700E-15
  0.399680288865E-14
 -0.111022302463E-15
  0.133226762955E-14
 -0.999200722163E-15
  0.111022302463E-15
 -0.444089209850E-15
  0.888178419700E-15
  0.222044604925E-15
 -0.199840144433E-14
  0.283106871279E-14
 -0.888178419700E-15
 -0.555111512313E-16
  0.277555756156E-14
  0.832667268469E-15
  0.222044604925E-14
  0.777156117238E-15
 -0.599520433298E-14
  0.111022302463E-14
  0.000000000000E+00
  0.111022302463E-14
  0.333066907388E-15
 -0.888178419700E-15
  0.555111512313E-15
 -0.166533453694E-14
  0.222044604925E-14
  0.166533453694E-14
  0.177635683940E-14
  0.432986979604E-14
  0.333066907388E-15
 -0.177635683940E-14
  0.133226762955E-14
 -0.133226762955E-14
  0.222044604925E-15
 -0.444089209850E-15
 -0.444089209850E-15
 -0.177635683940E-14
 -0.333066907388E-15
 -0.144328993201E-14
  0.144328993201E-14
 -0.177635683940E-14
  0.666133814775E-15
 -0.888178419700E-15
 -0.235922392733E-14
  0.222044604925E-15
 -0.721644966006E-15
  0.222044604925E-14
  0.111022302463E-15
 -0.177635683940E-14
  0.388578058619E-15
  0.555111512313E-15
  0.555111512313E-15
 -0.410782519111E-14
  0.333066907388E-15
 -0.144328993201E-14
 -0.111022302463E-15
 -0.122124532709E-14
 -0.721644966006E-15
 -0.732747196253E-14
  0.208166817117E-14
  0.111022302463E-15
 -0.999200722163E-15
 -0.421884749358E-14
 -0.321964677141E-14
 -0.555111512313E-15
 -0.222044604925E-15
  0.166533453694E-14
 -0.666133814775E-15
 -0.333066907388E-15
 -0.199840144433E-14
  0.466293670343E-14
  0.277555756156E-15
  0.277555756156E-15
 -0.188737914186E-14
 -0.777156117238E-15
  0.111022302463E-15
  0.777156117238E-15
 -0.299760216649E-14
  0.133226762955E-14
  0.333066907388E-14
 -0.130451205393E-14
  0.233146835171E-14
  0.155431223448E-14
  0.111022302463E-14
 -0.166533453694E-15
  0.255351295664E-14
  0.666133814775E-15
  0.294209101526E-14
  0.249800180541E-15
  0.155431223448E-14
 -0.277555756156E-14
 -0.444089209850E-15
  0.444089209850E-15
 -0.544009282066E-14
  0.610622663544E-15
 -0.444089209850E-14
  0.000000000000E+00
 -0.122124532709E-14
  0.127675647832E-14
  0.610622663544E-15
  0.721644966006E-15
 -0.333066907388E-14
  0.188737914186E-14
  0.333066907388E-15
  0.000000000000E+00
 -0.266453525910E-14
 -0.160982338571E-14
  0.222044604925E-14
 -0.346944695195E-14
 -0.260902410787E-14
 -0.130451205393E-14
  0.310862446895E-14
  0.111022302463E-15
 -0.555111512313E-15
 -0.111022302463E-15
  0.233146835171E-14
  0.999200722163E-15
 -0.111022302463E-14
 -0.666133814775E-15
  0.888178419700E-15
 -0.244249065418E-14
  0.327515792264E-14
  0.777156117238E-15
  0.188737914186E-14
 -0.133226762955E-14
  0.172084568817E-14
  0.122124532709E-14
  0.488498130835E-14
  0.444089209850E-15
  0.333066907388E-15
  0.202615701994E-14
  0.111022302463E-14
  0.388578058619E-15
  0.144328993201E-14
  0.111022302463E-14
  0.888178419700E-15
 -0.111022302463E-14
  0.155431223448E-14
 -0.266453525910E-14
 -0.166533453694E-14
 -0.310862446895E-14
 -0.444089209850E-15
 -0.222044604925E-15
 -0.321964677141E-14
  0.888178419700E-15
  0.177635683940E-14
 -0.188737914186E-14
  0.199840144433E-14
  0.377475828373E-14
 -0.208166817117E-14
  0.333066907388E-15
  0.222044604925E-15
  0.421884749358E-14
  0.127675647832E-14
  0.266453525910E-14
 -0.222044604925E-15
 -0.888178419700E-15
  0.288657986403E-14
 -0.777156117238E-15
 -0.111022302463E-14
 -0.721644966006E-15
 -0.846545056277E-15
 -0.266453525910E-14
 -0.888178419700E-15
 -0.477395900589E-14
 -0.230371277610E-14
  0.410782519111E-14
 -0.555111512313E-16
  0.111022302463E-15
  0.693889390391E-15
 -0.133226762955E-14
  0.666133814775E-15
  0.166533453694E-14
  0.666133814775E-15
 -0.194289029309E-14
  0.106858966120E-14
  0.377475828373E-14
 -0.222044604925E-15
  0.333066907388E-15
  0.943689570931E-15
 -0.777156117238E-15
  0.374700270811E-15
 -0.355271367880E-14
  0.111022302463E-15
  0.172084568817E-14
  0.444089209850E-15
 -0.188737914186E-14
 -0.860422844084E-15
  0.777156117238E-15
 -0.555111512313E-15
 -0.299760216649E-14
 -0.333066907388E-15
  0.377475828373E-14
 -0.222044604925E-15
  0.266453525910E-14
 -0.721644966006E-15
  0.763278329430E-15
  0.149880108324E-14
  0.230371277610E-14
 -0.427435864481E-14
 -0.126287869051E-14
  0.333066907388E-15
 -0.499600361081E-15
  0.555111512313E-15
 -0.111022302463E-14
  0.999200722163E-15
 -0.888178419700E-15
  0.205391259556E-14
  0.416333634234E-15
  0.444089209850E-15
 -0.155431223448E-14
  0.571764857682E-14
  0.582867087928E-15
 -0.777156117238E-15
 -0.344169137634E-14
  0.888178419700E-15
 -0.194289029309E-14
  0.105471187339E-14
 -0.915933995316E-15
  0.233146835171E-14
  0.277555756156E-15
  0.227595720048E-14
 -0.166533453694E-15
 -0.299760216649E-14
 -0.749400541622E-15
 -0.188737914186E-14
  0.555111512313E-15
  0.677236045021E-14
 -0.222044604925E-15
  0.127675647832E-14
  0.471844785466E-15
 -0.410782519111E-14
  0.444089209850E-15
 -0.188737914186E-14
 -0.555111512313E-16
  0.421884749358E-14
  0.111022302463E-15
 -0.338618022511E-14
 -0.232106001086E-14
 -0.477395900589E-14
  0.386496390448E-14
 -0.144328993201E-14
  0.111022302463E-15
 -0.399680288865E-14
  0.158206781009E-14
  0.255351295664E-14
  0.102695629778E-14
  0.666133814775E-15
 -0.222044604925E-15
 -0.116573417586E-14
  0.179023462721E-14
  0.000000000000E+00
  0.432986979604E-14
 -0.437150315946E-15
  0.172084568817E-14
 -0.327515792264E-14
 -0.555111512313E-15
 -0.233146835171E-14
 -0.344169137634E-14
  0.666133814775E-15
  0.999200722163E-15
 -0.355271367880E-14
 -0.122124532709E-14
  0.292127433354E-14
  0.233146835171E-14
 -0.155431223448E-14
 -0.166533453694E-14
  0.101654795692E-14
 -0.333066907388E-15
  0.133226762955E-14
  0.388578058619E-15
 -0.300540842213E-15
 -0.666133814775E-14
 -0.333066907388E-15
 -0.666133814775E-15
  0.111022302463E-15
  0.155431223448E-14
  0.344169137634E-14
 -0.144328993201E-14
  0.166533453694E-14
 -0.555111512313E-15
 -0.388578058619E-15
 -0.327515792264E-14
  0.426048085700E-14
 -0.499600361081E-15
  0.582867087928E-15
 -0.344169137634E-14
 -0.570724023596E-14
 -0.288657986403E-14
  0.424139889876E-15
 -0.277555756156E-15
 -0.261249355482E-14
  0.222044604925E-15
  0.444089209850E-15
  0.177635683940E-14
  0.169309011255E-14
  0.144328993201E-14
  0.888178419700E-15
  0.104360964315E-13
 -0.444089209850E-15
 -0.405231403988E-14
  0.346250805805E-14
 -0.183186799063E-14
 -0.484334794493E-14
 -0.310862446895E-14
  0.888178419700E-15
 -0.130451205393E-14
 -0.273045475119E-14
  0.000000000000E+00
 -0.140165656859E-14
 -0.233146835171E-14
 -0.555111512313E-16
  0.555111512313E-14
 -0.149880108324E-14
  0.321964677141E-14
 -0.277555756156E-15
  0.333066907388E-14
  0.632827124036E-14
 -0.149186218934E-14
 -0.210942374679E-14
 -0.986190296093E-15
 -0.222044604925E-14
 -0.444089209850E-15
  0.255351295664E-14
 -0.177635683940E-14
  0.544009282066E-14
  0.943689570931E-15
  0.832667268469E-15
  0.207472927727E-14
  0.444089209850E-15
 -0.777156117238E-15
  0.399680288865E-14
  0.333066907388E-15
  0.777156117238E-15
 -0.777156117238E-15
  0.177635683940E-14
 -0.111022302463E-15
 -0.149880108324E-14
 -0.236616282123E-14
  0.421884749358E-14
  0.999200722163E-15
  0.191513471748E-14
 -0.457966997658E-15
 -0.172084568817E-14
  0.310862446895E-14
  0.233146835171E-14
 -0.444089209850E-15
  0.410782519111E-14
 -0.317801340799E-14
 -0.266453525910E-14
 -0.305658276467E-14
  0.180411241502E-14
  0.151267887105E-14
 -0.333066907388E-15
  0.333066907388E-15
 -0.288657986403E-14
  0.122124532709E-14
  0.310862446895E-14
 -0.666133814775E-15
  0.205391259556E-14
  0.985322934355E-15
 -0.177635683940E-14
  0.391353616180E-14
 -0.227595720048E-14
 -0.436456426556E-14
 -0.699440505514E-14
 -0.449640324973E-14
  0.122124532709E-14
  0.327515792264E-14
  0.210942374679E-14
 -0.111022302463E-14
 -0.444089209850E-15
  0.943689570931E-15
  0.677236045021E-14
  0.999200722163E-15
 -0.421884749358E-14
  0.166533453694E-15
  0.502375918643E-14
 -0.328903571045E-14
  0.388578058619E-15
  0.233146835171E-14
 -0.144328993201E-14
  0.908995101412E-15
  0.413558076673E-14
  0.152655665886E-14
 -0.333066907388E-15
  0.177635683940E-14
  0.446170878021E-14
 -0.488498130835E-14
 -0.333066907388E-15
 -0.432986979604E-14
  0.555111512313E-15
 -0.235922392733E-14
  0.680011602583E-15
 -0.291433543964E-14
 -0.256739074445E-14
 -0.244249065418E-14
  0.999200722163E-15
  0.180411241502E-15
 -0.163757896132E-14
 -0.166533453694E-14
 -0.122124532709E-14
  0.999200722163E-15
 -0.111022302463E-14
  0.344169137634E-14
 -0.351108031538E-14
  0.199840144433E-14
 -0.596744875736E-15
  0.999200722163E-15
  0.144328993201E-14
 -0.466293670343E-14
  0.272004641033E-14
 -0.131838984174E-14
 -0.124900090270E-14
  0.877076189454E-14
 -0.943689570931E-15
 -0.288657986403E-14
  0.384414722276E-14
  0.000000000000E+00
  0.111022302463E-14
 -0.666133814775E-15
 -0.138777878078E-14
 -0.954791801178E-14
  0.667521593556E-14
 -0.999200722163E-15
  0.111022302463E-15
 -0.555111512313E-14
 -0.222044604925E-15
 -0.310862446895E-14
  0.111022302463E-15
  0.133226762955E-14
  0.367761376907E-15
  0.326128013484E-14
  0.241473507856E-14
 -0.455191440096E-14
 -0.832667268469E-16
 -0.179023462721E-14
 -0.344169137634E-14
 -0.321964677141E-14
  0.172084568817E-14
 -0.166533453694E-14
 -0.172084568817E-14
 -0.333066907388E-14
 -0.111022302463E-15
  0.430211422042E-15
 -0.646704911844E-14
 -0.394129173742E-14
  0.137390099297E-14
  0.484334794493E-14
 -0.216493489802E-14
 -0.255351295664E-14