# vtk DataFile Version 3.0
MachLine results file. Generated by MachLine, USU AeroLab (c) 2022.
ASCII
DATASET POLYDATA
POINTS                  20 float
  0.566182289124E+02  0.376179962158E+02  0.000000000000E+00
  0.989139560728E+04  0.376179962158E+02  0.146981732724E+04
  0.482439842224E+02  0.292438049316E+02  0.000000000000E+00
  0.989121264995E+04  0.292438049316E+02  0.147104152334E+04
  0.660765380859E+02  0.470762481689E+02  0.000000000000E+00
  0.989160224885E+04  0.470762481689E+02  0.146843465625E+04
  0.625299339294E+02  0.435296669006E+02  0.000000000000E+00
  0.989152476398E+04  0.435296669006E+02  0.146895311961E+04
  0.209237651825E+02  0.192375373840E+01  0.000000000000E+00
  0.989061576813E+04  0.192375373840E+01  0.147503535285E+04
  0.190000000000E+02  0.000000000000E+00  0.000000000000E+00
  0.989057373844E+04  0.000000000000E+00  0.147531658010E+04
  0.244703655243E+02  0.547033166885E+01  0.000000000000E+00
  0.989069325292E+04  0.547033166885E+01  0.147451689005E+04
  0.303820724487E+02  0.113820018768E+02  0.000000000000E+00
  0.989082240965E+04  0.113820018768E+02  0.147365268214E+04
  0.680002975464E+02  0.490000000000E+02  0.000000000000E+00
  0.989164427842E+04  0.490000000000E+02  0.146815342984E+04
  0.387563171387E+02  0.197561950684E+02  0.000000000000E+00
  0.989100536699E+04  0.197561950684E+02  0.147242848604E+04
POLYGONS                  18                  72
3                   8                   9                  11
3                   8                  11                  10
3                  12                  13                   9
3                  12                   9                   8
3                  14                  15                  13
3                  14                  13                  12
3                  18                  19                  15
3                  18                  15                  14
3                   2                   3                  19
3                   2                  19                  18
3                   0                   1                   3
3                   0                   3                   2
3                   6                   7                   1
3                   6                   1                   0
3                   4                   5                   7
3                   4                   7                   6
3                  16                  17                   5
3                  16                   5                   4
CELL_DATA                  18
NORMALS normals float
  0.146220734871E+00 -0.146221604714E+00 -0.978385782301E+00
  0.146220734871E+00 -0.146221604714E+00 -0.978385782301E+00
  0.146220733713E+00 -0.146221657703E+00 -0.978385774555E+00
  0.146220733713E+00 -0.146221657703E+00 -0.978385774555E+00
  0.146220734052E+00 -0.146221642205E+00 -0.978385776820E+00
  0.146220734052E+00 -0.146221642205E+00 -0.978385776820E+00
  0.146220734243E+00 -0.146221633450E+00 -0.978385778100E+00
  0.146220734243E+00 -0.146221633450E+00 -0.978385778100E+00
  0.146220734614E+00 -0.146221616482E+00 -0.978385780581E+00
  0.146220734614E+00 -0.146221616482E+00 -0.978385780581E+00
  0.146220733531E+00 -0.146221666043E+00 -0.978385773336E+00
  0.146220733531E+00 -0.146221666043E+00 -0.978385773336E+00
  0.146220735312E+00 -0.146221584494E+00 -0.978385785257E+00
  0.146220735312E+00 -0.146221584494E+00 -0.978385785257E+00
  0.146220733293E+00 -0.146221676942E+00 -0.978385771742E+00
  0.146220733293E+00 -0.146221676942E+00 -0.978385771742E+00
  0.146220741070E+00 -0.146221320966E+00 -0.978385823781E+00
  0.146220741070E+00 -0.146221320966E+00 -0.978385823781E+00
POINT_DATA                  20
SCALARS mu float 1
LOOKUP_TABLE default
 -0.406149317466E+01
 -0.406149317466E+01
 -0.459322420473E+01
 -0.459322420473E+01
 -0.166674088235E+01
 -0.166674088235E+01
 -0.305275465085E+01
 -0.305275465085E+01
 -0.428497382057E+01
 -0.428497382057E+01
 -0.421455569775E+01
 -0.421455569775E+01
 -0.442904189048E+01
 -0.442904189048E+01
 -0.460811867095E+01
 -0.460811867095E+01
  0.000000000000E+00
  0.000000000000E+00
 -0.471724351409E+01
 -0.471724351409E+01
