# vtk DataFile Version 3.0
MachLine results file. Generated by MachLine, USU AeroLab (c) 2022.
ASCII
DATASET POLYDATA
POINTS                 144 float
  0.000000000000E+00  0.000000000000E+00  0.000000000000E+00
  0.113538098335E+01  0.000000000000E+00 -0.658124566078E+00
  0.113538098335E+01  0.000000000000E+00  0.658124566078E+00
  0.192375373840E+01  0.192375373840E+01  0.000000000000E+00
  0.305913543701E+01  0.192375373840E+01 -0.658124983311E+00
  0.305913543701E+01  0.192375373840E+01  0.658124983311E+00
  0.423028087616E+01  0.000000000000E+00 -0.108747220039E+01
  0.423028087616E+01  0.000000000000E+00  0.108747220039E+01
  0.547033166885E+01  0.547033166885E+01  0.000000000000E+00
  0.615403699875E+01  0.192375373840E+01 -0.108747279644E+01
  0.615403699875E+01  0.192375373840E+01  0.108747279644E+01
  0.660571479797E+01  0.547033166885E+01 -0.658125698566E+00
  0.660571479797E+01  0.547033166885E+01  0.658125698566E+00
  0.939508819580E+01  0.000000000000E+00 -0.980745851994E+00
  0.939508819580E+01  0.000000000000E+00  0.980745851994E+00
  0.970061969757E+01  0.547033166885E+01 -0.108747410774E+01
  0.970061969757E+01  0.547033166885E+01  0.108747410774E+01
  0.113188476562E+02  0.192375373840E+01 -0.980746448040E+00
  0.113188476562E+02  0.192375373840E+01  0.980746448040E+00
  0.113820018768E+02  0.113820018768E+02  0.000000000000E+00
  0.125173873901E+02  0.113820018768E+02 -0.658127009869E+00
  0.125173873901E+02  0.113820018768E+02  0.658127009869E+00
  0.145402030945E+02  0.000000000000E+00 -0.479613035917E+00
  0.145402030945E+02  0.000000000000E+00  0.479613035917E+00
  0.148654365540E+02  0.547033166885E+01 -0.980747580528E+00
  0.148654365540E+02  0.547033166885E+01  0.980747580528E+00
  0.156122989655E+02  0.113820018768E+02 -0.108747613430E+01
  0.156122989655E+02  0.113820018768E+02  0.108747613430E+01
  0.164639663696E+02  0.192375373840E+01 -0.479613333941E+00
  0.164639663696E+02  0.192375373840E+01  0.479613333941E+00
  0.176505107880E+02  0.000000000000E+00 -0.144198849797E+00
  0.176505107880E+02  0.000000000000E+00  0.144198849797E+00
  0.190000000000E+02  0.000000000000E+00  0.000000000000E+00
  0.195742740631E+02  0.192375373840E+01 -0.144198939204E+00
  0.195742740631E+02  0.192375373840E+01  0.144198939204E+00
  0.197561950684E+02  0.197561950684E+02  0.000000000000E+00
  0.200105609894E+02  0.547033166885E+01 -0.479613870382E+00
  0.200105609894E+02  0.547033166885E+01  0.479613870382E+00
  0.207771244049E+02  0.113820018768E+02 -0.980749428272E+00
  0.207771244049E+02  0.113820018768E+02  0.980749428272E+00
  0.208915824890E+02  0.197561950684E+02 -0.658128738403E+00
  0.208915824890E+02  0.197561950684E+02  0.658128738403E+00
  0.209237651825E+02  0.192375373840E+01  0.000000000000E+00
  0.231208724976E+02  0.547033166885E+01 -0.144199103117E+00
  0.231208724976E+02  0.547033166885E+01  0.144199103117E+00
  0.239865016937E+02  0.197561950684E+02 -0.108747911453E+01
  0.239865016937E+02  0.197561950684E+02  0.108747911453E+01
  0.244703655243E+02  0.547033166885E+01  0.000000000000E+00
  0.259222583771E+02  0.113820018768E+02 -0.479614794254E+00
  0.259222583771E+02  0.113820018768E+02  0.479614794254E+00
  0.290325775146E+02  0.113820018768E+02 -0.144199386239E+00
  0.290325775146E+02  0.113820018768E+02  0.144199386239E+00
  0.291513423920E+02  0.197561950684E+02 -0.980752110481E+00
  0.291513423920E+02  0.197561950684E+02  0.980752110481E+00
  0.292438049316E+02  0.292438049316E+02  0.000000000000E+00
  0.303791980743E+02  0.292438049316E+02 -0.658130764961E+00
  0.303791980743E+02  0.292438049316E+02  0.658130764961E+00
  0.303820724487E+02  0.113820018768E+02  0.000000000000E+00
  0.334741249084E+02  0.292438049316E+02 -0.108748245239E+01
  0.334741249084E+02  0.292438049316E+02  0.108748245239E+01
  0.342964897156E+02  0.197561950684E+02 -0.479616105556E+00
  0.342964897156E+02  0.197561950684E+02  0.479616105556E+00
  0.374068183899E+02  0.197561950684E+02 -0.144199773669E+00
  0.374068183899E+02  0.197561950684E+02  0.144199773669E+00
  0.376179962158E+02  0.376179962158E+02  0.000000000000E+00
  0.386389808655E+02  0.292438049316E+02 -0.980755090714E+00
  0.386389808655E+02  0.292438049316E+02  0.980755090714E+00
  0.387533912659E+02  0.376179962158E+02 -0.658132553101E+00
  0.387533912659E+02  0.376179962158E+02  0.658132553101E+00
  0.387563171387E+02  0.197561950684E+02  0.000000000000E+00
  0.418483314514E+02  0.376179962158E+02 -0.108748543262E+01
  0.418483314514E+02  0.376179962158E+02  0.108748543262E+01
  0.435296669006E+02  0.435296669006E+02  0.000000000000E+00
  0.437841453552E+02  0.292438049316E+02 -0.479617565870E+00
  0.437841453552E+02  0.292438049316E+02  0.479617565870E+00
  0.446650657654E+02  0.435296669006E+02 -0.658133804798E+00
  0.446650657654E+02  0.435296669006E+02  0.658133804798E+00
  0.468944816589E+02  0.292438049316E+02 -0.144200220704E+00
  0.468944816589E+02  0.292438049316E+02  0.144200220704E+00
  0.470131988525E+02  0.376179962158E+02 -0.980757772923E+00
  0.470131988525E+02  0.376179962158E+02  0.980757772923E+00
  0.470762481689E+02  0.470762481689E+02  0.000000000000E+00
  0.477600097656E+02  0.435296669006E+02 -0.108748745918E+01
  0.477600097656E+02  0.435296669006E+02  0.108748745918E+01
  0.482116432190E+02  0.470762481689E+02 -0.658134579659E+00
  0.482116432190E+02  0.470762481689E+02  0.658134579659E+00
  0.482439842224E+02  0.292438049316E+02  0.000000000000E+00
  0.490000000000E+02  0.490000000000E+02  0.000000000000E+00
  0.501353988647E+02  0.490000000000E+02 -0.658134996891E+00
  0.501353988647E+02  0.490000000000E+02  0.658134996891E+00
  0.506007728577E+02  0.494653701782E+02 -0.465371757746E+00
  0.506007728577E+02  0.494653701782E+02  0.465371757746E+00
  0.507935333252E+02  0.496581344604E+02 -0.771266485397E-15
  0.513065910339E+02  0.470762481689E+02 -0.108748877048E+01
  0.513065910339E+02  0.470762481689E+02  0.108748877048E+01
  0.521583786011E+02  0.376179962158E+02 -0.479618877172E+00
  0.521583786011E+02  0.376179962158E+02  0.479618877172E+00
  0.529248886108E+02  0.435296669006E+02 -0.980759620667E+00
  0.529248886108E+02  0.435296669006E+02  0.980759620667E+00
  0.532303466797E+02  0.490000000000E+02 -0.108748936653E+01
  0.532303466797E+02  0.490000000000E+02  0.108748936653E+01
  0.539993209839E+02  0.497689704895E+02 -0.768971264362E+00
  0.539993209839E+02  0.497689704895E+02  0.768971264362E+00
  0.543178405762E+02  0.500874900818E+02 -0.157378642191E-15
  0.552687225342E+02  0.376179962158E+02 -0.144200608134E+00
  0.552687225342E+02  0.376179962158E+02  0.144200608134E+00
  0.564714775085E+02  0.470762481689E+02 -0.980760753155E+00
  0.564714775085E+02  0.470762481689E+02  0.980760753155E+00
  0.566182289124E+02  0.376179962158E+02  0.000000000000E+00
  0.580700759888E+02  0.435296669006E+02 -0.479619771242E+00
  0.580700759888E+02  0.435296669006E+02  0.479619771242E+00
  0.583952369690E+02  0.490000000000E+02 -0.980761349201E+00
  0.583952369690E+02  0.490000000000E+02  0.980761349201E+00
  0.590887413025E+02  0.496935043335E+02 -0.693503141403E+00
  0.590887413025E+02  0.496935043335E+02  0.693503141403E+00
  0.593759994507E+02  0.499807624817E+02  0.000000000000E+00
  0.611804275513E+02  0.435296669006E+02 -0.144200876355E+00
  0.611804275513E+02  0.435296669006E+02  0.144200876355E+00
  0.616166725159E+02  0.470762481689E+02 -0.479620337486E+00
  0.616166725159E+02  0.470762481689E+02  0.479620337486E+00
  0.625299339294E+02  0.435296669006E+02  0.000000000000E+00
  0.635404319763E+02  0.490000000000E+02 -0.479620635509E+00
  0.635404319763E+02  0.490000000000E+02  0.479620635509E+00
  0.638795776367E+02  0.493391418457E+02 -0.339143037796E+00
  0.638795776367E+02  0.493391418457E+02  0.339143037796E+00
  0.640200576782E+02  0.494796218872E+02  0.296956834055E-15
  0.647270278931E+02  0.470762481689E+02 -0.144201040268E+00
  0.647270278931E+02  0.470762481689E+02  0.144201040268E+00
  0.660765380859E+02  0.470762481689E+02  0.000000000000E+00
  0.666507873535E+02  0.490000000000E+02 -0.144201144576E+00
  0.666507873535E+02  0.490000000000E+02  0.144201144576E+00
  0.667527542114E+02  0.491019668579E+02 -0.101965606213E+00
  0.667527542114E+02  0.491019668579E+02  0.101965606213E+00
  0.667949905396E+02  0.491441993713E+02 -0.260488604752E-16
  0.680002975464E+02  0.490000000000E+02  0.000000000000E+00
  0.190000000000E+02  0.000000000000E+00  0.000000000000E+00
  0.209237651825E+02  0.192375373840E+01  0.000000000000E+00
  0.244703655243E+02  0.547033166885E+01  0.000000000000E+00
  0.303820724487E+02  0.113820018768E+02  0.000000000000E+00
  0.387563171387E+02  0.197561950684E+02  0.000000000000E+00
  0.482439842224E+02  0.292438049316E+02  0.000000000000E+00
  0.566182289124E+02  0.376179962158E+02  0.000000000000E+00
  0.625299339294E+02  0.435296669006E+02  0.000000000000E+00
  0.660765380859E+02  0.470762481689E+02  0.000000000000E+00
POLYGONS                 256                1024
3                  32                  33                  42
3                  32                  30                  33
3                  30                  28                  33
3                  30                  22                  28
3                  22                  17                  28
3                  22                  13                  17
3                  13                   6                  17
3                  17                   6                   9
3                   6                   1                   9
3                   9                   1                   4
3                   1                   0                   4
3                   4                   0                   3
3                   0                   5                   3
3                   0                   2                   5
3                   2                  10                   5
3                   2                   7                  10
[...]
CELL_DATA                 256
SCALARS C_p_inc float 1
LOOKUP_TABLE default
  0.134934207290E+00
  0.114299254879E+00
  0.759010601620E-01
  0.573768209288E-01
  0.236279385483E-01
  0.105798554757E-01
  0.519408256788E-01
  0.293115392501E-01
  0.248720508996E+00
  0.183008749875E+00
  0.594928335429E+00
  0.595989184603E+00
 -0.538513936105E+00
  0.129729256196E-01
 -0.658638048939E+00
 -0.462389950670E+00
 -0.467276470493E+00
 -0.478315017796E+00
 -0.336709059584E+00
 -0.275455737311E+00
 -0.150633609761E+00
 -0.719091235949E-01
  0.127179778077E-01
  0.989816711846E-01
  0.130171864800E+00
  0.133605108040E+00
  0.780575660213E-01
  0.757713462343E-01
  0.315220272881E-01
  0.237513056172E-01
  0.299926127677E-01
  0.252712304896E-01
  0.177609760218E+00
  0.179970752632E+00
  0.523163028195E+00
  0.508752162660E+00
 -0.825338466373E+00
 -0.513078788957E+00
 -0.797200249713E+00
 -0.653540104878E+00
 -0.480218428917E+00
 -0.485006780213E+00
 -0.276142413829E+00
 -0.221747609804E+00
 -0.716608672733E-01
 -0.257634598008E-01
  0.958493138120E-01
  0.112124276307E+00
  0.128583567333E+00
  0.129410243038E+00
  0.756872536660E-01
  0.777771625414E-01
  0.335136670506E-01
  0.316493146981E-01
  0.254398436035E-01
  0.353811038896E-01
  0.178508927880E+00
  0.199992089654E+00
  0.511905088928E+00
  0.494974116324E+00
 -0.101769430651E+01
 -0.819633398326E+00
 -0.876640251026E+00
 -0.801466992000E+00
 -0.482885187322E+00
 -0.496054237614E+00
 -0.223161546424E+00
 -0.197415035221E+00
 -0.257608814287E-01
 -0.110417863379E-01
  0.112229326378E+00
  0.119283710800E+00
  0.125643996863E+00
  0.127694508452E+00
  0.721327173188E-01
  0.753091833112E-01
  0.322721254356E-01
  0.335003454680E-01
  0.353814136971E-01
  0.409164558785E-01
  0.200598329918E+00
  0.217319249536E+00
  0.505598752369E+00
  0.492644886194E+00
 -0.111667605966E+01
 -0.101771501122E+01
 -0.914384024055E+00
 -0.883526704717E+00
 -0.488794227827E+00
 -0.491664197160E+00
 -0.198863568619E+00
 -0.190712737829E+00
 -0.109869928959E-01
 -0.319369745039E-02
  0.120428822655E+00
  0.126817532372E+00
  0.115315172334E+00
  0.124204469839E+00
  0.601378449797E-01
  0.715078016917E-01
  0.228157619807E-01
  0.321368961323E-01
  0.407947512490E-01
  0.358163922155E-01
  0.217108813464E+00
  0.219119996110E+00
  0.496750512998E+00
  0.492828687379E+00
 -0.114233181626E+01
 -0.111724579976E+01
 -0.919743869174E+00
 -0.918401020399E+00
 -0.482452690053E+00
 -0.493465006766E+00
 -0.192185832232E+00
 -0.178342332915E+00
 -0.325207079745E-02
  0.130378499319E-01
  0.128418812097E+00
  0.143254882178E+00
  0.938393935497E-01
  0.112142327231E+00
  0.329347907692E-01
  0.587315594186E-01
 -0.334721372523E-02
  0.224655876970E-01
  0.353314211991E-01
  0.126058624460E-01
  0.217283062847E+00
  0.202139985511E+00
  0.490367891337E+00
  0.496879856515E+00
 -0.109743160481E+01
 -0.114323993028E+01
 -0.886734536061E+00
 -0.924567569684E+00
 -0.450569572229E+00
 -0.488871684758E+00
 -0.180142865703E+00
 -0.143166928413E+00
  0.126524944180E-01
  0.535956698649E-01
  0.145792130361E+00
  0.182668800493E+00
  0.593527053353E-01
  0.862028981091E-01
 -0.395967418525E-02
  0.292178771019E-01
 -0.404524264657E-01
 -0.454656124267E-02
  0.108720877376E-01
 -0.331036690998E-01
  0.196791226196E+00
  0.161174019154E+00
  0.485173720228E+00
  0.501189816164E+00
 -0.995497606789E+00
 -0.109913079671E+01
 -0.817007611641E+00
 -0.895745915197E+00
 -0.383329849119E+00
 -0.464621203772E+00
 -0.145993062029E+00
 -0.722337510289E-01
  0.517203781075E-01
  0.127230781975E+00
  0.186158805218E+00
  0.257416776142E+00
 -0.271781603038E-01
  0.403853018845E-01
 -0.622171362604E-01
 -0.131282117888E-01
 -0.721490753170E-01
 -0.451260481815E-01
 -0.388927373130E-01
 -0.728652083878E-01
  0.145063577111E+00
  0.837374616768E-01
  0.466576806886E+00
  0.494416343163E+00
 -0.857615928672E+00
 -0.997482712385E+00
 -0.710584325978E+00
 -0.834906150590E+00
 -0.267564491959E+00
 -0.421497500243E+00
 -0.794759957419E-01
  0.589653876907E-02
  0.117524612479E+00
  0.208975543298E+00
  0.253368936775E+00
  0.369672456885E+00
 -0.242816900874E+00
 -0.813188960233E-01
 -0.164346044265E+00
 -0.912299919122E-01
 -0.124448875535E+00
 -0.919363314061E-01
 -0.964084065280E-01
 -0.973191092188E-01
  0.318270506562E-01
  0.100438495026E-01
  0.336159707222E+00
  0.421234033724E+00
 -0.648630460114E+00
 -0.856797410623E+00
 -0.465785130081E+00
 -0.783697348038E+00
 -0.162126414634E+00
 -0.387730776153E+00
 -0.301741498654E-01
  0.125533511588E-01
  0.150789616180E+00
  0.216275778814E+00
  0.309721098114E+00
  0.477315130620E+00
 -0.823848822404E+00
 -0.825680639896E+00
 -0.401263007997E+00
 -0.416091238028E+00
 -0.236634353574E+00
 -0.239411886736E+00
 -0.225221300663E+00
 -0.185110797274E+00
 -0.220954761060E+00
 -0.714087356461E-01
 -0.649250006058E+00
 -0.408418699530E+00
 -0.638398526720E+00
 -0.241605478079E+00
 -0.507263261244E+00
 -0.177503125576E+00
 -0.446406618437E+00
 -0.249821118403E+00
 -0.818063328991E+00
 -0.453974745359E+00
 -0.170844848005E+01
 -0.176275786349E+01
 -0.786904745074E+00
 -0.852602171877E+00
 -0.431977349934E+00
 -0.475986262570E+00
 -0.410814635724E+00
 -0.420334283478E+00
 -0.458730427836E+00
 -0.344902459351E+00
 -0.545185971215E+00
 -0.520700380865E+00
 -0.562835740670E+00
 -0.397032985615E+00
 -0.597535913963E+00
 -0.435235746922E+00
 -0.833350214929E+00
 -0.766505953715E+00
 -0.172834497116E+01
 -0.157500163989E+01
SCALARS sigma float 1
LOOKUP_TABLE default
  0.416558675790E-01
  0.416557841945E-01
  0.406839061478E-01
  0.406839718358E-01
  0.509980115866E-01
  0.509979976318E-01
  0.127317884882E+00
  0.127317898248E+00
  0.279681352004E+00
  0.279681337772E+00
  0.557666551474E+00
  0.557666552086E+00
  0.329046030004E+00
  0.329046028916E+00
 -0.104073573095E-01
 -0.104073406952E-01
 -0.168174771599E+00
 -0.168174784583E+00
 -0.241855645221E+00
 -0.241855630996E+00
 -0.251555799900E+00
 -0.251555864797E+00
 -0.250644415904E+00
 -0.250644335881E+00
  0.416558965706E-01
  0.416558674558E-01
  0.406839180866E-01
  0.406839058149E-01
  0.509980042761E-01
  0.509980116707E-01
  0.127317898122E+00
  0.127317888326E+00
  0.279681338441E+00
  0.279681375533E+00
  0.557666545875E+00
  0.557666514132E+00
  0.329045976142E+00
  0.329046026339E+00
 -0.104073154585E-01
 -0.104073573344E-01
 -0.168174781023E+00
 -0.168174771433E+00
 -0.241855631395E+00
 -0.241855638674E+00
 -0.251555862738E+00
 -0.251555850898E+00
 -0.250644335140E+00
 -0.250644307487E+00
  0.416558386388E-01
  0.416558965626E-01
  0.406839757396E-01
  0.406839181621E-01
  0.509980052664E-01
  0.509980043071E-01
  0.127317888387E+00
  0.127317888106E+00
  0.279681374954E+00
  0.279681315255E+00
  0.557666511820E+00
  0.557666490585E+00
  0.329045942726E+00
  0.329045974778E+00
 -0.104073817983E-01
 -0.104073154370E-01
 -0.168174781380E+00
 -0.168174781104E+00
 -0.241855638821E+00
 -0.241855637892E+00
 -0.251555851365E+00
 -0.251555796443E+00
 -0.250644307438E+00
 -0.250644362183E+00
  0.416558534261E-01
  0.416558386777E-01
  0.406840089961E-01
  0.406839758898E-01
  0.509979917295E-01
  0.509980052440E-01
  0.127317888088E+00
  0.127317891420E+00
  0.279681316452E+00
  0.279681371539E+00
  0.557666504968E+00
  0.557666698097E+00
  0.329046237214E+00
  0.329045951212E+00
 -0.104073210206E-01
 -0.104073818428E-01
 -0.168174778076E+00
 -0.168174781355E+00
 -0.241855637786E+00
 -0.241855650769E+00
 -0.251555797372E+00
 -0.251555765952E+00
 -0.250644362417E+00
 -0.250644348509E+00
  0.416558246630E-01
  0.416558534631E-01
  0.406839486062E-01
  0.406840089365E-01
  0.509980208575E-01
  0.509979916926E-01
  0.127317891428E+00
  0.127317883274E+00
  0.279681370858E+00
  0.279681443059E+00
  0.557666671805E+00
  0.557666268308E+00
  0.329045627285E+00
  0.329046221700E+00
 -0.104072414277E-01
 -0.104073209952E-01
 -0.168174786114E+00
 -0.168174778087E+00
 -0.241855650594E+00
 -0.241855622635E+00
 -0.251555765583E+00
 -0.251555822759E+00
 -0.250644348732E+00
 -0.250644375875E+00
  0.416558392607E-01
  0.416558245124E-01
  0.406839164092E-01
  0.406839484226E-01
  0.509980429316E-01
  0.509980208234E-01
  0.127317883260E+00
  0.127317871398E+00
  0.279681442057E+00
  0.279681253939E+00
  0.557666284066E+00
  0.557666495655E+00
  0.329045949920E+00
  0.329045636582E+00
 -0.104074490933E-01
 -0.104072413904E-01
 -0.168174797767E+00
 -0.168174786096E+00
 -0.241855622473E+00
 -0.241855601234E+00
 -0.251555821624E+00
 -0.251555852007E+00
 -0.250644374969E+00
 -0.250644361060E+00
  0.416556434230E-01
  0.416558393283E-01
  0.406839789032E-01
  0.406839166087E-01
  0.509980026952E-01
  0.509980430185E-01
  0.127317871436E+00
  0.127317882558E+00
  0.279681253261E+00
  0.279681322811E+00
  0.557666464276E+00
  0.557666176047E+00
  0.329045496353E+00
  0.329045931405E+00
 -0.104073717554E-01
 -0.104074490681E-01
 -0.168174786890E+00
 -0.168174797816E+00
 -0.241855601646E+00
 -0.241855640675E+00
 -0.251555853240E+00
 -0.251555793819E+00
 -0.250644361467E+00
 -0.250644546619E+00
  0.416558212935E-01
  0.416556434217E-01
  0.406839819662E-01
  0.406839791092E-01
  0.509980367689E-01
  0.509980029991E-01
  0.127317882573E+00
  0.127317878486E+00
  0.279681332059E+00
  0.279681334077E+00
  0.557666338824E+00
  0.557667170701E+00
  0.329046907904E+00
  0.329045592398E+00
 -0.104073698213E-01
 -0.104073720996E-01
 -0.168174790910E+00
 -0.168174786910E+00
 -0.241855642117E+00
 -0.241855608875E+00
 -0.251555795093E+00
 -0.251555792336E+00
 -0.250644546610E+00
 -0.250644377669E+00
  0.416557461993E-01
  0.416558222143E-01
  0.406839211583E-01
  0.406839821531E-01
  0.509979796347E-01
  0.509980361966E-01
  0.127317878428E+00
  0.127317893704E+00
  0.279681321638E+00
  0.279681369917E+00
  0.557666990416E+00
  0.557666573152E+00
  0.329046059899E+00
  0.329046801528E+00
 -0.104073129992E-01
 -0.104073693585E-01
 -0.168174775995E+00
 -0.168174790834E+00
 -0.241855606161E+00
 -0.241855663817E+00
 -0.251555793492E+00
 -0.251555853752E+00
 -0.250644383210E+00
 -0.250644456161E+00
  0.400611139816E-01
  0.391420659242E-01
  0.391414832923E-01
  0.488651672798E-01
  0.488653367147E-01
  0.118502099363E+00
  0.118502179099E+00
  0.247604497094E+00
  0.247604622930E+00
  0.473036414806E+00
  0.279110809172E+00
 -0.921333783502E-02
 -0.921369021475E-02
 -0.156529766140E+00
 -0.156529953768E+00
 -0.231741699052E+00
 -0.231741780079E+00
 -0.242018688621E+00
 -0.242018480533E+00
 -0.241049484003E+00
 -0.448946519006E-01
 -0.459168404322E-01
 -0.459102134533E-01
 -0.351788832142E-01
 -0.351805933679E-01
  0.383512962820E-01
  0.383512787652E-01
  0.162694825392E+00
  0.162694784940E+00
  0.366159010477E+00
  0.295495463864E+00
  0.622960719233E-01
  0.622964797783E-01
 -0.767837841930E-01
 -0.767832613922E-01
 -0.157891101208E+00
 -0.157891165899E+00
 -0.169657965523E+00
 -0.169656645665E+00
 -0.168536594000E+00
SCALARS inclination float 1
LOOKUP_TABLE default
  0.100000000000E+01
  0.100000000000E+01
  0.100000000000E+01
  0.100000000000E+01
  0.100000000000E+01
  0.100000000000E+01
  0.100000000000E+01
  0.100000000000E+01
  0.100000000000E+01
  0.100000000000E+01
  0.100000000000E+01
  0.100000000000E+01
  0.100000000000E+01
  0.100000000000E+01
  0.100000000000E+01
  0.100000000000E+01
  0.100000000000E+01
  0.100000000000E+01
  0.100000000000E+01
  0.100000000000E+01
  0.100000000000E+01
  0.100000000000E+01
  0.100000000000E+01
  0.100000000000E+01
  0.100000000000E+01
  0.100000000000E+01
  0.100000000000E+01
  0.100000000000E+01
  0.100000000000E+01
  0.100000000000E+01
  0.100000000000E+01
  0.100000000000E+01
  0.100000000000E+01
  0.100000000000E+01
  0.100000000000E+01
  0.100000000000E+01
  0.100000000000E+01
  0.100000000000E+01
  0.100000000000E+01
  0.100000000000E+01
  0.100000000000E+01
  0.100000000000E+01
  0.100000000000E+01
  0.100000000000E+01
  0.100000000000E+01
  0.100000000000E+01
  0.100000000000E+01
  0.100000000000E+01
  0.100000000000E+01
  0.100000000000E+01
  0.100000000000E+01
  0.100000000000E+01
  0.100000000000E+01
  0.100000000000E+01
  0.100000000000E+01
  0.100000000000E+01
  0.100000000000E+01
  0.100000000000E+01
  0.100000000000E+01
  0.100000000000E+01
  0.100000000000E+01
  0.100000000000E+01
  0.100000000000E+01
  0.100000000000E+01
  0.100000000000E+01
  0.100000000000E+01
  0.100000000000E+01
  0.100000000000E+01
  0.100000000000E+01
  0.100000000000E+01
  0.100000000000E+01
  0.100000000000E+01
  0.100000000000E+01
  0.100000000000E+01
  0.100000000000E+01
  0.100000000000E+01
  0.100000000000E+01
  0.100000000000E+01
  0.100000000000E+01
  0.100000000000E+01
  0.100000000000E+01
  0.100000000000E+01
  0.100000000000E+01
  0.100000000000E+01
  0.100000000000E+01
  0.100000000000E+01
  0.100000000000E+01
  0.100000000000E+01
  0.100000000000E+01
  0.100000000000E+01
  0.100000000000E+01
  0.100000000000E+01
  0.100000000000E+01
  0.100000000000E+01
  0.100000000000E+01
  0.100000000000E+01
  0.100000000000E+01
  0.100000000000E+01
  0.100000000000E+01
  0.100000000000E+01
  0.100000000000E+01
  0.100000000000E+01
  0.100000000000E+01
  0.100000000000E+01
  0.100000000000E+01
  0.100000000000E+01
  0.100000000000E+01
  0.100000000000E+01
  0.100000000000E+01
  0.100000000000E+01
  0.100000000000E+01
  0.100000000000E+01
  0.100000000000E+01
  0.100000000000E+01
  0.100000000000E+01
  0.100000000000E+01
  0.100000000000E+01
  0.100000000000E+01
  0.100000000000E+01
  0.100000000000E+01
  0.100000000000E+01
  0.100000000000E+01
  0.100000000000E+01
  0.100000000000E+01
  0.100000000000E+01
  0.100000000000E+01
  0.100000000000E+01
  0.100000000000E+01
  0.100000000000E+01
  0.100000000000E+01
  0.100000000000E+01
  0.100000000000E+01
  0.100000000000E+01
  0.100000000000E+01
  0.100000000000E+01
  0.100000000000E+01
  0.100000000000E+01
  0.100000000000E+01
  0.100000000000E+01
  0.100000000000E+01
  0.100000000000E+01
  0.100000000000E+01
  0.100000000000E+01
  0.100000000000E+01
  0.100000000000E+01
  0.100000000000E+01
  0.100000000000E+01
  0.100000000000E+01
  0.100000000000E+01
  0.100000000000E+01
  0.100000000000E+01
  0.100000000000E+01
  0.100000000000E+01
  0.100000000000E+01
  0.100000000000E+01
  0.100000000000E+01
  0.100000000000E+01
  0.100000000000E+01
  0.100000000000E+01
  0.100000000000E+01
  0.100000000000E+01
  0.100000000000E+01
  0.100000000000E+01
  0.100000000000E+01
  0.100000000000E+01
  0.100000000000E+01
  0.100000000000E+01
  0.100000000000E+01
  0.100000000000E+01
  0.100000000000E+01
  0.100000000000E+01
  0.100000000000E+01
  0.100000000000E+01
  0.100000000000E+01
  0.100000000000E+01
  0.100000000000E+01
  0.100000000000E+01
  0.100000000000E+01
  0.100000000000E+01
  0.100000000000E+01
  0.100000000000E+01
  0.100000000000E+01
  0.100000000000E+01
  0.100000000000E+01
  0.100000000000E+01
  0.100000000000E+01
  0.100000000000E+01
  0.100000000000E+01
  0.100000000000E+01
  0.100000000000E+01
  0.100000000000E+01
  0.100000000000E+01
  0.100000000000E+01
  0.100000000000E+01
  0.100000000000E+01
  0.100000000000E+01
  0.100000000000E+01
  0.100000000000E+01
  0.100000000000E+01
  0.100000000000E+01
  0.100000000000E+01
  0.100000000000E+01
  0.100000000000E+01
  0.100000000000E+01
  0.100000000000E+01
  0.100000000000E+01
  0.100000000000E+01
  0.100000000000E+01
  0.100000000000E+01
  0.100000000000E+01
  0.100000000000E+01
  0.100000000000E+01
  0.100000000000E+01
  0.100000000000E+01
  0.100000000000E+01
  0.100000000000E+01
  0.100000000000E+01
  0.100000000000E+01
  0.100000000000E+01
  0.100000000000E+01
  0.100000000000E+01
  0.100000000000E+01
  0.100000000000E+01
  0.100000000000E+01
  0.100000000000E+01
  0.100000000000E+01
  0.100000000000E+01
  0.100000000000E+01
  0.100000000000E+01
  0.100000000000E+01
  0.100000000000E+01
  0.100000000000E+01
  0.100000000000E+01
  0.100000000000E+01
  0.100000000000E+01
  0.100000000000E+01
  0.100000000000E+01
  0.100000000000E+01
  0.100000000000E+01
  0.100000000000E+01
  0.100000000000E+01
  0.100000000000E+01
  0.100000000000E+01
  0.100000000000E+01
  0.100000000000E+01
  0.100000000000E+01
  0.100000000000E+01
  0.100000000000E+01
  0.100000000000E+01
  0.100000000000E+01
  0.100000000000E+01
  0.100000000000E+01
  0.100000000000E+01
  0.100000000000E+01
  0.100000000000E+01
  0.100000000000E+01
VECTORS v float
  0.150747712881E+03  0.328033360049E+01  0.157575226245E+02
  0.152539860694E+03  0.276383823573E+01  0.160042242832E+02
  0.155782520421E+03 -0.478837527724E+00  0.168511654883E+02
  0.157347396196E+03  0.497421378961E+00  0.169146305651E+02
  0.160263256755E+03 -0.241845380060E+01  0.158451543481E+02
  0.161365167200E+03 -0.591678945793E+00  0.157745538856E+02
  0.158663373605E+03  0.211011880040E+01  0.323503901196E+01
  0.160490278164E+03 -0.463140507701E+01  0.341209842659E+01
  0.139269081361E+03  0.165898116955E+02 -0.170189870803E+02
  0.145898979642E+03 -0.147060331638E+01 -0.204442067544E+02
  0.821867912594E+02  0.622416106815E+02 -0.115612412066E+02
  0.826139875645E+02  0.612885879542E+02 -0.123612863232E+02
  0.167490207316E+03 -0.235876317972E+02  0.110758434658E+03
  0.144483460412E+03  0.277376087174E+02  0.676718336470E+02
  0.204758368073E+03 -0.325373138166E+02  0.329194203453E+02
  0.195036763665E+03 -0.605482480746E+01  0.278969266202E+02
  0.197225955467E+03 -0.824400936353E+01 -0.424586200533E+01
  0.197856215890E+03 -0.105697554228E+02 -0.430694926680E+01
  0.187563892383E+03 -0.277396968443E+00 -0.182956915476E+02
  0.182974948364E+03 -0.788506204993E+01 -0.185897163073E+02
  0.173848121203E+03  0.124181035910E+01 -0.186137862594E+02
  0.167736811881E+03 -0.257077858751E+01 -0.183659070586E+02
  0.161037070687E+03  0.412899574552E+01 -0.167663146313E+02
  0.153791557063E+03  0.621714902126E+01 -0.157689572419E+02
  0.151092029143E+03  0.657179936801E+01  0.154426003805E+02
  0.150786979563E+03  0.675864090431E+01  0.153900439176E+02
  0.155617098469E+03  0.192849412869E+01  0.165737172316E+02
  0.155809946956E+03  0.190695728846E+01  0.165968384184E+02
  0.159625527238E+03 -0.190864107964E+01  0.157333848942E+02
  0.160270826316E+03 -0.161297721495E+01  0.157674378871E+02
  0.160491472340E+03 -0.183362788517E+01  0.335430860470E+01
  0.160868026484E+03 -0.275936134567E+01  0.338122125345E+01
  0.146152502624E+03  0.119561741662E+02 -0.186167171341E+02
  0.145911488948E+03  0.124193328908E+02 -0.185190344455E+02
  0.855134247607E+02  0.728174236904E+02 -0.735924565865E+01
  0.801321127027E+02  0.814263195904E+02  0.750188011652E+00
  0.183736484527E+03 -0.221780522342E+02  0.119358518614E+03
  0.172404112850E+03 -0.404879498898E+01  0.102281080730E+03
  0.211326232249E+03 -0.429709165741E+02  0.352780006066E+02
  0.204798234330E+03 -0.304259695312E+02  0.326320492769E+02
  0.196968862188E+03 -0.225965731205E+02 -0.453714109350E+01
  0.197219566250E+03 -0.232129123683E+02 -0.455505555118E+01
  0.182964863805E+03 -0.895816132780E+01 -0.186932541715E+02
  0.178891003573E+03 -0.108247281056E+02 -0.184782668785E+02
  0.167769774040E+03  0.296553698233E+00 -0.180602479766E+02
  0.164141302861E+03  0.701775578072E+00 -0.176252537405E+02
  0.153845523836E+03  0.109976140182E+02 -0.152639071965E+02
  0.152391738020E+03  0.118880504727E+02 -0.150134120707E+02
  0.151181807353E+03  0.789279077773E+01  0.153110476031E+02
  0.151107584606E+03  0.794972861363E+01  0.152970239683E+02
  0.155810277002E+03  0.324700858211E+01  0.164523515969E+02
  0.155633202177E+03  0.332933306088E+01  0.164243870512E+02
  0.159484861254E+03 -0.522343856009E+00  0.155846580924E+02
  0.159638381393E+03 -0.540830527714E+00  0.156014116752E+02
  0.160868448391E+03 -0.177090502208E+01  0.336080393228E+01
  0.160056006210E+03 -0.247787162437E+00  0.331254105496E+01
  0.145938868351E+03  0.138693649157E+02 -0.183216734047E+02
  0.143691147836E+03  0.173515578833E+02 -0.175267693157E+02
  0.800284810926E+02  0.810142543162E+02  0.571405171227E+00
  0.746752969788E+02  0.882050316125E+02  0.784252017882E+01