# vtk DataFile Version 3.0
TriPan results file. Generated by TriPan, USU AeroLab (c) 2021.
ASCII
DATASET POLYDATA
POINTS                 144 float
  0.000000000000E+00  0.000000000000E+00  0.000000000000E+00
  0.113538098335E+01  0.000000000000E+00 -0.658124566078E+00
  0.113538098335E+01  0.000000000000E+00  0.658124566078E+00
  0.192375373840E+01  0.192375373840E+01  0.000000000000E+00
  0.305913543701E+01  0.192375373840E+01 -0.658124983311E+00
  0.305913543701E+01  0.192375373840E+01  0.658124983311E+00
  0.423028087616E+01  0.000000000000E+00 -0.108747220039E+01
  0.423028087616E+01  0.000000000000E+00  0.108747220039E+01
  0.547033166885E+01  0.547033166885E+01  0.000000000000E+00
  0.615403699875E+01  0.192375373840E+01 -0.108747279644E+01
  0.615403699875E+01  0.192375373840E+01  0.108747279644E+01
  0.660571479797E+01  0.547033166885E+01 -0.658125698566E+00
  0.660571479797E+01  0.547033166885E+01  0.658125698566E+00
  0.939508819580E+01  0.000000000000E+00 -0.980745851994E+00
  0.939508819580E+01  0.000000000000E+00  0.980745851994E+00
  0.970061969757E+01  0.547033166885E+01 -0.108747410774E+01
  0.970061969757E+01  0.547033166885E+01  0.108747410774E+01
  0.113188476562E+02  0.192375373840E+01 -0.980746448040E+00
  0.113188476562E+02  0.192375373840E+01  0.980746448040E+00
  0.113820018768E+02  0.113820018768E+02  0.000000000000E+00
  0.125173873901E+02  0.113820018768E+02 -0.658127009869E+00
  0.125173873901E+02  0.113820018768E+02  0.658127009869E+00
  0.145402030945E+02  0.000000000000E+00 -0.479613035917E+00
  0.145402030945E+02  0.000000000000E+00  0.479613035917E+00
  0.148654365540E+02  0.547033166885E+01 -0.980747580528E+00
  0.148654365540E+02  0.547033166885E+01  0.980747580528E+00
  0.156122989655E+02  0.113820018768E+02 -0.108747613430E+01
  0.156122989655E+02  0.113820018768E+02  0.108747613430E+01
  0.164639663696E+02  0.192375373840E+01 -0.479613333941E+00
  0.164639663696E+02  0.192375373840E+01  0.479613333941E+00
  0.176505107880E+02  0.000000000000E+00 -0.144198849797E+00
  0.176505107880E+02  0.000000000000E+00  0.144198849797E+00
  0.190000000000E+02  0.000000000000E+00  0.000000000000E+00
  0.195742740631E+02  0.192375373840E+01 -0.144198939204E+00
  0.195742740631E+02  0.192375373840E+01  0.144198939204E+00
  0.197561950684E+02  0.197561950684E+02  0.000000000000E+00
  0.200105609894E+02  0.547033166885E+01 -0.479613870382E+00
  0.200105609894E+02  0.547033166885E+01  0.479613870382E+00
  0.207771244049E+02  0.113820018768E+02 -0.980749428272E+00
  0.207771244049E+02  0.113820018768E+02  0.980749428272E+00
  0.208915824890E+02  0.197561950684E+02 -0.658128738403E+00
  0.208915824890E+02  0.197561950684E+02  0.658128738403E+00
  0.209237651825E+02  0.192375373840E+01  0.000000000000E+00
  0.231208724976E+02  0.547033166885E+01 -0.144199103117E+00
  0.231208724976E+02  0.547033166885E+01  0.144199103117E+00
  0.239865016937E+02  0.197561950684E+02 -0.108747911453E+01
  0.239865016937E+02  0.197561950684E+02  0.108747911453E+01
  0.244703655243E+02  0.547033166885E+01  0.000000000000E+00
  0.259222583771E+02  0.113820018768E+02 -0.479614794254E+00
  0.259222583771E+02  0.113820018768E+02  0.479614794254E+00
  0.290325775146E+02  0.113820018768E+02 -0.144199386239E+00
  0.290325775146E+02  0.113820018768E+02  0.144199386239E+00
  0.291513423920E+02  0.197561950684E+02 -0.980752110481E+00
  0.291513423920E+02  0.197561950684E+02  0.980752110481E+00
  0.292438049316E+02  0.292438049316E+02  0.000000000000E+00
  0.303791980743E+02  0.292438049316E+02 -0.658130764961E+00
  0.303791980743E+02  0.292438049316E+02  0.658130764961E+00
  0.303820724487E+02  0.113820018768E+02  0.000000000000E+00
  0.334741249084E+02  0.292438049316E+02 -0.108748245239E+01
  0.334741249084E+02  0.292438049316E+02  0.108748245239E+01
  0.342964897156E+02  0.197561950684E+02 -0.479616105556E+00
  0.342964897156E+02  0.197561950684E+02  0.479616105556E+00
  0.374068183899E+02  0.197561950684E+02 -0.144199773669E+00
  0.374068183899E+02  0.197561950684E+02  0.144199773669E+00
  0.376179962158E+02  0.376179962158E+02  0.000000000000E+00
  0.386389808655E+02  0.292438049316E+02 -0.980755090714E+00
  0.386389808655E+02  0.292438049316E+02  0.980755090714E+00
  0.387533912659E+02  0.376179962158E+02 -0.658132553101E+00
  0.387533912659E+02  0.376179962158E+02  0.658132553101E+00
  0.387563171387E+02  0.197561950684E+02  0.000000000000E+00
  0.418483314514E+02  0.376179962158E+02 -0.108748543262E+01
  0.418483314514E+02  0.376179962158E+02  0.108748543262E+01
  0.435296669006E+02  0.435296669006E+02  0.000000000000E+00
  0.437841453552E+02  0.292438049316E+02 -0.479617565870E+00
  0.437841453552E+02  0.292438049316E+02  0.479617565870E+00
  0.446650657654E+02  0.435296669006E+02 -0.658133804798E+00
  0.446650657654E+02  0.435296669006E+02  0.658133804798E+00
  0.468944816589E+02  0.292438049316E+02 -0.144200220704E+00
  0.468944816589E+02  0.292438049316E+02  0.144200220704E+00
  0.470131988525E+02  0.376179962158E+02 -0.980757772923E+00
  0.470131988525E+02  0.376179962158E+02  0.980757772923E+00
  0.470762481689E+02  0.470762481689E+02  0.000000000000E+00
  0.477600097656E+02  0.435296669006E+02 -0.108748745918E+01
  0.477600097656E+02  0.435296669006E+02  0.108748745918E+01
  0.482116432190E+02  0.470762481689E+02 -0.658134579659E+00
  0.482116432190E+02  0.470762481689E+02  0.658134579659E+00
  0.482439842224E+02  0.292438049316E+02  0.000000000000E+00
  0.490000000000E+02  0.490000000000E+02  0.000000000000E+00
  0.501353988647E+02  0.490000000000E+02 -0.658134996891E+00
  0.501353988647E+02  0.490000000000E+02  0.658134996891E+00
  0.506007728577E+02  0.494653701782E+02 -0.465371757746E+00
  0.506007728577E+02  0.494653701782E+02  0.465371757746E+00
  0.507935333252E+02  0.496581344604E+02 -0.771266485397E-15
  0.513065910339E+02  0.470762481689E+02 -0.108748877048E+01
  0.513065910339E+02  0.470762481689E+02  0.108748877048E+01
  0.521583786011E+02  0.376179962158E+02 -0.479618877172E+00
  0.521583786011E+02  0.376179962158E+02  0.479618877172E+00
  0.529248886108E+02  0.435296669006E+02 -0.980759620667E+00
  0.529248886108E+02  0.435296669006E+02  0.980759620667E+00
  0.532303466797E+02  0.490000000000E+02 -0.108748936653E+01
  0.532303466797E+02  0.490000000000E+02  0.108748936653E+01
  0.539993209839E+02  0.497689704895E+02 -0.768971264362E+00
  0.539993209839E+02  0.497689704895E+02  0.768971264362E+00
  0.543178405762E+02  0.500874900818E+02 -0.157378642191E-15
  0.552687225342E+02  0.376179962158E+02 -0.144200608134E+00
  0.552687225342E+02  0.376179962158E+02  0.144200608134E+00
  0.564714775085E+02  0.470762481689E+02 -0.980760753155E+00
  0.564714775085E+02  0.470762481689E+02  0.980760753155E+00
  0.566182289124E+02  0.376179962158E+02  0.000000000000E+00
  0.580700759888E+02  0.435296669006E+02 -0.479619771242E+00
  0.580700759888E+02  0.435296669006E+02  0.479619771242E+00
  0.583952369690E+02  0.490000000000E+02 -0.980761349201E+00
  0.583952369690E+02  0.490000000000E+02  0.980761349201E+00
  0.590887413025E+02  0.496935043335E+02 -0.693503141403E+00
  0.590887413025E+02  0.496935043335E+02  0.693503141403E+00
  0.593759994507E+02  0.499807624817E+02  0.000000000000E+00
  0.611804275513E+02  0.435296669006E+02 -0.144200876355E+00
  0.611804275513E+02  0.435296669006E+02  0.144200876355E+00
  0.616166725159E+02  0.470762481689E+02 -0.479620337486E+00
  0.616166725159E+02  0.470762481689E+02  0.479620337486E+00
  0.625299339294E+02  0.435296669006E+02  0.000000000000E+00
  0.635404319763E+02  0.490000000000E+02 -0.479620635509E+00
  0.635404319763E+02  0.490000000000E+02  0.479620635509E+00
  0.638795776367E+02  0.493391418457E+02 -0.339143037796E+00
  0.638795776367E+02  0.493391418457E+02  0.339143037796E+00
  0.640200576782E+02  0.494796218872E+02  0.296956834055E-15
  0.647270278931E+02  0.470762481689E+02 -0.144201040268E+00
  0.647270278931E+02  0.470762481689E+02  0.144201040268E+00
  0.660765380859E+02  0.470762481689E+02  0.000000000000E+00
  0.666507873535E+02  0.490000000000E+02 -0.144201144576E+00
  0.666507873535E+02  0.490000000000E+02  0.144201144576E+00
  0.667527542114E+02  0.491019668579E+02 -0.101965606213E+00
  0.667527542114E+02  0.491019668579E+02  0.101965606213E+00
  0.667949905396E+02  0.491441993713E+02 -0.260488604752E-16
  0.680002975464E+02  0.490000000000E+02  0.000000000000E+00
  0.209237651825E+02  0.192375373840E+01  0.000000000000E+00
  0.190000000000E+02  0.000000000000E+00  0.000000000000E+00
  0.244703655243E+02  0.547033166885E+01  0.000000000000E+00
  0.303820724487E+02  0.113820018768E+02  0.000000000000E+00
  0.387563171387E+02  0.197561950684E+02  0.000000000000E+00
  0.482439842224E+02  0.292438049316E+02  0.000000000000E+00
  0.566182289124E+02  0.376179962158E+02  0.000000000000E+00
  0.625299339294E+02  0.435296669006E+02  0.000000000000E+00
  0.660765380859E+02  0.470762481689E+02  0.000000000000E+00
POLYGONS                 256                1024
3                  32                  33                  42
3                  32                  30                  33
3                  30                  28                  33
3                  30                  22                  28
3                  22                  17                  28
3                  22                  13                  17
3                  13                   6                  17
3                  17                   6                   9
3                   6                   1                   9
3                   9                   1                   4
3                   1                   0                   4
3                   4                   0                   3
3                   0                   5                   3
3                   0                   2                   5
3                   2                  10                   5
3                   2                   7                  10
[...]
CELL_DATA                 256
SCALARS sigma float 1
LOOKUP_TABLE default
  0.416558675790E-01
  0.416557841945E-01
  0.406839061478E-01
  0.406839718358E-01
  0.509980115866E-01
  0.509979976318E-01
  0.127317884882E+00
  0.127317898248E+00
  0.279681352004E+00
  0.279681337772E+00
  0.557666551474E+00
  0.557666552086E+00
  0.329046030004E+00
  0.329046028916E+00
 -0.104073573095E-01
 -0.104073406952E-01
 -0.168174771599E+00
 -0.168174784583E+00
 -0.241855645221E+00
 -0.241855630996E+00
 -0.251555799900E+00
 -0.251555864797E+00
 -0.250644415904E+00
 -0.250644335881E+00
  0.416558965706E-01
  0.416558674558E-01
  0.406839180866E-01
  0.406839058149E-01
  0.509980042761E-01
  0.509980116707E-01
  0.127317898122E+00
  0.127317888326E+00
  0.279681338441E+00
  0.279681375533E+00
  0.557666545875E+00
  0.557666514132E+00
  0.329045976142E+00
  0.329046026339E+00
 -0.104073154585E-01
 -0.104073573344E-01
 -0.168174781023E+00
 -0.168174771433E+00
 -0.241855631395E+00
 -0.241855638674E+00
 -0.251555862738E+00
 -0.251555850898E+00
 -0.250644335140E+00
 -0.250644307487E+00
  0.416558386388E-01
  0.416558965626E-01
  0.406839757396E-01
  0.406839181621E-01
  0.509980052664E-01
  0.509980043071E-01
  0.127317888387E+00
  0.127317888106E+00
  0.279681374954E+00
  0.279681315255E+00
  0.557666511820E+00
  0.557666490585E+00
  0.329045942726E+00
  0.329045974778E+00
 -0.104073817983E-01
 -0.104073154370E-01
 -0.168174781380E+00
 -0.168174781104E+00
 -0.241855638821E+00
 -0.241855637892E+00
 -0.251555851365E+00
 -0.251555796443E+00
 -0.250644307438E+00
 -0.250644362183E+00
  0.416558534261E-01
  0.416558386777E-01
  0.406840089961E-01
  0.406839758898E-01
  0.509979917295E-01
  0.509980052440E-01
  0.127317888088E+00
  0.127317891420E+00
  0.279681316452E+00
  0.279681371539E+00
  0.557666504968E+00
  0.557666698097E+00
  0.329046237214E+00
  0.329045951212E+00
 -0.104073210206E-01
 -0.104073818428E-01
 -0.168174778076E+00
 -0.168174781355E+00
 -0.241855637786E+00
 -0.241855650769E+00
 -0.251555797372E+00
 -0.251555765952E+00
 -0.250644362417E+00
 -0.250644348509E+00
  0.416558246630E-01
  0.416558534631E-01
  0.406839486062E-01
  0.406840089365E-01
  0.509980208575E-01
  0.509979916926E-01
  0.127317891428E+00
  0.127317883274E+00
  0.279681370858E+00
  0.279681443059E+00
  0.557666671805E+00
  0.557666268308E+00
  0.329045627285E+00
  0.329046221700E+00
 -0.104072414277E-01
 -0.104073209952E-01
 -0.168174786114E+00
 -0.168174778087E+00
 -0.241855650594E+00
 -0.241855622635E+00
 -0.251555765583E+00
 -0.251555822759E+00
 -0.250644348732E+00
 -0.250644375875E+00
  0.416558392607E-01
  0.416558245124E-01
  0.406839164092E-01
  0.406839484226E-01
  0.509980429316E-01
  0.509980208234E-01
  0.127317883260E+00
  0.127317871398E+00
  0.279681442057E+00
  0.279681253939E+00
  0.557666284066E+00
  0.557666495655E+00
  0.329045949920E+00
  0.329045636582E+00
 -0.104074490933E-01
 -0.104072413904E-01
 -0.168174797767E+00
 -0.168174786096E+00
 -0.241855622473E+00
 -0.241855601234E+00
 -0.251555821624E+00
 -0.251555852007E+00
 -0.250644374969E+00
 -0.250644361060E+00
  0.416556434230E-01
  0.416558393283E-01
  0.406839789032E-01
  0.406839166087E-01
  0.509980026952E-01
  0.509980430185E-01
  0.127317871436E+00
  0.127317882558E+00
  0.279681253261E+00
  0.279681322811E+00
  0.557666464276E+00
  0.557666176047E+00
  0.329045496353E+00
  0.329045931405E+00
 -0.104073717554E-01
 -0.104074490681E-01
 -0.168174786890E+00
 -0.168174797816E+00
 -0.241855601646E+00
 -0.241855640675E+00
 -0.251555853240E+00
 -0.251555793819E+00
 -0.250644361467E+00
 -0.250644546619E+00
  0.416558212935E-01
  0.416556434217E-01
  0.406839819662E-01
  0.406839791092E-01
  0.509980367689E-01
  0.509980029991E-01
  0.127317882573E+00
  0.127317878486E+00
  0.279681332059E+00
  0.279681334077E+00
  0.557666338824E+00
  0.557667170701E+00
  0.329046907904E+00
  0.329045592398E+00
 -0.104073698213E-01
 -0.104073720996E-01
 -0.168174790910E+00
 -0.168174786910E+00
 -0.241855642117E+00
 -0.241855608875E+00
 -0.251555795093E+00
 -0.251555792336E+00
 -0.250644546610E+00
 -0.250644377669E+00
  0.416557461993E-01
  0.416558222143E-01
  0.406839211583E-01
  0.406839821531E-01
  0.509979796347E-01
  0.509980361966E-01
  0.127317878428E+00
  0.127317893704E+00
  0.279681321638E+00
  0.279681369917E+00
  0.557666990416E+00
  0.557666573152E+00
  0.329046059899E+00
  0.329046801528E+00
 -0.104073129992E-01
 -0.104073693585E-01
 -0.168174775995E+00
 -0.168174790834E+00
 -0.241855606161E+00
 -0.241855663817E+00
 -0.251555793492E+00
 -0.251555853752E+00
 -0.250644383210E+00
 -0.250644456161E+00
  0.400611139816E-01
  0.391420659242E-01
  0.391414832923E-01
  0.488651672798E-01
  0.488653367147E-01
  0.118502099363E+00
  0.118502179099E+00
  0.247604497094E+00
  0.247604622930E+00
  0.473036414806E+00
  0.279110809172E+00
 -0.921333783503E-02
 -0.921369021475E-02
 -0.156529766140E+00
 -0.156529953768E+00
 -0.231741699052E+00
 -0.231741780079E+00
 -0.242018688621E+00
 -0.242018480533E+00
 -0.241049484003E+00
 -0.448946519006E-01
 -0.459168404322E-01
 -0.459102134533E-01
 -0.351788832142E-01
 -0.351805933679E-01
  0.383512962820E-01
  0.383512787652E-01
  0.162694825392E+00
  0.162694784940E+00
  0.366159010477E+00
  0.295495463864E+00
  0.622960719233E-01
  0.622964797783E-01
 -0.767837841930E-01
 -0.767832613922E-01
 -0.157891101208E+00
 -0.157891165899E+00
 -0.169657965523E+00
 -0.169656645665E+00
 -0.168536594000E+00
SCALARS inclination float 1
LOOKUP_TABLE default
  0.100000000000E+01
  0.100000000000E+01
  0.100000000000E+01
  0.100000000000E+01
  0.100000000000E+01
  0.100000000000E+01
  0.100000000000E+01
  0.100000000000E+01
  0.100000000000E+01
  0.100000000000E+01
  0.100000000000E+01
  0.100000000000E+01
  0.100000000000E+01
  0.100000000000E+01
  0.100000000000E+01
  0.100000000000E+01
  0.100000000000E+01
  0.100000000000E+01
  0.100000000000E+01
  0.100000000000E+01
  0.100000000000E+01
  0.100000000000E+01
  0.100000000000E+01
  0.100000000000E+01
  0.100000000000E+01
  0.100000000000E+01
  0.100000000000E+01
  0.100000000000E+01
  0.100000000000E+01
  0.100000000000E+01
  0.100000000000E+01
  0.100000000000E+01
  0.100000000000E+01
  0.100000000000E+01
  0.100000000000E+01
  0.100000000000E+01
  0.100000000000E+01
  0.100000000000E+01
  0.100000000000E+01
  0.100000000000E+01
  0.100000000000E+01
  0.100000000000E+01
  0.100000000000E+01
  0.100000000000E+01
  0.100000000000E+01
  0.100000000000E+01
  0.100000000000E+01
  0.100000000000E+01
  0.100000000000E+01
  0.100000000000E+01
  0.100000000000E+01
  0.100000000000E+01
  0.100000000000E+01
  0.100000000000E+01
  0.100000000000E+01
  0.100000000000E+01
  0.100000000000E+01
  0.100000000000E+01
  0.100000000000E+01
  0.100000000000E+01
  0.100000000000E+01
  0.100000000000E+01
  0.100000000000E+01
  0.100000000000E+01
  0.100000000000E+01
  0.100000000000E+01
  0.100000000000E+01
  0.100000000000E+01
  0.100000000000E+01
  0.100000000000E+01
  0.100000000000E+01
  0.100000000000E+01
  0.100000000000E+01
  0.100000000000E+01
  0.100000000000E+01
  0.100000000000E+01
  0.100000000000E+01
  0.100000000000E+01
  0.100000000000E+01
  0.100000000000E+01
  0.100000000000E+01
  0.100000000000E+01
  0.100000000000E+01
  0.100000000000E+01
  0.100000000000E+01
  0.100000000000E+01
  0.100000000000E+01
  0.100000000000E+01
  0.100000000000E+01
  0.100000000000E+01
  0.100000000000E+01
  0.100000000000E+01
  0.100000000000E+01
  0.100000000000E+01
  0.100000000000E+01
  0.100000000000E+01
  0.100000000000E+01
  0.100000000000E+01
  0.100000000000E+01
  0.100000000000E+01
  0.100000000000E+01
  0.100000000000E+01
  0.100000000000E+01
  0.100000000000E+01
  0.100000000000E+01
  0.100000000000E+01
  0.100000000000E+01
  0.100000000000E+01
  0.100000000000E+01
  0.100000000000E+01
  0.100000000000E+01
  0.100000000000E+01
  0.100000000000E+01
  0.100000000000E+01
  0.100000000000E+01
  0.100000000000E+01
  0.100000000000E+01
  0.100000000000E+01
  0.100000000000E+01
  0.100000000000E+01
  0.100000000000E+01
  0.100000000000E+01
  0.100000000000E+01
  0.100000000000E+01
  0.100000000000E+01
  0.100000000000E+01
  0.100000000000E+01
  0.100000000000E+01
  0.100000000000E+01
  0.100000000000E+01
  0.100000000000E+01
  0.100000000000E+01
  0.100000000000E+01
  0.100000000000E+01
  0.100000000000E+01
  0.100000000000E+01
  0.100000000000E+01
  0.100000000000E+01
  0.100000000000E+01
  0.100000000000E+01
  0.100000000000E+01
  0.100000000000E+01
  0.100000000000E+01
  0.100000000000E+01
  0.100000000000E+01
  0.100000000000E+01
  0.100000000000E+01
  0.100000000000E+01
  0.100000000000E+01
  0.100000000000E+01
  0.100000000000E+01
  0.100000000000E+01
  0.100000000000E+01
  0.100000000000E+01
  0.100000000000E+01
  0.100000000000E+01
  0.100000000000E+01
  0.100000000000E+01
  0.100000000000E+01
  0.100000000000E+01
  0.100000000000E+01
  0.100000000000E+01
  0.100000000000E+01
  0.100000000000E+01
  0.100000000000E+01
  0.100000000000E+01
  0.100000000000E+01
  0.100000000000E+01
  0.100000000000E+01
  0.100000000000E+01
  0.100000000000E+01
  0.100000000000E+01
  0.100000000000E+01
  0.100000000000E+01
  0.100000000000E+01
  0.100000000000E+01
  0.100000000000E+01
  0.100000000000E+01
  0.100000000000E+01
  0.100000000000E+01
  0.100000000000E+01
  0.100000000000E+01
  0.100000000000E+01
  0.100000000000E+01
  0.100000000000E+01
  0.100000000000E+01
  0.100000000000E+01
  0.100000000000E+01
  0.100000000000E+01
  0.100000000000E+01
  0.100000000000E+01
  0.100000000000E+01
  0.100000000000E+01
  0.100000000000E+01
  0.100000000000E+01
  0.100000000000E+01
  0.100000000000E+01
  0.100000000000E+01
  0.100000000000E+01
  0.100000000000E+01
  0.100000000000E+01
  0.100000000000E+01
  0.100000000000E+01
  0.100000000000E+01
  0.100000000000E+01
  0.100000000000E+01
  0.100000000000E+01
  0.100000000000E+01
  0.100000000000E+01
  0.100000000000E+01
  0.100000000000E+01
  0.100000000000E+01
  0.100000000000E+01
  0.100000000000E+01
  0.100000000000E+01
  0.100000000000E+01
  0.100000000000E+01
  0.100000000000E+01
  0.100000000000E+01
  0.100000000000E+01
  0.100000000000E+01
  0.100000000000E+01
  0.100000000000E+01
  0.100000000000E+01
  0.100000000000E+01
  0.100000000000E+01
  0.100000000000E+01
  0.100000000000E+01
  0.100000000000E+01
  0.100000000000E+01
  0.100000000000E+01
  0.100000000000E+01
  0.100000000000E+01
  0.100000000000E+01
  0.100000000000E+01
  0.100000000000E+01
  0.100000000000E+01
  0.100000000000E+01
  0.100000000000E+01
  0.100000000000E+01
  0.100000000000E+01
  0.100000000000E+01
  0.100000000000E+01
  0.100000000000E+01
  0.100000000000E+01
  0.100000000000E+01
  0.100000000000E+01
  0.100000000000E+01
  0.100000000000E+01
  0.100000000000E+01
  0.100000000000E+01
  0.100000000000E+01
  0.100000000000E+01
  0.100000000000E+01
  0.100000000000E+01
  0.100000000000E+01
VECTORS v float
  0.150765420746E+03  0.324864053632E+01  0.157628013467E+02
  0.152589694169E+03  0.272288658324E+01  0.160139250965E+02
  0.155794705842E+03 -0.482140938681E+00  0.168528357999E+02
  0.157357649334E+03  0.492912497577E+00  0.169162224978E+02
  0.160268546559E+03 -0.241799932432E+01  0.158456253075E+02
  0.161369364532E+03 -0.593035598188E+00  0.157750948430E+02
  0.158665739309E+03  0.211059378105E+01  0.323507808197E+01
  0.160493080216E+03 -0.463254028229E+01  0.341217978701E+01
  0.139270806057E+03  0.165897538481E+02 -0.170192343681E+02
  0.145901154330E+03 -0.147188697940E+01 -0.204446865223E+02
  0.821881589078E+02  0.622411340579E+02 -0.115623102405E+02
  0.826160993439E+02  0.612864512653E+02 -0.123637489515E+02
  0.167488039940E+03 -0.235854893305E+02  0.110755936454E+03
  0.144482047746E+03  0.277380675190E+02  0.676707488489E+02
  0.204756088348E+03 -0.325359879556E+02  0.329189201516E+02
  0.195034955040E+03 -0.605478226510E+01  0.278966698124E+02
  0.197222985542E+03 -0.824280552010E+01 -0.424577575761E+01
  0.197853712121E+03 -0.105702717581E+02 -0.430690819837E+01
  0.187559453640E+03 -0.275978324408E+00 -0.182951210389E+02
  0.182969362747E+03 -0.788554472209E+01 -0.185892192822E+02
  0.173837427207E+03  0.124643609193E+01 -0.186121341835E+02
  0.167724156348E+03 -0.256737657563E+01 -0.183641754171E+02
  0.160986294240E+03  0.417051885947E+01 -0.167564519939E+02
  0.153774396033E+03  0.624898418526E+01 -0.157637217673E+02
  0.151096766939E+03  0.655748726535E+01  0.154446359532E+02
  0.150804793230E+03  0.673631989521E+01  0.153943324954E+02
  0.155622396038E+03  0.191868928966E+01  0.165753458759E+02
  0.155822048901E+03  0.189639254710E+01  0.165992827922E+02
  0.159630412185E+03 -0.191198878876E+01  0.157341867547E+02
  0.160276081986E+03 -0.161615506599E+01  0.157682593116E+02
  0.160494274568E+03 -0.183435228746E+01  0.335438147975E+01
  0.160871391531E+03 -0.276146939978E+01  0.338133435124E+01
  0.146154684094E+03  0.119552496903E+02 -0.186171480139E+02
  0.145914412077E+03  0.124169831588E+02 -0.185197659360E+02
  0.855156567728E+02  0.728157650748E+02 -0.736150086439E+01
  0.801353385121E+02  0.814230711213E+02  0.746435191131E+00
  0.183733187672E+03 -0.221747780388E+02  0.119354709700E+03
  0.172401824387E+03 -0.404713399440E+01  0.102278791423E+03
  0.211323169073E+03 -0.429684808668E+02  0.352772377606E+02
  0.204795947394E+03 -0.304250255359E+02  0.326316010582E+02
  0.196965289442E+03 -0.225943433130E+02 -0.453702118779E+01
  0.197216596131E+03 -0.232121640804E+02 -0.455497871322E+01
  0.182959313999E+03 -0.895483334586E+01 -0.186923894754E+02
  0.178885877669E+03 -0.108212059001E+02 -0.184774245528E+02
  0.167757205449E+03  0.307518625389E+00 -0.180577101237E+02
  0.164136096922E+03  0.711918255648E+00 -0.176235985448E+02
  0.153828254108E+03  0.110198205530E+02 -0.152596889730E+02
  0.152388259686E+03  0.119018098471E+02 -0.150115701385E+02
  0.151184207079E+03  0.788657240453E+01  0.153119684885E+02
  0.151112392913E+03  0.794166256016E+01  0.152983996543E+02
  0.155812610510E+03  0.324141734233E+01  0.164532062020E+02
  0.155638532169E+03  0.332234872358E+01  0.164257150283E+02
  0.159487572033E+03 -0.526708967901E+00  0.155853472849E+02
  0.159643254333E+03 -0.545456003970E+00  0.156023368211E+02
  0.160871813007E+03 -0.177402217069E+01  0.336093787357E+01
  0.160058982993E+03 -0.250177225092E+00  0.331265195714E+01
  0.145941791727E+03  0.138670282603E+02 -0.183224031153E+02
  0.143694530637E+03  0.173485094814E+02 -0.175276614994E+02
  0.800317786546E+02  0.810112911524E+02  0.567776136670E+00
  0.746795637756E+02  0.882007665037E+02  0.783757465374E+01
  0.191273901366E+03 -0.283935710869E+02  0.127330404623E+03
  0.184468298758E+03 -0.192518034417E+02  0.118086513173E+03
  0.214646520120E+03 -0.494300189069E+02  0.366346509995E+02
  0.211299082209E+03 -0.442441341617E+02  0.354508649393E+02
  0.196270580337E+03 -0.292155955079E+02 -0.465949015917E+01
  0.196961910086E+03 -0.305116590460E+02 -0.470055835755E+01
  0.178870847768E+03 -0.124205383821E+02 -0.186317360861E+02
  0.176988116647E+03 -0.121938224957E+02 -0.184262762150E+02
  0.164135487045E+03  0.658866073963E+00 -0.176292539494E+02
  0.162959893257E+03  0.120541159364E+01 -0.174435292671E+02
  0.152386867635E+03  0.117784993558E+02 -0.150245977070E+02
  0.151745369440E+03  0.122706081558E+02 -0.149034749781E+02
  0.151385769442E+03  0.909546227214E+01  0.152043283047E+02
  0.151199610065E+03  0.925099459419E+01  0.151678191134E+02
  0.156097069274E+03  0.435350755369E+01  0.163639490383E+02
  0.155827322305E+03  0.452117793280E+01  0.163167831970E+02
  0.159600001877E+03  0.748481042862E+00  0.154720961731E+02
  0.159499910923E+03  0.786272251392E+00  0.154586642829E+02
  0.160059186664E+03  0.226990960235E+00  0.330279571258E+01
  0.159595939020E+03  0.976269603938E+00  0.327773907770E+01
  0.143685805327E+03  0.168864139887E+02 -0.175905568433E+02
  0.141884705990E+03  0.193837336407E+02 -0.169942559281E+02
  0.743556479425E+02  0.869128120786E+02  0.727876254155E+01
  0.709083117460E+02  0.911789303463E+02  0.117498894245E+02
  0.194570714050E+03 -0.324834719577E+02  0.131612242901E+03
  0.191271974826E+03 -0.284012351093E+02  0.127333728245E+03
  0.215980111096E+03 -0.531093584294E+02  0.373300976785E+02
  0.214612843561E+03 -0.512135683413E+02  0.368774044276E+02
  0.196117150064E+03 -0.327178389744E+02 -0.472869123034E+01
  0.196268980641E+03 -0.329634169370E+02 -0.473690426569E+01
  0.176974256955E+03 -0.136686316908E+02 -0.185685732487E+02
  0.176387712024E+03 -0.134471697936E+02 -0.184898759584E+02
  0.162945974398E+03 -0.537107946316E-02 -0.175725993457E+02
  0.162321145563E+03  0.383011785799E+00 -0.174633293537E+02
  0.151730726246E+03  0.109734912931E+02 -0.150405138106E+02
  0.151144529981E+03  0.114632460360E+02 -0.149255413413E+02
  0.152215648930E+03  0.102879117389E+02  0.151655896279E+02
  0.151407033630E+03  0.109790799556E+02  0.150053266406E+02
  0.157084099488E+03  0.530198220552E+01  0.163681155554E+02
  0.156115387353E+03  0.594697299747E+01  0.161940847774E+02
  0.160378930457E+03  0.168340920929E+01  0.154568965633E+02
  0.159612032861E+03  0.202869760463E+01  0.153485744454E+02
  0.159596394903E+03  0.204433181120E+01  0.325567750938E+01
  0.160016220118E+03  0.139571358588E+01  0.327775751439E+01
  0.141887365608E+03  0.195245864822E+02 -0.169750843977E+02
  0.141665773830E+03  0.198217193532E+02 -0.169031325030E+02
  0.707878030792E+02  0.906997389275E+02  0.115419908534E+02
  0.698489804042E+02  0.918342765271E+02  0.127437794109E+02
  0.195349184434E+03 -0.336659275026E+02  0.132748635814E+03
  0.194524091653E+03 -0.326688456534E+02  0.131692674707E+03
  0.216021651495E+03 -0.541663983378E+02  0.374825252923E+02
  0.215961670699E+03 -0.540859687777E+02  0.374630230069E+02
  0.195528913951E+03 -0.336531684297E+02 -0.473586589896E+01
  0.196116363447E+03 -0.345607614435E+02 -0.476675798418E+01
  0.176374818646E+03 -0.148191527585E+02 -0.186222518646E+02
  0.175381644443E+03 -0.143719860626E+02 -0.184819573882E+02
  0.162301888137E+03 -0.129216677798E+01 -0.176419042082E+02
  0.160993845393E+03 -0.421241076209E+00 -0.174069346025E+02
  0.151121811968E+03  0.945084781111E+01 -0.151381486740E+02
  0.149762527638E+03  0.106127034712E+02 -0.148687573249E+02
  0.153929550661E+03  0.123565150498E+02  0.151276843125E+02
  0.152254797328E+03  0.137557354006E+02  0.147992180467E+02
  0.159305346622E+03  0.670514443017E+01  0.164563413216E+02
  0.157115874910E+03  0.806607921942E+01  0.160734610027E+02
  0.162507606157E+03  0.267432087550E+01  0.155677101936E+02
  0.160395736049E+03  0.347169224772E+01  0.152843540353E+02
  0.160017267755E+03  0.385015788659E+01  0.322705920083E+01
  0.161934844968E+03  0.748570131502E+00  0.333077909481E+01
  0.141687937296E+03  0.209955075514E+02 -0.167433699884E+02
  0.143355182935E+03  0.186837795306E+02 -0.172953379895E+02
  0.699204632208E+02  0.921185224117E+02  0.128671000397E+02
  0.714214651286E+02  0.902610151511E+02  0.109203586491E+02
  0.193781245723E+03 -0.320987654433E+02  0.130931510077E+03
  0.195277611109E+03 -0.339505250919E+02  0.132872112587E+03
  0.214340086301E+03 -0.530129841732E+02  0.370891758568E+02
  0.215999972677E+03 -0.553145126219E+02  0.376387942851E+02
  0.193497331344E+03 -0.328118152271E+02 -0.467650191142E+01
  0.195527871218E+03 -0.360961145226E+02 -0.478632687950E+01
  0.175366954620E+03 -0.159351292025E+02 -0.186327773778E+02
  0.172673135950E+03 -0.149180340704E+02 -0.182713308126E+02
  0.160961824832E+03 -0.320666435749E+01 -0.177038623411E+02
  0.157638396654E+03 -0.114088286380E+01 -0.171226959689E+02
  0.149719241206E+03  0.677831939529E+01 -0.152738548401E+02
  0.146317463123E+03  0.962043162978E+01 -0.146066639940E+02
  0.156450938680E+03  0.169248341575E+02  0.149089865000E+02
  0.154002327599E+03  0.188032157558E+02  0.144465988185E+02
  0.162154351411E+03  0.106511446862E+02  0.163380296084E+02
  0.159365613110E+03  0.119476437804E+02  0.158974883290E+02
  0.165435946313E+03  0.587728310381E+01  0.155409668692E+02