# vtk DataFile Version 3.0
MachLine results file. Generated by MachLine, USU AeroLab (c) 2022.
ASCII
DATASET POLYDATA
POINTS                 144 float
  0.312930634121E-04  0.000000000000E+00 -0.193753118501E-20
  0.113539063053E+01  0.000000000000E+00 -0.658087935210E+00
  0.113539063053E+01  0.000000000000E+00  0.658087935210E+00
  0.192378249374E+01  0.192372498306E+01  0.474775100986E-20
  0.305914835645E+01  0.192374081896E+01 -0.658086193634E+00
  0.305914835645E+01  0.192374081896E+01  0.658086193634E+00
  0.423028253315E+01  0.000000000000E+00 -0.108742011765E+01
  0.423028253315E+01  0.000000000000E+00  0.108742011765E+01
  0.547037632114E+01  0.547028701656E+01  0.737247204953E-20
  0.615404028205E+01  0.192375045511E+01 -0.108741647537E+01
  0.615404028205E+01  0.192375045511E+01  0.108741647537E+01
  0.660573385881E+01  0.547031260802E+01 -0.658068469811E+00
  0.660573385881E+01  0.547031260802E+01  0.658068469811E+00
  0.939508564654E+01  0.000000000000E+00 -0.980702541365E+00
  0.939508564654E+01  0.000000000000E+00  0.980702541365E+00
  0.970062414602E+01  0.547032722042E+01 -0.108739780002E+01
  0.970062414602E+01  0.547032722042E+01  0.108739780002E+01
  0.113188445158E+02  0.192375687882E+01 -0.980693094219E+00
  0.113188445158E+02  0.192375687882E+01  0.980693094219E+00
  0.113820643673E+02  0.113819393863E+02 -0.257942736414E-20
  0.125174139439E+02  0.113819753230E+02 -0.658047284009E+00
  0.125174139439E+02  0.113819753230E+02  0.658047284009E+00
  0.145401991734E+02  0.000000000000E+00 -0.479574165270E+00
  0.145401991734E+02  0.000000000000E+00  0.479574165270E+00
  0.148654325708E+02  0.547033565208E+01 -0.980679907908E+00
  0.148654325708E+02  0.547033565208E+01  0.980679907908E+00
  0.156123048447E+02  0.113819959977E+02 -0.108737528443E+01
  0.156123048447E+02  0.113819959977E+02  0.108737528443E+01
  0.164639622288E+02  0.192375787923E+01 -0.479572980793E+00
  0.164639622288E+02  0.192375787923E+01  0.479572980793E+00
  0.176505079470E+02  0.000000000000E+00 -0.144172424756E+00
  0.176505079470E+02  0.000000000000E+00  0.144172424756E+00
  0.189999778925E+02  0.000000000000E+00 -0.165542730925E-05
  0.195742705951E+02  0.192375720641E+01 -0.144166632792E+00
  0.195742705951E+02  0.192375720641E+01  0.144166632792E+00
  0.197562681851E+02  0.197561219516E+02 -0.603609708767E-20
  0.200105551723E+02  0.547033748596E+01 -0.479557181615E+00
  0.200105551723E+02  0.547033748596E+01  0.479557181615E+00
  0.207771191273E+02  0.113820071544E+02 -0.980659764437E+00
  0.207771191273E+02  0.113820071544E+02  0.980659764437E+00
  0.208916146114E+02  0.197561629460E+02 -0.658032293233E+00
  0.208916146114E+02  0.197561629460E+02  0.658032293233E+00
  0.209237410836E+02  0.192377783745E+01 -0.254601661134E-05
  0.231208669354E+02  0.547033723104E+01 -0.144147288307E+00
  0.231208669354E+02  0.547033723104E+01  0.144147288307E+00
  0.239865086400E+02  0.197561881221E+02 -0.108735995859E+01
  0.239865086400E+02  0.197561881221E+02  0.108735995859E+01
  0.244703257500E+02  0.547037144337E+01 -0.420209809024E-05
  0.259222501778E+02  0.113820100762E+02 -0.479534889879E+00
  0.259222501778E+02  0.113820100762E+02  0.479534889879E+00
  0.290325693319E+02  0.113820100595E+02 -0.144123159709E+00
  0.290325693319E+02  0.113820100595E+02  0.144123159709E+00
  0.291513358854E+02  0.197562015750E+02 -0.980641566995E+00
  0.291513358854E+02  0.197562015750E+02  0.980641566995E+00
  0.292438739780E+02  0.292437358852E+02 -0.285003836711E-20
  0.303792302038E+02  0.292437728021E+02 -0.658034298375E+00
  0.303792302038E+02  0.292437728021E+02  0.658034298375E+00
  0.303820150452E+02  0.113820592806E+02 -0.606459828689E-05
  0.334741318570E+02  0.292437979831E+02 -0.108736325854E+01
  0.334741318570E+02  0.292437979831E+02  0.108736325854E+01
  0.342964796805E+02  0.197562051036E+02 -0.479518310694E+00
  0.342964796805E+02  0.197562051036E+02  0.479518310694E+00
  0.374068082499E+02  0.197562052085E+02 -0.144105313513E+00
  0.374068082499E+02  0.197562052085E+02  0.144105313513E+00
  0.376180497188E+02  0.376179427128E+02  0.000000000000E+00
  0.386389740370E+02  0.292438117601E+02 -0.980639078250E+00
  0.386389740370E+02  0.292438117601E+02  0.980639078250E+00
  0.387534178424E+02  0.376179696393E+02 -0.658052759190E+00
  0.387534178424E+02  0.376179696393E+02  0.658052759190E+00
  0.387562492294E+02  0.197562629782E+02 -0.717453034836E-05
  0.418483373371E+02  0.376179903301E+02 -0.108738447037E+01
  0.418483373371E+02  0.376179903301E+02  0.108738447037E+01
  0.435297029672E+02  0.435296308340E+02  0.595490609432E-20
  0.437841353047E+02  0.292438149822E+02 -0.479519620832E+00
  0.437841353047E+02  0.292438149822E+02  0.479519620832E+00
  0.446650848654E+02  0.435296478006E+02 -0.658076458324E+00
  0.446650848654E+02  0.435296478006E+02  0.658076458324E+00
  0.468944715132E+02  0.292438150774E+02 -0.144105707172E+00
  0.468944715132E+02  0.292438150774E+02  0.144105707172E+00
  0.470131928898E+02  0.376180021786E+02 -0.980656468792E+00
  0.470131928898E+02  0.376180021786E+02  0.980656468792E+00
  0.470762711240E+02  0.470762252138E+02  0.284255644459E-20
  0.477600142238E+02  0.435296624425E+02 -0.108741098466E+01
  0.477600142238E+02  0.435296624425E+02  0.108741098466E+01
  0.482116561869E+02  0.470762352010E+02 -0.658095644386E+00
  0.482116561869E+02  0.470762352010E+02  0.658095644386E+00
  0.482439203362E+02  0.292438688182E+02 -0.674948747450E-05
  0.490000098337E+02  0.489999829894E+02  0.352020849666E-20
  0.501354069086E+02  0.489999871344E+02 -0.658111061843E+00
  0.501354069086E+02  0.489999871344E+02  0.658111061843E+00
  0.506007778866E+02  0.494653516704E+02 -0.465360197472E+00
  0.506007778866E+02  0.494653516704E+02  0.465360197472E+00
  0.507935375703E+02  0.496581169850E+02 -0.771258599560E-15
  0.513065943267E+02  0.470762448761E+02 -0.108743228644E+01
  0.513065943267E+02  0.470762448761E+02  0.108743228644E+01
  0.521583703386E+02  0.376180044784E+02 -0.479538356774E+00
  0.521583703386E+02  0.376180044784E+02  0.479538356774E+00
  0.529248840674E+02  0.435296714441E+02 -0.980682430110E+00
  0.529248840674E+02  0.435296714441E+02  0.980682430110E+00
  0.532303491166E+02  0.489999893063E+02 -0.108744779990E+01
  0.532303491166E+02  0.489999893063E+02  0.108744779990E+01
  0.539993229218E+02  0.497689436952E+02 -0.768946532731E+00
  0.539993229218E+02  0.497689436952E+02  0.768946532731E+00
  0.543178430301E+02  0.500874571974E+02 -0.157370130865E-15
  0.552687143289E+02  0.376180044211E+02 -0.144124171041E+00
  0.552687143289E+02  0.376180044211E+02  0.144124171041E+00
  0.564714741318E+02  0.470762515457E+02 -0.980703384050E+00
  0.564714741318E+02  0.470762515457E+02  0.980703384050E+00
  0.566181803863E+02  0.376180447422E+02 -0.512671807591E-05
  0.580700700039E+02  0.435296728856E+02 -0.479561446547E+00
  0.580700700039E+02  0.435296728856E+02  0.479561446547E+00
  0.583952342525E+02  0.489999966035E+02 -0.980715337112E+00
  0.583952342525E+02  0.489999966035E+02  0.980715337112E+00
  0.590887388161E+02  0.496934812578E+02 -0.693469805575E+00
  0.590887388161E+02  0.496934812578E+02  0.693469805575E+00
  0.593759966941E+02  0.499807194883E+02  0.326869302507E-21
  0.611804219244E+02  0.435296725276E+02 -0.144148458102E+00
  0.611804219244E+02  0.435296725276E+02  0.144148458102E+00
  0.616166681578E+02  0.470762525270E+02 -0.479577866536E+00
  0.616166681578E+02  0.470762525270E+02  0.479577866536E+00
  0.625299026009E+02  0.435296982293E+02 -0.330981405380E-05
  0.635404285646E+02  0.489999966685E+02 -0.479587400581E+00
  0.635404285646E+02  0.489999966685E+02  0.479587400581E+00
  0.638795744263E+02  0.493391226712E+02 -0.339121163529E+00
  0.638795744263E+02  0.493391226712E+02  0.339121163529E+00
  0.640200547551E+02  0.494795968058E+02  0.296954520199E-15
  0.647270242582E+02  0.470762518038E+02 -0.144167179154E+00
  0.647270242582E+02  0.470762518038E+02  0.144167179154E+00
  0.660765195290E+02  0.470762667259E+02 -0.196051129310E-05
  0.666507849833E+02  0.489999978860E+02 -0.144179063945E+00
  0.666507849833E+02  0.489999978860E+02  0.144179063945E+00
  0.667527523879E+02  0.491019555434E+02 -0.101954743525E+00
  0.667527523879E+02  0.491019555434E+02  0.101954743525E+00
  0.667949891457E+02  0.491441877800E+02 -0.260467198439E-16
  0.680002814145E+02  0.489999953293E+02  0.164535362579E-20
  0.189999778925E+02  0.000000000000E+00  0.165542730925E-05
  0.209237410836E+02  0.192377783745E+01  0.254601661134E-05
  0.244703257500E+02  0.547037144337E+01  0.420209809024E-05
  0.303820150452E+02  0.113820592806E+02  0.606459828689E-05
  0.387562492294E+02  0.197562629782E+02  0.717453034836E-05
  0.482439203362E+02  0.292438688182E+02  0.674948747450E-05
  0.566181803863E+02  0.376180447422E+02  0.512671807591E-05
  0.625299026009E+02  0.435296982293E+02  0.330981405380E-05
  0.660765195290E+02  0.470762667259E+02  0.196051129310E-05
VERTICES                 144                 288
1                   0
1                   1
1                   2
1                   3
1                   4
1                   5
1                   6
1                   7
1                   8
1                   9
1                  10
1                  11
1                  12
1                  13
1                  14
1                  15
1                  16
1                  17
1                  18
1                  19
1                  20
1                  21
1                  22
1                  23
1                  24
1                  25
1                  26
1                  27
1                  28
1                  29
1                  30
1                  31
1                  32
1                  33
1                  34
1                  35
1                  36
1                  37
1                  38
1                  39
1                  40
1                  41
1                  42
1                  43
1                  44
1                  45
1                  46
1                  47
1                  48
1                  49
1                  50
1                  51
1                  52
1                  53
1                  54
1                  55
1                  56
1                  57
1                  58
1                  59
1                  60
1                  61
1                  62
1                  63
1                  64
1                  65
1                  66
1                  67
1                  68
1                  69
1                  70
1                  71
1                  72
1                  73
1                  74
1                  75
1                  76
1                  77
1                  78
1                  79
1                  80
1                  81
1                  82
1                  83
1                  84
1                  85
1                  86
1                  87
1                  88
1                  89
1                  90
1                  91
1                  92
1                  93
1                  94
1                  95
1                  96
1                  97
1                  98
1                  99
1                 100
1                 101
1                 102
1                 103
1                 104
1                 105
1                 106
1                 107
1                 108
1                 109
1                 110
1                 111
1                 112
1                 113
1                 114
1                 115
1                 116
1                 117
1                 118
1                 119
1                 120
1                 121
1                 122
1                 123
1                 124
1                 125
1                 126
1                 127
1                 128
1                 129
1                 130
1                 131
1                 132
1                 133
1                 134
1                 135
1                 136
1                 137
1                 138
1                 139
1                 140
1                 141
1                 142
1                 143
POINT_DATA                 144
SCALARS phi float 1
LOOKUP_TABLE default
  0.000000000000E+00
  0.666133814775E-15
  0.111022302463E-15
 -0.222044604925E-15
 -0.111022302463E-15
 -0.333066907388E-15
 -0.666133814775E-15
 -0.111022302463E-15
  0.222044604925E-15
 -0.333066907388E-15
  0.166533453694E-15
  0.888178419700E-15
  0.000000000000E+00
  0.555111512313E-16
 -0.638378239159E-15
  0.333066907388E-15
  0.555111512313E-16
 -0.194289029309E-15
  0.971445146547E-16
 -0.122124532709E-14
 -0.444089209850E-15
  0.444089209850E-15
  0.832667268469E-16
  0.832667268469E-15
 -0.381639164715E-15
  0.638378239159E-15
 -0.999200722163E-15
  0.333066907388E-15
  0.943689570931E-15
  0.499600361081E-15
  0.388578058619E-15
 -0.555111512313E-16
 -0.444089209850E-15
  0.499600361081E-15
  0.943689570931E-15
  0.555111512313E-15
  0.277555756156E-15
 -0.555111512313E-15
 -0.150920942410E-15
 -0.888178419700E-15
  0.122124532709E-14
  0.666133814775E-15
 -0.777156117238E-15
  0.222044604925E-15
  0.499600361081E-15
  0.000000000000E+00
 -0.804911692853E-15
 -0.555111512313E-16
 -0.444089209850E-15
 -0.111022302463E-15
  0.555111512313E-15
 -0.166533453694E-15
  0.117961196366E-15
  0.499600361081E-15
  0.111022302463E-15
  0.111022302463E-15
 -0.333066907388E-15
  0.222044604925E-14
 -0.388578058619E-15
 -0.166533453694E-15
 -0.111022302463E-15
 -0.832667268469E-15
  0.277555756156E-15
 -0.111022302463E-15
 -0.555111512313E-15
 -0.353883589099E-15
  0.721644966006E-15
  0.888178419700E-15
  0.333066907388E-15
 -0.149880108324E-14
 -0.499600361081E-15
 -0.346944695195E-15
 -0.555111512313E-15
 -0.222044604925E-15
 -0.555111512313E-16
  0.000000000000E+00
  0.333066907388E-15
  0.277555756156E-15
  0.166533453694E-15
  0.388578058619E-15
  0.333066907388E-15
 -0.166533453694E-15
 -0.943689570931E-15
 -0.346944695195E-16
 -0.388578058619E-15
  0.277555756156E-15
  0.721644966006E-15
  0.555111512313E-16
  0.111022302463E-15
 -0.277555756156E-16
 -0.388578058619E-15
 -0.277555756156E-16
 -0.249800180541E-15
  0.194289029309E-15
 -0.346944695195E-15
  0.166533453694E-15
 -0.333066907388E-15
 -0.277555756156E-15
 -0.721644966006E-15
 -0.138777878078E-16
  0.333066907388E-15
 -0.659194920871E-16
 -0.277555756156E-16
  0.000000000000E+00
  0.111022302463E-15
  0.111022302463E-15
  0.388578058619E-15
  0.116573417586E-14
 -0.832667268469E-15
  0.444089209850E-15
 -0.222044604925E-15
 -0.277555756156E-16
  0.277555756156E-15
 -0.194289029309E-15
  0.832667268469E-15
 -0.277555756156E-15
 -0.111022302463E-15
  0.388578058619E-15
  0.555111512313E-16
  0.122124532709E-14
 -0.888178419700E-15
  0.000000000000E+00
 -0.555111512313E-16
  0.111022302463E-15
 -0.222044604925E-15
  0.000000000000E+00
 -0.388578058619E-15
 -0.499600361081E-15
 -0.555111512313E-16
  0.222044604925E-15
 -0.166533453694E-15
 -0.444089209850E-15
 -0.166533453694E-15
 -0.555111512313E-16
 -0.111022302463E-15
 -0.444089209850E-15
  0.111022302463E-15
  0.610622663544E-15
  0.666133814775E-15
 -0.721644966006E-15
  0.610622663544E-15
 -0.166533453694E-15
  0.222044604925E-15
 -0.333066907388E-15
SCALARS phi_mu float 1
LOOKUP_TABLE default
  0.616941340169E+00
  0.809488824239E+00
  0.703640627643E+00
  0.783795188754E+00
  0.833686624341E+00
  0.694581791491E+00
  0.732965336674E+00
  0.500685924399E+00
  0.751474719539E+00
  0.629221270254E+00
  0.380253434651E+00
  0.772787390906E+00
  0.627882331094E+00
  0.304358492590E+00
  0.483682308609E-01
  0.518317390621E+00
  0.265672744953E+00
  0.167282622292E+00
 -0.843434549609E-01
  0.677252417866E+00
  0.692424156024E+00
  0.546886452680E+00
 -0.170355098758E+00
 -0.320659533557E+00
  0.527536540939E-01
 -0.194767832169E+00
  0.432855530869E+00
  0.180601566097E+00
 -0.252669431495E+00
 -0.391785406106E+00
 -0.368122429886E+00
 -0.419625471789E+00
 -0.393428012409E+00
 -0.377417350001E+00
 -0.422659128571E+00
  0.629158705061E+00
 -0.300217040085E+00
 -0.435748674004E+00
 -0.866718980021E-02
 -0.254417807997E+00
  0.645476315445E+00
  0.500099629884E+00
 -0.355284801800E+00
 -0.384023200494E+00
 -0.428462207846E+00
  0.391435478142E+00
  0.139646505712E+00
 -0.353777167462E+00
 -0.326668301285E+00
 -0.461315047531E+00
 -0.397232402823E+00
 -0.441449869777E+00
 -0.377462770434E-01
 -0.282950060779E+00
  0.602779016638E+00
  0.619644613941E+00
  0.474407741562E+00
 -0.363238551619E+00
  0.367313371570E+00
  0.115795709624E+00
 -0.345250378337E+00
 -0.479636518756E+00
 -0.411214123820E+00
 -0.455354818413E+00
  0.578025608595E+00
 -0.589295805995E-01
 -0.303836417331E+00
  0.594216635542E+00
  0.449190605212E+00
 -0.375581526953E+00
  0.340129119190E+00
  0.890658348362E-01
  0.542212769648E+00
 -0.363419560932E+00
 -0.497637037360E+00
  0.555176320557E+00
  0.410728575209E+00
 -0.427263034268E+00
 -0.471348542298E+00
 -0.878822885588E-01
 -0.332141258566E+00
  0.485350484299E+00
  0.292359377242E+00
  0.429080685395E-01
  0.486822721346E+00
  0.344446378314E+00
 -0.390576693779E+00
  0.375264721491E+00
  0.345442535014E+00
  0.221952612994E+00
  0.271007835375E+00
  0.190660226086E+00
  0.211801764572E+00
  0.203567349177E+00
 -0.371832173598E-01
 -0.388657817214E+00
 -0.522408441560E+00
 -0.136573150622E+00
 -0.377738180671E+00
  0.980572133549E-01
 -0.102138957791E+00
  0.236753159654E-01
 -0.101553538431E+00
 -0.538590521600E-01
 -0.445892972892E+00
 -0.489817530720E+00
 -0.178882031039E+00
 -0.406002895820E+00
 -0.405377581935E+00
 -0.405177063649E+00
 -0.536833584112E+00
 -0.195191123838E+00
 -0.378917006306E+00
 -0.224527570099E+00
 -0.337982372038E+00
 -0.281209736363E+00
 -0.435794382087E+00
 -0.479098558323E+00
 -0.370411653811E+00
 -0.494868228469E+00
 -0.384615460373E+00
 -0.304437598874E+00
 -0.399396929666E+00
 -0.301721236733E+00
 -0.360440979311E+00
 -0.323809763866E+00
 -0.365856241698E+00
 -0.407442106829E+00
 -0.306972227256E+00
 -0.258680102180E+00
 -0.288113667433E+00
 -0.254080269407E+00
 -0.272332428365E+00
 -0.259421361529E+00
 -0.194177726102E+00
 -0.393429036272E+00
 -0.355285966405E+00
 -0.353779042143E+00
 -0.363241218200E+00
 -0.375584661387E+00
 -0.390579645568E+00
 -0.405379837421E+00
 -0.384616922908E+00
 -0.306973088821E+00
SCALARS phi_sigma float 1
LOOKUP_TABLE default
 -0.616941340169E+00
 -0.809488824239E+00
 -0.703640627643E+00
 -0.783795188754E+00
 -0.833686624341E+00
 -0.694581791491E+00
 -0.732965336674E+00
 -0.500685924399E+00
 -0.751474719539E+00
 -0.629221270254E+00
 -0.380253434651E+00
 -0.772787390906E+00
 -0.627882331094E+00
 -0.304358492590E+00
 -0.483682308609E-01
 -0.518317390621E+00
 -0.265672744953E+00
 -0.167282622292E+00
  0.843434549609E-01
 -0.677252417866E+00
 -0.692424156024E+00
 -0.546886452680E+00
  0.170355098758E+00
  0.320659533557E+00
 -0.527536540939E-01
  0.194767832169E+00
 -0.432855530869E+00
 -0.180601566097E+00
  0.252669431495E+00
  0.391785406106E+00
  0.368122429886E+00
  0.419625471789E+00
  0.393428012409E+00
  0.377417350001E+00
  0.422659128571E+00
 -0.629158705061E+00
  0.300217040085E+00
  0.435748674004E+00
  0.866718980021E-02
  0.254417807997E+00
 -0.645476315445E+00
 -0.500099629884E+00
  0.355284801800E+00
  0.384023200494E+00
  0.428462207846E+00
 -0.391435478142E+00
 -0.139646505712E+00
  0.353777167462E+00
  0.326668301285E+00
  0.461315047531E+00
  0.397232402823E+00
  0.441449869777E+00
  0.377462770434E-01
  0.282950060779E+00
 -0.602779016638E+00
 -0.619644613941E+00
 -0.474407741562E+00
  0.363238551619E+00
 -0.367313371570E+00
 -0.115795709624E+00
  0.345250378337E+00
  0.479636518756E+00
  0.411214123820E+00
  0.455354818413E+00
 -0.578025608595E+00
  0.589295805995E-01
  0.303836417331E+00
 -0.594216635542E+00
 -0.449190605212E+00
  0.375581526953E+00
 -0.340129119190E+00
 -0.890658348362E-01
 -0.542212769648E+00
  0.363419560932E+00
  0.497637037360E+00
 -0.555176320557E+00
 -0.410728575209E+00
  0.427263034268E+00
  0.471348542298E+00
  0.878822885589E-01
  0.332141258566E+00
 -0.485350484299E+00
 -0.292359377242E+00
 -0.429080685395E-01
 -0.486822721346E+00
 -0.344446378314E+00
  0.390576693779E+00
 -0.375264721491E+00
 -0.345442535014E+00
 -0.221952612994E+00
 -0.271007835375E+00
 -0.190660226086E+00
 -0.211801764572E+00
 -0.203567349177E+00
  0.371832173598E-01
  0.388657817214E+00
  0.522408441560E+00
  0.136573150622E+00
  0.377738180671E+00
 -0.980572133549E-01
  0.102138957791E+00
 -0.236753159654E-01
  0.101553538431E+00
  0.538590521600E-01
  0.445892972892E+00
  0.489817530720E+00
  0.178882031039E+00
  0.406002895820E+00
  0.405377581935E+00
  0.405177063649E+00
  0.536833584112E+00
  0.195191123838E+00
  0.378917006306E+00
  0.224527570099E+00
  0.337982372038E+00
  0.281209736363E+00
  0.435794382087E+00
  0.479098558323E+00
  0.370411653811E+00
  0.494868228469E+00
  0.384615460373E+00
  0.304437598874E+00
  0.399396929666E+00
  0.301721236733E+00
  0.360440979311E+00
  0.323809763866E+00
  0.365856241698E+00
  0.407442106829E+00
  0.306972227256E+00
  0.258680102180E+00
  0.288113667433E+00
  0.254080269407E+00
  0.272332428365E+00
  0.259421361529E+00
  0.194177726102E+00
  0.393429036272E+00
  0.355285966405E+00
  0.353779042143E+00
  0.363241218200E+00
  0.375584661387E+00
  0.390579645568E+00
  0.405379837421E+00
  0.384616922908E+00
  0.306973088821E+00
