# vtk DataFile Version 3.0
MachLine results file. Generated by MachLine, USU AeroLab (c) 2022.
ASCII
DATASET POLYDATA
POINTS                  92 float
  0.113647460938E+01  0.116971552372E+01  0.000000000000E+00
  0.999999446777E+03  0.116971552372E+01  0.105187760338E+01
  0.114398765564E+01  0.119630002975E+01  0.677626357803E-20
  0.999999446786E+03  0.119630002975E+01  0.105186969159E+01
  0.112144851685E+01  0.111654663086E+01  0.000000000000E+00
  0.999999446761E+03  0.111654663086E+01  0.105189342696E+01
  0.112896156311E+01  0.114313113689E+01  0.000000000000E+00
  0.999999446769E+03  0.114313113689E+01  0.105188551517E+01
  0.109890925884E+01  0.103679335117E+01  0.000000000000E+00
  0.999999446736E+03  0.103679335117E+01  0.105191716247E+01
  0.110642230511E+01  0.106337773800E+01  0.000000000000E+00
  0.999999446744E+03  0.106337773800E+01  0.105190925067E+01
  0.108388316631E+01  0.983624458313E+00  0.000000000000E+00
  0.999999446719E+03  0.983624458313E+00  0.105193298605E+01
  0.109139621258E+01  0.101020884514E+01  0.000000000000E+00
  0.999999446727E+03  0.101020884514E+01  0.105192507426E+01
  0.107637012005E+01  0.957040011883E+00  0.000000000000E+00
  0.999999446711E+03  0.957040011883E+00  0.105194089784E+01
  0.111393535137E+01  0.108996224403E+01  0.000000000000E+00
  0.999999446752E+03  0.108996224403E+01  0.105190133888E+01
  0.105383098125E+01  0.877286672592E+00  0.000000000000E+00
  0.999999446686E+03  0.877286672592E+00  0.105196463322E+01
  0.106134402752E+01  0.903871119022E+00  0.000000000000E+00
  0.999999446694E+03  0.903871119022E+00  0.105195672143E+01
  0.103129172325E+01  0.797533333302E+00  0.000000000000E+00
  0.999999446661E+03  0.797533333302E+00  0.105198836872E+01
  0.103880476952E+01  0.824117779732E+00  0.000000000000E+00
  0.999999446669E+03  0.824117779732E+00  0.105198045693E+01
  0.104631793499E+01  0.850702226162E+00  0.000000000000E+00
  0.999999446677E+03  0.850702226162E+00  0.105197254501E+01
  0.101626563072E+01  0.744364440441E+00  0.000000000000E+00
  0.999999446644E+03  0.744364440441E+00  0.105200419231E+01
  0.102377867699E+01  0.770948886871E+00  0.000000000000E+00
  0.999999446652E+03  0.770948886871E+00  0.105199628051E+01
  0.100875258446E+01  0.717779994011E+00  0.000000000000E+00
  0.999999446636E+03  0.717779994011E+00  0.105201210410E+01
  0.986213386059E+00  0.638026654720E+00  0.000000000000E+00
  0.999999446611E+03  0.638026654720E+00  0.105203583954E+01
  0.993726491928E+00  0.664611101151E+00  0.000000000000E+00
  0.999999446619E+03  0.664611101151E+00  0.105202792768E+01
  0.978700339794E+00  0.611442208290E+00  0.000000000000E+00
  0.999999446602E+03  0.611442208290E+00  0.105204375133E+01
  0.971187293530E+00  0.584857761860E+00  0.000000000000E+00
  0.999999446594E+03  0.584857761860E+00  0.105205166312E+01
  0.963674247265E+00  0.558273315430E+00  0.000000000000E+00
  0.999999446586E+03  0.558273315430E+00  0.105205957491E+01
  0.956161201000E+00  0.531688868999E+00  0.000000000000E+00
  0.999999446577E+03  0.531688868999E+00  0.105206748671E+01
  0.948648095131E+00  0.505104422569E+00  0.000000000000E+00
  0.999999446569E+03  0.505104422569E+00  0.105207539856E+01
  0.941135048866E+00  0.478520005941E+00  0.000000000000E+00
  0.999999446561E+03  0.478520005941E+00  0.105208331035E+01
  0.918595850468E+00  0.398766666651E+00  0.000000000000E+00
  0.999999446536E+03  0.398766666651E+00  0.105210704579E+01
  0.926108956337E+00  0.425351113081E+00  0.000000000000E+00
  0.999999446544E+03  0.425351113081E+00  0.105209913394E+01
  0.911082804203E+00  0.372182220221E+00  0.000000000000E+00
  0.999999446527E+03  0.372182220221E+00  0.105211495759E+01
  0.903569757938E+00  0.345597773790E+00  0.000000000000E+00
  0.999999446519E+03  0.345597773790E+00  0.105212286938E+01
  0.896056711674E+00  0.319013327360E+00  0.000000000000E+00
  0.999999446511E+03  0.319013327360E+00  0.105213078117E+01
  0.888543665409E+00  0.292428880930E+00  0.000000000000E+00
  0.999999446502E+03  0.292428880930E+00  0.105213869296E+01
  0.881030559540E+00  0.265844434500E+00  0.000000000000E+00
  0.999999446494E+03  0.265844434500E+00  0.105214660482E+01
  0.873517513275E+00  0.239260002971E+00  0.000000000000E+00
  0.999999446486E+03  0.239260002971E+00  0.105215451661E+01
  0.843465268612E+00  0.132922217250E+00  0.000000000000E+00
  0.999999446452E+03  0.132922217250E+00  0.105218616384E+01
  0.850978374481E+00  0.159506663680E+00  0.000000000000E+00
  0.999999446461E+03  0.159506663680E+00  0.105217825199E+01
  0.835952222347E+00  0.106337778270E+00  0.000000000000E+00
  0.999999446444E+03  0.106337778270E+00  0.105219407563E+01
  0.828439176083E+00  0.797533318400E-01  0.000000000000E+00
  0.999999446436E+03  0.797533318400E-01  0.105220198743E+01
  0.820926129818E+00  0.531688891351E-01  0.000000000000E+00
  0.999999446427E+03  0.531688891351E-01  0.105220989922E+01
  0.813413083553E+00  0.265844445676E-01  0.000000000000E+00
  0.999999446419E+03  0.265844445676E-01  0.105221781101E+01
  0.805899977684E+00  0.000000000000E+00  0.000000000000E+00
  0.999999446411E+03  0.000000000000E+00  0.105222572287E+01
  0.858491420746E+00  0.186091110110E+00  0.000000000000E+00
  0.999999446469E+03  0.186091110110E+00  0.105217034019E+01
  0.866004467010E+00  0.212675556540E+00  0.000000000000E+00
  0.999999446477E+03  0.212675556540E+00  0.105216242840E+01
  0.933622002602E+00  0.451935559511E+00  0.000000000000E+00
  0.999999446552E+03  0.451935559511E+00  0.105209122215E+01
  0.100123953819E+01  0.691195547581E+00  0.000000000000E+00
  0.999999446627E+03  0.691195547581E+00  0.105202001589E+01
  0.106885707378E+01  0.930455565453E+00  0.000000000000E+00
  0.999999446702E+03  0.930455565453E+00  0.105194880963E+01
POLYGONS                  90                 360
3                   0                   1                   3
3                   0                   3                   2
3                   4                   5                   7
3                   4                   7                   6
3                   8                   9                  11
3                   8                  11                  10
3                  12                  13                  15
3                  12                  15                  14
3                  16                  17                  13
3                  16                  13                  12
3                  18                  19                   5
3                  18                   5                   4
3                  10                  11                  19
3                  10                  19                  18
3                  14                  15                   9
3                  14                   9                   8
3                  20                  21                  23
3                  20                  23                  22
3                  24                  25                  27
3                  24                  27                  26
3                  28                  29                  21
3                  28                  21                  20
3                  30                  31                  33
3                  30                  33                  32
3                  26                  27                  29
3                  26                  29                  28
3                  32                  33                  25
3                  32                  25                  24
3                  34                  35                  31
3                  34                  31                  30
3                  36                  37                  39
3                  36                  39                  38
3                  40                  41                  37
3                  40                  37                  36
3                  42                  43                  41
3                  42                  41                  40
3                  44                  45                  43
3                  44                  43                  42
3                  46                  47                  45
3                  46                  45                  44
3                  48                  49                  47
3                  48                  47                  46
3                  50                  51                  49
3                  50                  49                  48
3                  52                  53                  55
3                  52                  55                  54
3                  56                  57                  53
3                  56                  53                  52
3                  58                  59                  57
3                  58                  57                  56
3                  60                  61                  59
3                  60                  59                  58
3                  62                  63                  61
3                  62                  61                  60
3                  64                  65                  63
3                  64                  63                  62
3                  66                  67                  65
3                  66                  65                  64
3                  68                  69                  71
3                  68                  71                  70
3                  72                  73                  69
3                  72                  69                  68
3                  74                  75                  73
3                  74                  73                  72
3                  76                  77                  75
3                  76                  75                  74
3                  78                  79                  77
3                  78                  77                  76
3                  80                  81                  79
3                  80                  79                  78
3                  70                  71                  83
3                  70                  83                  82
3                  82                  83                  85
3                  82                  85                  84
3                  84                  85                  67
3                  84                  67                  66
3                  54                  55                  87
3                  54                  87                  86
3                  86                  87                  51
3                  86                  51                  50
3                  38                  39                  89
3                  38                  89                  88
3                  88                  89                  35
3                  88                  35                  34
3                  22                  23                  91
3                  22                  91                  90
3                  90                  91                  17
3                  90                  17                  16
3                   6                   7                   1
3                   6                   1                   0
CELL_DATA                  90
NORMALS normals float
 -0.105307434839E-02  0.297609302418E-03  0.999999401231E+00
 -0.105307434839E-02  0.297609302416E-03  0.999999401231E+00
 -0.105307434839E-02  0.297609302415E-03  0.999999401231E+00
 -0.105307434839E-02  0.297609302416E-03  0.999999401231E+00
 -0.105307434839E-02  0.297610637242E-03  0.999999401231E+00
 -0.105307434839E-02  0.297610637243E-03  0.999999401231E+00
 -0.105307434839E-02  0.297610637273E-03  0.999999401231E+00
 -0.105307434839E-02  0.297610637277E-03  0.999999401231E+00
 -0.105307434839E-02  0.297609969635E-03  0.999999401231E+00
 -0.105307434839E-02  0.297609969630E-03  0.999999401231E+00
 -0.105307434839E-02  0.297615359457E-03  0.999999401230E+00
 -0.105307434839E-02  0.297615359454E-03  0.999999401230E+00
 -0.105307434839E-02  0.297609302419E-03  0.999999401231E+00
 -0.105307434839E-02  0.297609302416E-03  0.999999401231E+00
 -0.105307434839E-02  0.297609302416E-03  0.999999401231E+00
 -0.105307434839E-02  0.297609302416E-03  0.999999401231E+00
 -0.105307434839E-02  0.297609970024E-03  0.999999401231E+00
 -0.105307434839E-02  0.297609970026E-03  0.999999401231E+00
 -0.105307434839E-02  0.297609970026E-03  0.999999401231E+00
 -0.105307434839E-02  0.297609970026E-03  0.999999401231E+00
 -0.105307434839E-02  0.297609969620E-03  0.999999401231E+00
 -0.105307434839E-02  0.297609969630E-03  0.999999401231E+00
 -0.105307434839E-02  0.297609970032E-03  0.999999401231E+00
 -0.105307434839E-02  0.297609970026E-03  0.999999401231E+00
 -0.105307434839E-02  0.297614691831E-03  0.999999401230E+00
 -0.105307434839E-02  0.297614691830E-03  0.999999401230E+00
 -0.105307434839E-02  0.297609969628E-03  0.999999401231E+00
 -0.105307434839E-02  0.297609969619E-03  0.999999401231E+00
 -0.105307434839E-02  0.297609969619E-03  0.999999401231E+00
 -0.105307434839E-02  0.297609969630E-03  0.999999401231E+00
 -0.105307434839E-02  0.297612330876E-03  0.999999401230E+00
 -0.105307434839E-02  0.297612330874E-03  0.999999401230E+00
 -0.105307434839E-02  0.297609969826E-03  0.999999401231E+00
 -0.105307434839E-02  0.297609969828E-03  0.999999401231E+00
 -0.105307434839E-02  0.297609969799E-03  0.999999401231E+00
 -0.105307434839E-02  0.297609969792E-03  0.999999401231E+00
 -0.105307434839E-02  0.297609969831E-03  0.999999401231E+00
 -0.105307434839E-02  0.297609969828E-03  0.999999401231E+00
 -0.105307434839E-02  0.297609969810E-03  0.999999401231E+00
 -0.105307434839E-02  0.297609969817E-03  0.999999401231E+00
 -0.105307434839E-02  0.297612330884E-03  0.999999401230E+00
 -0.105307434839E-02  0.297612330885E-03  0.999999401230E+00
 -0.105307434839E-02  0.297610303456E-03  0.999999401231E+00
 -0.105307434839E-02  0.297610303459E-03  0.999999401231E+00
 -0.105307434839E-02  0.297612330883E-03  0.999999401230E+00
 -0.105307434839E-02  0.297612330885E-03  0.999999401230E+00
 -0.105307434839E-02  0.297609969827E-03  0.999999401231E+00
 -0.105307434839E-02  0.297609969828E-03  0.999999401231E+00
 -0.105307434839E-02  0.297609969823E-03  0.999999401231E+00
 -0.105307434839E-02  0.297609969817E-03  0.999999401231E+00
 -0.105307434839E-02  0.297609969790E-03  0.999999401231E+00
 -0.105307434839E-02  0.297609969792E-03  0.999999401231E+00
 -0.105307434839E-02  0.297609969831E-03  0.999999401231E+00
 -0.105307434839E-02  0.297609969828E-03  0.999999401231E+00
 -0.105307434839E-02  0.297612330888E-03  0.999999401230E+00
 -0.105307434839E-02  0.297612330885E-03  0.999999401230E+00
 -0.105307434839E-02  0.297610136642E-03  0.999999401231E+00
 -0.105307434839E-02  0.297610136643E-03  0.999999401231E+00
 -0.105307434839E-02  0.297612330884E-03  0.999999401230E+00
 -0.105307434839E-02  0.297612330885E-03  0.999999401230E+00
 -0.105307434839E-02  0.297610053229E-03  0.999999401231E+00
 -0.105307434839E-02  0.297610053230E-03  0.999999401231E+00
 -0.105307434839E-02  0.297609969791E-03  0.999999401231E+00
 -0.105307434839E-02  0.297609969792E-03  0.999999401231E+00
 -0.105307434839E-02  0.297610011525E-03  0.999999401231E+00
 -0.105307434839E-02  0.297610011530E-03  0.999999401231E+00
 -0.105307434839E-02  0.297609990689E-03  0.999999401231E+00
 -0.105307434839E-02  0.297609990679E-03  0.999999401231E+00
 -0.105307434839E-02  0.297612351730E-03  0.999999401230E+00
 -0.105307434839E-02  0.297612351735E-03  0.999999401230E+00
 -0.105307434839E-02  0.297609969831E-03  0.999999401231E+00
 -0.105307434839E-02  0.297609969828E-03  0.999999401231E+00
 -0.105307434839E-02  0.297609969789E-03  0.999999401231E+00
 -0.105307434839E-02  0.297609969792E-03  0.999999401231E+00
 -0.105307434839E-02  0.297609969823E-03  0.999999401231E+00
 -0.105307434839E-02  0.297609969817E-03  0.999999401231E+00
 -0.105307434839E-02  0.297609969823E-03  0.999999401231E+00
 -0.105307434839E-02  0.297609969828E-03  0.999999401231E+00
 -0.105307434839E-02  0.297609969798E-03  0.999999401231E+00
 -0.105307434839E-02  0.297609969792E-03  0.999999401231E+00
 -0.105307434839E-02  0.297609969710E-03  0.999999401231E+00
 -0.105307434839E-02  0.297609969711E-03  0.999999401231E+00
 -0.105307434839E-02  0.297609970028E-03  0.999999401231E+00
 -0.105307434839E-02  0.297609970026E-03  0.999999401231E+00
 -0.105307434839E-02  0.297609969629E-03  0.999999401231E+00
 -0.105307434839E-02  0.297609969619E-03  0.999999401231E+00
 -0.105307434839E-02  0.297609970027E-03  0.999999401231E+00
 -0.105307434839E-02  0.297609970026E-03  0.999999401231E+00
 -0.105307434839E-02  0.297610637242E-03  0.999999401231E+00
 -0.105307434839E-02  0.297610637243E-03  0.999999401231E+00
POINT_DATA                  92
SCALARS mu float 1
LOOKUP_TABLE default
  0.309147999265E-03
  0.309147999265E-03
  0.000000000000E+00
  0.000000000000E+00
  0.616815088206E-03
  0.616815088206E-03
  0.490539832153E-03
  0.490539832153E-03
  0.858849318104E-03
  0.858849318104E-03
  0.792801613682E-03
  0.792801613682E-03
  0.964643367168E-03
  0.964643367168E-03
  0.915913837578E-03
  0.915913837578E-03
  0.100893344987E-02
  0.100893344987E-02
  0.714540811943E-03
  0.714540811943E-03
  0.111675932914E-02
  0.111675932914E-02
  0.108426992573E-02
  0.108426992573E-02
  0.119950110070E-02
  0.119950110070E-02
  0.117423316790E-02
  0.117423316790E-02
  0.114657978545E-02
  0.114657978545E-02
  0.124582141004E-02
  0.124582141004E-02
  0.122383025428E-02
  0.122383025428E-02
  0.126535000127E-02
  0.126535000127E-02
  0.131716137237E-02
  0.131716137237E-02
  0.130154153641E-02
  0.130154153641E-02
  0.133226720396E-02
  0.133226720396E-02
  0.134673300180E-02
  0.134673300180E-02
  0.136041354044E-02
  0.136041354044E-02
  0.137282175339E-02
  0.137282175339E-02
  0.138381829691E-02
  0.138381829691E-02
  0.139380500674E-02
  0.139380500674E-02
  0.141886795808E-02
  0.141886795808E-02
  0.141183993193E-02
  0.141183993193E-02
  0.142656102602E-02
  0.142656102602E-02
  0.143345603496E-02
  0.143345603496E-02
  0.143838486783E-02
  0.143838486783E-02
  0.144314205163E-02
  0.144314205163E-02
  0.144567228773E-02
  0.144567228773E-02
  0.145013209911E-02
  0.145013209911E-02
  0.145672322175E-02
  0.145672322175E-02
  0.145583631902E-02
  0.145583631902E-02
  0.145749699179E-02
  0.145749699179E-02
  0.145638827643E-02
  0.145638827643E-02
  0.145624627715E-02
  0.145624627715E-02
  0.145651760205E-02
  0.145651760205E-02
  0.145564804012E-02
  0.145564804012E-02
  0.145474054333E-02
  0.145474054333E-02
  0.145281489547E-02
  0.145281489547E-02
  0.140256371995E-02
  0.140256371995E-02
  0.128454045797E-02
  0.128454045797E-02
  0.104860369633E-02
  0.104860369633E-02
