# vtk DataFile Version 3.0
MachLine results file. Generated by MachLine, USU AeroLab (c) 2022.
ASCII
DATASET POLYDATA
POINTS                3261 float
  0.000000000000E+00  0.000000000000E+00  0.000000000000E+00
  0.138131193817E-01  0.239259991795E-01  0.000000000000E+00
  0.184377916157E-01  0.000000000000E+00 -0.191644169390E-01
  0.184377916157E-01  0.000000000000E+00  0.191644169390E-01
  0.276262387633E-01  0.478519983590E-01  0.000000000000E+00
  0.320895873010E-01  0.239259991795E-01 -0.189967341721E-01
  0.320895873010E-01  0.239259991795E-01  0.189967341721E-01
  0.414393581450E-01  0.717779994011E-01  0.000000000000E+00
  0.457413829863E-01  0.478519983590E-01 -0.188290514052E-01
  0.457413829863E-01  0.478519983590E-01  0.188290514052E-01
  0.460614785552E-01  0.000000000000E+00 -0.248102936894E-01
  0.460614785552E-01  0.000000000000E+00  0.248102936894E-01
  0.552524775267E-01  0.957039967179E-01  0.000000000000E+00
  0.593931749463E-01  0.717779994011E-01 -0.186613686383E-01
  0.593931749463E-01  0.717779994011E-01  0.186613686383E-01
  0.594715774059E-01  0.239259991795E-01 -0.245932117105E-01
  0.594715774059E-01  0.239259991795E-01  0.245932117105E-01
  0.690656006336E-01  0.119630001485E+00  0.000000000000E+00
  0.728816688061E-01  0.478519983590E-01 -0.243761278689E-01
  0.728816688061E-01  0.478519983590E-01  0.243761278689E-01
  0.730449706316E-01  0.957039967179E-01 -0.184936858714E-01
  0.730449706316E-01  0.957039967179E-01  0.184936858714E-01
  0.740515887737E-01  0.000000000000E+00 -0.284879114479E-01
  0.740515887737E-01  0.000000000000E+00  0.284879114479E-01
  0.828787162900E-01  0.143555998802E+00  0.000000000000E+00
  0.862917676568E-01  0.717779994011E-01 -0.241590458900E-01
  0.862917676568E-01  0.717779994011E-01  0.241590458900E-01
  0.866967663169E-01  0.119630001485E+00 -0.183260031044E-01
  0.866967663169E-01  0.119630001485E+00  0.183260031044E-01
  0.872167795897E-01  0.239259991795E-01 -0.282386522740E-01
  0.872167795897E-01  0.239259991795E-01  0.282386522740E-01
  0.966918393970E-01  0.167482003570E+00  0.000000000000E+00
  0.997018665075E-01  0.957039967179E-01 -0.239419639111E-01
  0.997018665075E-01  0.957039967179E-01  0.239419639111E-01
  0.100348562002E+00  0.143555998802E+00 -0.181583203375E-01
  0.100348562002E+00  0.143555998802E+00  0.181583203375E-01
  0.100381970406E+00  0.478519983590E-01 -0.279893912375E-01
  0.100381970406E+00  0.478519983590E-01  0.279893912375E-01
  0.102138325572E+00  0.000000000000E+00 -0.313414372504E-01
  0.102138325572E+00  0.000000000000E+00  0.313414372504E-01
  0.110504955053E+00  0.191407993436E+00  0.000000000000E+00
  0.113111965358E+00  0.119630001485E+00 -0.237248819321E-01
  0.113111965358E+00  0.119630001485E+00  0.237248819321E-01
  0.113547168672E+00  0.717779994011E-01 -0.277401320636E-01
  0.113547168672E+00  0.717779994011E-01  0.277401320636E-01
  0.114000357687E+00  0.167482003570E+00 -0.179906394333E-01
  0.114000357687E+00  0.167482003570E+00  0.179906394333E-01
  0.115057766438E+00  0.239259991795E-01 -0.310672093183E-01
  0.115057766438E+00  0.239259991795E-01  0.310672093183E-01
  0.124318078160E+00  0.215333998203E+00  0.000000000000E+00
  0.126522064209E+00  0.143555998802E+00 -0.235077999532E-01
  0.126522064209E+00  0.143555998802E+00  0.235077999532E-01
  0.126712352037E+00  0.957039967179E-01 -0.274908710271E-01
  0.126712352037E+00  0.957039967179E-01  0.274908710271E-01
  0.127652153373E+00  0.191407993436E+00 -0.178229566664E-01
  0.127652153373E+00  0.191407993436E+00  0.178229566664E-01
  0.127977207303E+00  0.478519983590E-01 -0.307929813862E-01
  0.127977207303E+00  0.478519983590E-01  0.307929813862E-01
  0.130280584097E+00  0.000000000000E+00 -0.335864275694E-01
  0.130280584097E+00  0.000000000000E+00  0.335864275694E-01
  0.138131201267E+00  0.239260002971E+00  0.000000000000E+00
  0.139877542853E+00  0.119630001485E+00 -0.272416118532E-01
  0.139877542853E+00  0.119630001485E+00  0.272416118532E-01
  0.139932155609E+00  0.167482003570E+00 -0.232907179743E-01
  0.139932155609E+00  0.167482003570E+00  0.232907179743E-01
  0.140896648169E+00  0.717779994011E-01 -0.305187534541E-01
  0.140896648169E+00  0.717779994011E-01  0.305187534541E-01
  0.141303941607E+00  0.215333998203E+00 -0.176552738994E-01
  0.141303941607E+00  0.215333998203E+00  0.176552738994E-01
  0.142953783274E+00  0.239259991795E-01 -0.332925543189E-01
  0.142953783274E+00  0.239259991795E-01  0.332925543189E-01
  0.151944324374E+00  0.263186007738E+00  0.000000000000E+00
  0.153042748570E+00  0.143555998802E+00 -0.269923508167E-01
  0.153042748570E+00  0.143555998802E+00  0.269923508167E-01
  0.153342247009E+00  0.191407993436E+00 -0.230736359954E-01
  0.153342247009E+00  0.191407993436E+00  0.230736359954E-01
  0.153816103935E+00  0.957039967179E-01 -0.302445273846E-01
  0.153816103935E+00  0.957039967179E-01  0.302445273846E-01
  0.154955744743E+00  0.239260002971E+00 -0.174875911325E-01
  0.154955744743E+00  0.239260002971E+00  0.174875911325E-01
  0.155626997352E+00  0.478519983590E-01 -0.329986847937E-01
  0.155626997352E+00  0.478519983590E-01  0.329986847937E-01
  0.158455848694E+00  0.000000000000E+00 -0.353712737560E-01
  0.158455848694E+00  0.000000000000E+00  0.353712737560E-01
  0.165757432580E+00  0.287111997604E+00  0.000000000000E+00
  0.166207939386E+00  0.167482003570E+00 -0.267430916429E-01
  0.166207939386E+00  0.167482003570E+00  0.267430916429E-01
  0.166735544801E+00  0.119630001485E+00 -0.299702994525E-01
  0.166735544801E+00  0.119630001485E+00  0.299702994525E-01
  0.166752353311E+00  0.215333998203E+00 -0.228565540165E-01
  0.166752353311E+00  0.215333998203E+00  0.228565540165E-01
  0.168300196528E+00  0.717779994011E-01 -0.327048152685E-01
  0.168300196528E+00  0.717779994011E-01  0.327048152685E-01
  0.168607532978E+00  0.263186007738E+00 -0.173199083656E-01
  0.168607532978E+00  0.263186007738E+00  0.173199083656E-01
  0.170882523060E+00  0.239259991795E-01 -0.350617878139E-01
  0.170882523060E+00  0.239259991795E-01  0.350617878139E-01
  0.179373130202E+00  0.191407993436E+00 -0.264938306063E-01
  0.179373130202E+00  0.191407993436E+00  0.264938306063E-01
  0.179570555687E+00  0.311037987471E+00  0.000000000000E+00
  0.179654985666E+00  0.143555998802E+00 -0.296960715204E-01
  0.179654985666E+00  0.143555998802E+00  0.296960715204E-01
  0.180162444711E+00  0.239260002971E+00 -0.226394720376E-01
  0.180162444711E+00  0.239260002971E+00  0.226394720376E-01
  0.180973410606E+00  0.957039967179E-01 -0.324109420180E-01
  0.180973410606E+00  0.957039967179E-01  0.324109420180E-01
  0.182259336114E+00  0.287111997604E+00 -0.171522255987E-01
  0.182259336114E+00  0.287111997604E+00  0.171522255987E-01
  0.183309212327E+00  0.478519983590E-01 -0.347523018718E-01
  0.183309212327E+00  0.478519983590E-01  0.347523018718E-01
  0.186651825905E+00  0.000000000000E+00 -0.367915518582E-01
  0.186651825905E+00  0.000000000000E+00  0.367915518582E-01
  0.192538321018E+00  0.215333998203E+00 -0.262445714325E-01
  0.192538321018E+00  0.215333998203E+00  0.262445714325E-01
  0.192574426532E+00  0.167482003570E+00 -0.294218435884E-01
  0.192574426532E+00  0.167482003570E+00  0.294218435884E-01
  0.193383678794E+00  0.334964007139E+00  0.000000000000E+00
  0.193572536111E+00  0.263186007738E+00 -0.224223900586E-01
  0.193572536111E+00  0.263186007738E+00  0.224223900586E-01
  0.193646609783E+00  0.119630001485E+00 -0.321170724928E-01
  0.193646609783E+00  0.119630001485E+00  0.321170724928E-01
  0.195735886693E+00  0.717779994011E-01 -0.344428122044E-01
  0.195735886693E+00  0.717779994011E-01  0.344428122044E-01
  0.195911124349E+00  0.311037987471E+00 -0.169845428318E-01
  0.195911124349E+00  0.311037987471E+00  0.169845428318E-01
  0.198831796646E+00  0.239259991795E-01 -0.364696383476E-01
  0.198831796646E+00  0.239259991795E-01  0.364696383476E-01
  0.205493867397E+00  0.191407993436E+00 -0.291476156563E-01
  0.205493867397E+00  0.191407993436E+00  0.291476156563E-01
  0.205703511834E+00  0.239260002971E+00 -0.259953103960E-01
  0.205703511834E+00  0.239260002971E+00  0.259953103960E-01
  0.206319823861E+00  0.143555998802E+00 -0.318232029676E-01
  0.206319823861E+00  0.143555998802E+00  0.318232029676E-01
  0.206982642412E+00  0.287111997604E+00 -0.222053080797E-01
  0.206982642412E+00  0.287111997604E+00  0.222053080797E-01
  0.207196801901E+00  0.358889997005E+00  0.000000000000E+00
  0.208162575960E+00  0.957039967179E-01 -0.341333262622E-01
  0.208162575960E+00  0.957039967179E-01  0.341333262622E-01
  0.209562927485E+00  0.334964007139E+00 -0.168168619275E-01
  0.209562927485E+00  0.334964007139E+00  0.168168619275E-01
  0.211011782289E+00  0.478519983590E-01 -0.361477248371E-01
  0.211011782289E+00  0.478519983590E-01  0.361477248371E-01
  0.214861869812E+00  0.000000000000E+00 -0.378986261785E-01
  0.214861869812E+00  0.000000000000E+00  0.378986261785E-01
  0.218413308263E+00  0.215333998203E+00 -0.288733895868E-01
  0.218413308263E+00  0.215333998203E+00  0.288733895868E-01
  0.218868702650E+00  0.263186007738E+00 -0.257460512221E-01
  0.218868702650E+00  0.263186007738E+00  0.257460512221E-01
  0.218993023038E+00  0.167482003570E+00 -0.315293334424E-01
  0.218993023038E+00  0.167482003570E+00  0.315293334424E-01
  0.220392733812E+00  0.311037987471E+00 -0.219882261008E-01
  0.220392733812E+00  0.311037987471E+00  0.219882261008E-01
  0.220589250326E+00  0.119630001485E+00 -0.338238403201E-01
  0.220589250326E+00  0.119630001485E+00  0.338238403201E-01
  0.221009910107E+00  0.382815986872E+00  0.000000000000E+00
  0.223191753030E+00  0.717779994011E-01 -0.358258113265E-01
  0.223191753030E+00  0.717779994011E-01  0.358258113265E-01
  0.223214715719E+00  0.358889997005E+00 -0.166491791606E-01
  0.223214715719E+00  0.358889997005E+00  0.166491791606E-01
  0.226795017719E+00  0.239259991795E-01 -0.375670231879E-01
  0.226795017719E+00  0.239259991795E-01  0.375670231879E-01
[...]
CELL_DATA                6372
SCALARS C_p_inc float 1
LOOKUP_TABLE default
 -0.351801157962E+00
 -0.246686339115E+00
 -0.223627730851E+00
 -0.220557859274E+00
 -0.220104833731E+00
 -0.221444179352E+00
 -0.224754348840E+00
 -0.229686111247E+00
 -0.235401291320E+00
 -0.240776965913E+00
 -0.244570205081E+00
 -0.245643742770E+00
 -0.243138366956E+00
 -0.236610709252E+00
 -0.226104867636E+00
 -0.212125945043E+00
 -0.195542871827E+00
 -0.177427202276E+00
 -0.158827803061E+00
 -0.140575624290E+00
 -0.123014014856E+00
 -0.105720419781E+00
 -0.873253197704E-01
 -0.653659287375E-01
 -0.364066345414E-01
  0.361452821391E-02
  0.498063096920E-01
 -0.403088472667E+00
 -0.271330612009E+00
 -0.238516588989E+00
 -0.230753135827E+00
 -0.227630352338E+00
 -0.227355705956E+00
 -0.229613167706E+00
 -0.233747206790E+00
 -0.238726775266E+00
 -0.243317711098E+00
 -0.246231129327E+00
 -0.246336486618E+00
 -0.242820278505E+00
 -0.235307073646E+00
 -0.223913061189E+00
 -0.209200915539E+00
 -0.192070067054E+00
 -0.173586782387E+00
 -0.154760337887E+00
 -0.136351509952E+00
 -0.118613434079E+00
 -0.101030715258E+00
 -0.821601186478E-01
 -0.595176208797E-01
 -0.297337242471E-01
  0.111016222950E-01
  0.576812919047E-01
 -0.434357325078E+00
 -0.290067009408E+00
 -0.251388970175E+00
 -0.240262963434E+00
 -0.234970299989E+00
 -0.233215242120E+00
 -0.234389036510E+00
 -0.237644771176E+00
 -0.241827064992E+00
 -0.245628501967E+00
 -0.247728225197E+00
 -0.246997259865E+00
 -0.242647757723E+00
 -0.234343060227E+00
 -0.222239170593E+00
 -0.206928683136E+00
 -0.189323043258E+00
 -0.170479147192E+00
 -0.151376235614E+00
 -0.132729984534E+00
 -0.114742174614E+00
 -0.968536243030E-01
 -0.776011014033E-01
 -0.545278267015E-01
 -0.243678945744E-01
  0.165534929030E-01
  0.623976096250E-01
 -0.456065535554E+00
 -0.304453579870E+00
 -0.262077886961E+00
 -0.248595954607E+00
 -0.241624865448E+00
 -0.238617198791E+00
 -0.238802573114E+00
 -0.241220586433E+00
 -0.244638613408E+00
 -0.247702801423E+00
 -0.249071758239E+00
 -0.247616625169E+00
 -0.242564849438E+00
 -0.233602496827E+00
 -0.220908380588E+00
 -0.205090856725E+00
 -0.187065236689E+00
 -0.167879599264E+00
 -0.148492668862E+00
 -0.129593217833E+00
 -0.111357117617E+00
 -0.932101210277E-01
 -0.736985515889E-01
 -0.504145183614E-01
 -0.201990163537E-01
  0.204458287770E-01
  0.655101214244E-01
 -0.472414056893E+00
 -0.315859194366E+00
 -0.270962889852E+00
 -0.255775237033E+00
 -0.247498671975E+00
 -0.243450182068E+00
 -0.242769939665E+00
 -0.244430481738E+00
 -0.247151763369E+00
 -0.249550978266E+00
 -0.250273378096E+00
 -0.248190402422E+00
 -0.242538789000E+00
 -0.233018653311E+00
 -0.219822111513E+00
 -0.203566158186E+00
 -0.185167334535E+00
 -0.165667001202E+00
 -0.146011623723E+00
 -0.126875402610E+00
 -0.108424109169E+00
 -0.900841208094E-01
 -0.704216340836E-01
 -0.470758767840E-01
 -0.169635159905E-01
  0.233291551922E-01
  0.677769971535E-01
 -0.485391834336E+00
 -0.325160178978E+00
 -0.278419742141E+00
 -0.261943272892E+00
 -0.252630107724E+00
 -0.247715829055E+00
 -0.246288301544E+00
 -0.247279691727E+00
 -0.249380743928E+00
 -0.251190321292E+00
 -0.251345159568E+00
 -0.248716951610E+00
 -0.242548611432E+00
 -0.232549003733E+00
 -0.218918886235E+00
 -0.202280471007E+00
 -0.183550906928E+00
 -0.163767826628E+00
 -0.143871204232E+00
 -0.124528924753E+00
 -0.105904792932E+00
 -0.874322572276E-01
 -0.676976037484E-01
 -0.443740248554E-01
 -0.144201551617E-01
  0.255511688219E-01
  0.695685913492E-01
 -0.496066245693E+00
 -0.332914392219E+00
 -0.284744854825E+00
 -0.267254422916E+00
 -0.257099176511E+00
 -0.251458646656E+00
 -0.249388129086E+00
 -0.249794532752E+00
 -0.251349793562E+00
 -0.252640832750E+00
 -0.252299214312E+00
 -0.249196599840E+00
 -0.242580280865E+00
 -0.232165342917E+00
 -0.218158305851E+00
 -0.201185495430E+00
 -0.182164852576E+00
 -0.162132603904E+00
 -0.142026428038E+00
 -0.122512295906E+00
 -0.103755659862E+00
 -0.851981507250E-01
 -0.654410381190E-01
 -0.421784605263E-01
 -0.123885313183E-01
  0.273090552852E-01
  0.709792163681E-01
 -0.505067951005E+00
 -0.339490205928E+00
 -0.290162782328E+00
 -0.271846944846E+00
 -0.260992626976E+00
 -0.254736745594E+00
 -0.252112147020E+00
 -0.252008710827E+00
 -0.253086197155E+00
 -0.253923063446E+00
 -0.253147301755E+00
 -0.249631219046E+00
 -0.242625083762E+00
 -0.231848556902E+00
 -0.217512885011E+00
 -0.200247870776E+00
 -0.180973020843E+00
 -0.160724757306E+00
 -0.140440327494E+00
 -0.120786397144E+00
 -0.101930948793E+00
 -0.833217368245E-01
 -0.635699426765E-01
 -0.403808712720E-01
 -0.107405015432E-01
  0.287329507863E-01
  0.721392327063E-01
 -0.512797836141E+00
 -0.345141413112E+00
 -0.294843802233E+00
 -0.275837231359E+00
 -0.264391949914E+00
 -0.257609048561E+00
 -0.254504971509E+00
 -0.253957603260E+00
 -0.254617013186E+00
 -0.255056365807E+00
 -0.253901142537E+00
 -0.250023884358E+00
 -0.242677488852E+00
 -0.231585565018E+00
 -0.216963312091E+00
 -0.199443412397E+00
 -0.179947985124E+00
 -0.159514389828E+00
 -0.139080402852E+00
 -0.119313932639E+00
 -0.100385306809E+00
 -0.817459119624E-01
 -0.620127912599E-01
 -0.388962010907E-01
 -0.938475876646E-02
  0.299057872544E-01
  0.730801984256E-01
 -0.519527539581E+00
 -0.350049998552E+00
 -0.298918518589E+00
 -0.279321409517E+00
 -0.267368625665E+00
 -0.260130389723E+00
 -0.256609303834E+00
 -0.255674101693E+00
 -0.255967703028E+00
 -0.256058958010E+00
 -0.254571539724E+00
 -0.250378308106E+00
 -0.242734566493E+00
 -0.231367153797E+00
 -0.216494817013E+00
 -0.198753418397E+00
 -0.179067341407E+00
 -0.158475646562E+00
 -0.137916821879E+00
 -0.118059791950E+00
 -0.990762605688E-01
 -0.804198901201E-01
 -0.607099585823E-01
 -0.376586850223E-01
 -0.825481731807E-02
  0.308879532484E-01
  0.738754231521E-01
 -0.525448537774E+00
 -0.354350566675E+00
 -0.302489085354E+00
 -0.282378312265E+00
 -0.269984062636E+00
 -0.262348953574E+00
 -0.258463619277E+00
 -0.257188495002E+00
 -0.257161247013E+00
 -0.256947267785E+00
 -0.255168609643E+00
 -0.250698523633E+00
 -0.242794414094E+00
 -0.231186415408E+00
 -0.216096008511E+00
 -0.198162331668E+00
 -0.178311958898E+00
 -0.157585244914E+00
 -0.136922170530E+00
 -0.116991792419E+00
 -0.979660632310E-01
 -0.792998856490E-01
 -0.596128309513E-01
 -0.366173760012E-01
 -0.730166989062E-02
  0.317238057237E-01
  0.745778970208E-01
 -0.530702658452E+00
 -0.358145747134E+00
 -0.305636028459E+00
 -0.285072686662E+00
 -0.272290655778E+00
 -0.264306820330E+00
 -0.260101236285E+00
 -0.258527420130E+00
 -0.258218206978E+00
 -0.257735873868E+00
 -0.255701291685E+00
 -0.250988386750E+00
 -0.242856293180E+00
 -0.231037698194E+00
 -0.215757161812E+00
 -0.197656495755E+00
 -0.177664517593E+00
 -0.156822681063E+00
 -0.136071643022E+00
 -0.116080707525E+00
 -0.970217517079E-01
 -0.783490467371E-01
 -0.586821379949E-01
 -0.357330927948E-01
 -0.648919922124E-02
  0.324411632214E-01
  0.751762334168E-01
 -0.535397693700E+00
 -0.361515531563E+00
 -0.308424100833E+00
 -0.287457767594E+00
 -0.274332095676E+00
 -0.266039945569E+00
 -0.261551440798E+00
 -0.259713994497E+00
 -0.259156184943E+00
 -0.258437516035E+00
 -0.256177765138E+00
 -0.251251398282E+00
 -0.242919173449E+00
 -0.230916257547E+00
 -0.215469763872E+00
 -0.197223928312E+00
 -0.177109379796E+00
 -0.156168876105E+00
 -0.135343201461E+00
 -0.115301078306E+00
 -0.962145369695E-01
 -0.775367140749E-01
 -0.578861721802E-01
 -0.349750818880E-01
 -0.578977772721E-02
  0.330613287566E-01
  0.756978242582E-01
 -0.539617392715E+00
 -0.364523407177E+00
 -0.310905796903E+00
 -0.289577852984E+00
 -0.276145140964E+00
 -0.267578557801E+00
 -0.262839207567E+00
 -0.260768344361E+00
 -0.259990495344E+00
 -0.259063161862E+00
 -0.256604662462E+00
 -0.251490326366E+00
 -0.242982409329E+00
 -0.230817645466E+00
 -0.215225908305E+00
 -0.196853593172E+00
 -0.176632744170E+00
 -0.155606700885E+00
 -0.134716704065E+00
 -0.114630911472E+00
 -0.955202525282E-01
 -0.768370724072E-01
 -0.571992243588E-01
 -0.343185748899E-01
 -0.518077335066E-02
  0.336029060569E-01
  0.761425599879E-01
 -0.543428292308E+00
 -0.367220879599E+00
 -0.313124131609E+00
 -0.291468997147E+00
 -0.277760646039E+00
 -0.268948814597E+00
 -0.263985594278E+00
 -0.261707222279E+00
 -0.260734318924E+00
 -0.259621943708E+00
 -0.256987797114E+00
 -0.251707498925E+00
 -0.243044561237E+00
 -0.230737616832E+00
 -0.215018503294E+00
 -0.196535288751E+00
 -0.176221589851E+00
 -0.155121100983E+00
 -0.134174777378E+00
 -0.114050598084E+00
 -0.949182287564E-01
 -0.762289869535E-01
 -0.565999897997E-01
 -0.337425186276E-01
 -0.464244882535E-02
  0.340860881073E-01
  0.765312804337E-01
 -0.546884968546E+00
 -0.369649591511E+00
 -0.315114217011E+00
 -0.293161939034E+00
 -0.279204523346E+00
 -0.270172245125E+00
 -0.265008763453E+00
 -0.262545017589E+00
 -0.261398230301E+00
 -0.260121554916E+00
 -0.257331618125E+00
 -0.251904424060E+00
 -0.243104459672E+00
 -0.230671904628E+00
 -0.214840595527E+00
 -0.196259843708E+00
 -0.175864321979E+00
 -0.154698327570E+00
 -0.133702189967E+00
 -0.113543440960E+00
 -0.943909180363E-01
 -0.756945764494E-01
 -0.560705209107E-01
 -0.332293334919E-01
 -0.415623107916E-02
  0.345376460511E-01
  0.769510210017E-01
 -0.550031424259E+00
 -0.371844333493E+00
 -0.316905462607E+00
 -0.294681746771E+00
 -0.280498445966E+00
 -0.271267192917E+00
 -0.265923508779E+00
 -0.263293662576E+00
 -0.261991570759E+00
 -0.260568155827E+00
 -0.257639682659E+00
 -0.252081834716E+00
 -0.243160207915E+00
 -0.230616415818E+00
 -0.214685700134E+00
 -0.196018653982E+00
 -0.175550534965E+00
 -0.154325991360E+00
 -0.133285412571E+00
 -0.113095268169E+00
 -0.939232644652E-01
 -0.752185281857E-01
 -0.555960375368E-01
 -0.327650478100E-01
 -0.370867243217E-02
  0.349667777300E-01
  0.773749591188E-01
 -0.552904216897E+00
 -0.373833123329E+00
 -0.318522229484E+00
 -0.296049783550E+00
 -0.281660497859E+00
 -0.272248695746E+00
 -0.266742561193E+00
 -0.263963023081E+00
 -0.262521494738E+00
 -0.260966861838E+00
 -0.257914269150E+00
 -0.252239941685E+00
 -0.243209906855E+00
 -0.230566917411E+00
 -0.214547666122E+00
 -0.195803582766E+00
 -0.175270535183E+00
 -0.153993562638E+00
 -0.132912630193E+00
 -0.112693306280E+00
 -0.935024456324E-01
 -0.747882623538E-01
 -0.551646007360E-01
 -0.323388874566E-01
 -0.329241201287E-02
  0.353734467408E-01
  0.777894203465E-01
 -0.555533356434E+00
 -0.375640103757E+00
 -0.319984986016E+00
 -0.297283339499E+00
 -0.282705772645E+00
 -0.273129705977E+00
 -0.267476088603E+00
 -0.264561345793E+00
 -0.262993835833E+00
 -0.261321211708E+00
 -0.258157300551E+00
 -0.252378286668E+00
 -0.243251027527E+00
 -0.230519291172E+00
 -0.214420616832E+00
 -0.195607251720E+00
 -0.175015822640E+00
 -0.153691304407E+00
 -0.132573400279E+00
 -0.112326829476E+00
 -0.931175967258E-01
 -0.743932580384E-01
 -0.547663366516E-01
 -0.319431728792E-01
 -0.290352302321E-02
  0.357545803411E-01
  0.781806078206E-01
 -0.557944253091E+00
 -0.377284780744E+00
 -0.321310463459E+00
 -0.298397526343E+00
 -0.283646919247E+00
 -0.273920528435E+00
 -0.268132365734E+00
 -0.265094995605E+00
 -0.263413492491E+00
 -0.261633842795E+00
 -0.258369482061E+00
 -0.252495963959E+00
 -0.243281059876E+00
 -0.230469311740E+00
 -0.214298801232E+00
 -0.195422782656E+00
 -0.174778380629E+00
 -0.153410556649E+00
 -0.132258225782E+00
 -0.111986162922E+00
 -0.927594164513E-01
 -0.740244711114E-01
 -0.543932419683E-01
 -0.315715551681E-01
 -0.253875344969E-02
  0.361060070277E-01
  0.785048431609E-01
 -0.560157481892E+00
 -0.378784062841E+00
 -0.322512913725E+00
 -0.299404175916E+00
 -0.284494127430E+00
 -0.274629751483E+00
 -0.268718536372E+00
 -0.265568842951E+00
 -0.263783640098E+00
 -0.261906724073E+00
 -0.258550757755E+00
 -0.252591607359E+00
 -0.243297129685E+00
 -0.230412518376E+00
 -0.214176707021E+00
 -0.195243699584E+00
 -0.174550855513E+00
 -0.153142946187E+00
 -0.131958926919E+00
 -0.111662895460E+00
 -0.924192703457E-01
 -0.736738536340E-01
 -0.540382008782E-01
 -0.312177940837E-01
 -0.219282794832E-02
  0.364354255849E-01
  0.788036759691E-01
 -0.562190934715E+00
 -0.380151317840E+00
 -0.323604025141E+00
 -0.300313526784E+00
 -0.285255879176E+00
 -0.275264087468E+00
 -0.269239822155E+00
 -0.265987045933E+00
 -0.264106381238E+00
 -0.262140502794E+00
 -0.258700867100E+00
 -0.252663189443E+00
 -0.243295889847E+00
 -0.230344696284E+00
 -0.214049071930E+00
 -0.195063623972E+00
 -0.174326107316E+00
 -0.152881279629E+00
 -0.131667798161E+00
 -0.111349151083E+00
 -0.920895000031E-01
 -0.733340490850E-01
 -0.536941292664E-01
 -0.308751702762E-01
 -0.185757055178E-02
  0.367554203561E-01
  0.790970234833E-01
 -0.564059110989E+00
 -0.381397812462E+00
 -0.324593378676E+00
 -0.301133495934E+00
 -0.285938763800E+00
 -0.275829196319E+00
 -0.269699969722E+00
 -0.266352144004E+00
 -0.264383385501E+00
 -0.262335138109E+00
 -0.258818357857E+00
 -0.252708407751E+00
 -0.243273895045E+00
 -0.230261132094E+00
 -0.213910338561E+00
 -0.194876449984E+00
 -0.174097457698E+00
 -0.152618333324E+00
 -0.131377270773E+00
 -0.111037706623E+00
 -0.917629059028E-01
 -0.729980146804E-01
 -0.533540178487E-01
 -0.305362303885E-01
 -0.152482103512E-02
  0.370767141107E-01
  0.793974550016E-01
 -0.565773010118E+00
 -0.382533103616E+00
 -0.325488508811E+00
 -0.301870720941E+00
 -0.286548299691E+00
 -0.276328860503E+00
 -0.270102014887E+00
 -0.266665577680E+00
 -0.264614973117E+00
 -0.262490163460E+00
 -0.258901458329E+00
 -0.252724193815E+00
 -0.243227205025E+00
 -0.230157162553E+00
 -0.213754939183E+00
 -0.194676063751E+00
 -0.173858422283E+00
 -0.152347133174E+00
 -0.131080411443E+00
 -0.110721248963E+00
 -0.914326332121E-01
 -0.726588463321E-01
 -0.530112615016E-01
 -0.301944911359E-01
 -0.118792628084E-02
  0.374085389521E-01
  0.797413934854E-01
 -0.567342335169E+00
 -0.383564313926E+00
 -0.326295818426E+00
 -0.302530255119E+00
 -0.287088196646E+00
 -0.276765979773E+00
 -0.270447731365E+00
 -0.266928103485E+00
 -0.264800663728E+00
 -0.262603945935E+00
 -0.258947663253E+00
 -0.252707103087E+00
 -0.243151345828E+00
 -0.230027664291E+00
 -0.213577193383E+00
 -0.194455846950E+00
 -0.173602132241E+00
 -0.152060848239E+00
 -0.130770280121E+00
 -0.110392783328E+00
 -0.910912824170E-01
 -0.723099486118E-01
 -0.526596074485E-01
 -0.298444753061E-01
 -0.843361753660E-03
  0.377460267827E-01
  0.800835748751E-01
 -0.568774953533E+00
 -0.384497699998E+00
 -0.327019850335E+00
 -0.303115714685E+00
 -0.287561301884E+00
 -0.277142156167E+00
 -0.270737705018E+00
 -0.267139502995E+00
 -0.264939169820E+00
 -0.262674117913E+00
 -0.258953685724E+00
 -0.252653040237E+00
 -0.243041496227E+00
 -0.229866839315E+00
 -0.213370684449E+00
 -0.194209399033E+00
 -0.173321617458E+00
 -0.151752235548E+00
 -0.130439351549E+00
 -0.110045244619E+00
 -0.907321556700E-01
 -0.719446903919E-01
 -0.522928611812E-01
 -0.294809786296E-01
 -0.488792041737E-03
  0.380827363744E-01
  0.803713831795E-01
 -0.570074977147E+00
 -0.385336592490E+00
 -0.327664265071E+00
 -0.303629535917E+00
 -0.287969071552E+00
 -0.277458283311E+00
 -0.270971690079E+00
 -0.267298324889E+00
 -0.265028248562E+00
 -0.262697621706E+00
 -0.258915510399E+00
 -0.252557100855E+00
 -0.242892056736E+00
 -0.229668515686E+00
 -0.213128694875E+00
 -0.193929462905E+00
 -0.173009493530E+00
 -0.151413688683E+00
 -0.130080201872E+00
 -0.109671081416E+00
 -0.903482399132E-01
 -0.715561666348E-01
 -0.519047485578E-01
 -0.290984911130E-01
 -0.117115595897E-03
  0.384382390944E-01
  0.806992798319E-01
 -0.571246291706E+00
 -0.386084611042E+00
 -0.328230761375E+00
 -0.304073308230E+00
 -0.288312094302E+00
 -0.277713544595E+00
 -0.271148379118E+00
 -0.267402510339E+00
 -0.265064626624E+00
 -0.262670368787E+00
 -0.258828183488E+00
 -0.252413553733E+00
 -0.242696449716E+00
 -0.229425633830E+00
 -0.212843787002E+00
 -0.193608060090E+00
 -0.172657610310E+00
 -0.151037130090E+00
 -0.129684661690E+00
 -0.109262305896E+00
 -0.899318861536E-01
 -0.711373521158E-01
 -0.514887900530E-01
 -0.286903451948E-01
  0.279518866315E-03
  0.388266754161E-01
  0.811174770687E-01
 -0.572291485220E+00
 -0.386743170495E+00
 -0.328720490580E+00
 -0.304447046340E+00
 -0.288589730742E+00
 -0.277906836924E+00
 -0.271265238808E+00
 -0.267448622840E+00
 -0.265044137048E+00
 -0.262587104004E+00
 -0.258685651201E+00
 -0.252215491024E+00
 -0.242447167596E+00
 -0.229129957486E+00
 -0.212507250624E+00
 -0.193236347710E+00
 -0.172256712824E+00
 -0.150613298082E+00
 -0.129243706243E+00
 -0.108810271995E+00
 -0.894747443968E-01
 -0.706804894832E-01
 -0.510381024177E-01
 -0.282516349873E-01
  0.702087900692E-03
  0.392321087177E-01
  0.815178199841E-01
 -0.573209919205E+00
 -0.387312811747E+00
 -0.329133230007E+00
 -0.304749852007E+00
 -0.288800348993E+00
 -0.278035459643E+00
 -0.271318789651E+00
 -0.267432090550E+00
 -0.264961365831E+00
 -0.262441380515E+00
 -0.258480525367E+00
 -0.251954708862E+00
 -0.242135234274E+00
 -0.228772122444E+00
 -0.212109110135E+00
 -0.192804006462E+00
 -0.171796632237E+00
 -0.150131873620E+00
 -0.128747396659E+00
 -0.108305329716E+00
 -0.889675109889E-01
 -0.701773227087E-01
 -0.505458199235E-01
 -0.277779334652E-01
  0.114873263548E-02
  0.396411989128E-01
  0.818889673077E-01
 -0.574000066117E+00
 -0.387792466091E+00
 -0.329467879046E+00
 -0.304979759541E+00
 -0.288940973216E+00
 -0.278095581233E+00
 -0.271304110036E+00
 -0.267347064042E+00
 -0.264809250411E+00
 -0.262225180845E+00
 -0.258203785821E+00
 -0.251621336498E+00
 -0.241750030913E+00
 -0.228340683419E+00
 -0.211637757850E+00
 -0.192299290117E+00
 -0.171265195455E+00
 -0.149580963193E+00
 -0.128184176303E+00
 -0.107736237499E+00
 -0.883995345104E-01
 -0.696182014291E-01
 -0.500034289268E-01
 -0.272625975585E-01
  0.162290609321E-02
  0.400494632106E-01
  0.821692222258E-01
 -0.574658911402E+00
 -0.388180056727E+00
 -0.329721734906E+00
 -0.305133540358E+00
 -0.289007340160E+00
 -0.278081871206E+00
 -0.271215004098E+00
 -0.267185878988E+00
 -0.264578993370E+00
 -0.261928524322E+00
 -0.257844317680E+00
 -0.251203401135E+00
 -0.241278762177E+00
 -0.227822235113E+00
 -0.211079100531E+00
 -0.191707806777E+00
 -0.170648353078E+00
 -0.148946886162E+00
 -0.127540064658E+00
 -0.107089693889E+00
 -0.877585825895E-01
 -0.689909421507E-01
 -0.493994594761E-01
 -0.266934955792E-01
  0.214051451760E-02
  0.404864440064E-01
  0.824489430440E-01
 -0.575180843842E+00
 -0.388471908620E+00
 -0.329891095042E+00
 -0.305206343949E+00
 -0.288993925011E+00
 -0.277987480681E+00
 -0.271043159456E+00
 -0.266939021238E+00
 -0.264259476812E+00
 -0.261539116318E+00
 -0.257388550911E+00
 -0.250686050312E+00
 -0.240705648120E+00
 -0.227200450376E+00
 -0.210416395925E+00
 -0.191012762681E+00
 -0.169929594944E+00
 -0.148212650262E+00
 -0.126799231607E+00
 -0.106350435652E+00
 -0.870295093574E-01
 -0.682811645970E-01
 -0.487189383109E-01
 -0.260536027812E-01
  0.272673869919E-02
  0.410031179549E-01
  0.828784019609E-01
 -0.575559604573E+00
 -0.388663046382E+00
 -0.329970613972E+00
 -0.305192341890E+00
 -0.288893076928E+00
 -0.277803588366E+00
 -0.270778120256E+00
 -0.266594318950E+00
 -0.263836817955E+00
 -0.261041305174E+00
 -0.256819463388E+00
 -0.250050930521E+00
 -0.240011424001E+00
 -0.226455244372E+00
 -0.209629372398E+00
 -0.190193648039E+00
 -0.169088439586E+00
 -0.147358864809E+00
 -0.125942339442E+00
 -0.105500227515E+00
 -0.861946972477E-01
 -0.674718111272E-01
 -0.479449053148E-01
 -0.253249771537E-01
  0.340043691235E-02
  0.416182858178E-01
  0.834580287937E-01
 -0.575786239862E+00
 -0.388748026522E+00
 -0.329953818534E+00
 -0.305083414474E+00
 -0.288695436224E+00
 -0.277518755099E+00
 -0.270406264644E+00
 -0.266136157162E+00
 -0.263293567228E+00
 -0.260415520108E+00
 -0.256115531417E+00
 -0.249275135172E+00
 -0.239171972876E+00
 -0.225561946418E+00
 -0.208693000140E+00
 -0.189225614077E+00
 -0.168100179358E+00
 -0.146361854587E+00
 -0.124947047155E+00
 -0.104517120349E+00
 -0.852340897234E-01
 -0.665436997038E-01
 -0.470597221351E-01
 -0.244927891991E-01
  0.416984379551E-02
  0.423163086918E-01
  0.840743894446E-01
 -0.575847016579E+00
 -0.388717538496E+00
 -0.329831906986E+00