# vtk DataFile Version 3.0
MachLine results file. Generated by MachLine, USU AeroLab (c) 2022.
ASCII
DATASET POLYDATA
POINTS                3261 float
  0.298214528383E-06  0.000000000000E+00  0.000000000000E+00
  0.138133892640E-01  0.239258433692E-01  0.000000000000E+00
  0.184379686188E-01  0.000000000000E+00 -0.191641562204E-01
  0.184379686188E-01  0.000000000000E+00  0.191641562204E-01
  0.276265075031E-01  0.478518432084E-01 -0.747378628642E-23
  0.320897298871E-01  0.239259157417E-01 -0.189964373284E-01
  0.320897298871E-01  0.239259157417E-01  0.189964373284E-01
  0.414396257462E-01  0.717778449078E-01  0.148842423607E-22
  0.457415391287E-01  0.478519072243E-01 -0.188287599948E-01
  0.457415391287E-01  0.478519072243E-01  0.188287599948E-01
  0.460615330270E-01  0.000000000000E+00 -0.248099907251E-01
  0.460615330270E-01  0.000000000000E+00  0.248099907251E-01
  0.552527439932E-01  0.957038428796E-01  0.741056661933E-23
  0.593933304073E-01  0.717779086641E-01 -0.186610784995E-01
  0.593933304073E-01  0.717779086641E-01  0.186610784995E-01
  0.594716297211E-01  0.239259668046E-01 -0.245928752038E-01
  0.594716297211E-01  0.239259668046E-01  0.245928752038E-01
  0.690658659695E-01  0.119629848299E+00  0.000000000000E+00
  0.728817306689E-01  0.478519603370E-01 -0.243757587561E-01
  0.728817306689E-01  0.478519603370E-01  0.243757587561E-01
  0.730451254126E-01  0.957039063778E-01 -0.184933970017E-01
  0.730451254126E-01  0.957039063778E-01  0.184933970017E-01
  0.740516258253E-01  0.000000000000E+00 -0.284876063169E-01
  0.740516258253E-01  0.000000000000E+00  0.284876063169E-01
  0.828789804994E-01  0.143555846267E+00  0.000000000000E+00
  0.862918292426E-01  0.717779615494E-01 -0.241586784302E-01
  0.862918292426E-01  0.717779615494E-01  0.241586784302E-01
  0.866969204193E-01  0.119629911541E+00 -0.183257155013E-01
  0.866969204193E-01  0.119629911541E+00  0.183257155013E-01
  0.872168173389E-01  0.239259748810E-01 -0.282383137083E-01
  0.872168173389E-01  0.239259748810E-01  0.282383137083E-01
  0.966921024840E-01  0.167481851683E+00 -0.731657992931E-23
  0.997019278164E-01  0.957039590363E-01 -0.239415981032E-01
  0.997019278164E-01  0.957039590363E-01  0.239415981032E-01
  0.100348715427E+00  0.143555909253E+00 -0.181580339984E-01
  0.100348715427E+00  0.143555909253E+00  0.181580339984E-01
  0.100382013705E+00  0.478519706602E-01 -0.279890194378E-01
  0.100382013705E+00  0.478519706602E-01  0.279890194378E-01
  0.102138354419E+00  0.000000000000E+00 -0.313411313705E-01
  0.102138354419E+00  0.000000000000E+00  0.313411313705E-01
  0.110505217022E+00  0.191407842194E+00 -0.145709608819E-22
  0.113112026390E+00  0.119629963973E+00 -0.237245177748E-01
  0.113112026390E+00  0.119629963973E+00  0.237245177748E-01
  0.113547211777E+00  0.717779718267E-01 -0.277397619338E-01
  0.113547211777E+00  0.717779718267E-01  0.277397619338E-01
  0.114000510436E+00  0.167481914416E+00 -0.179903543556E-01
  0.114000510436E+00  0.167481914416E+00  0.179903543556E-01
  0.115057795949E+00  0.239259793579E-01 -0.310668702452E-01
  0.115057795949E+00  0.239259793579E-01  0.310668702452E-01
  0.124318339015E+00  0.215333847605E+00 -0.725449927715E-23
  0.126522124965E+00  0.143555961460E+00 -0.235074374452E-01
  0.126522124965E+00  0.143555961460E+00  0.235074374452E-01
  0.126712394948E+00  0.957039692679E-01 -0.274905025659E-01
  0.126712394948E+00  0.957039692679E-01  0.274905025659E-01
  0.127652305448E+00  0.191407904675E+00 -0.178226728475E-01
  0.127652305448E+00  0.191407904675E+00  0.178226728475E-01
  0.127977241034E+00  0.478519758813E-01 -0.307926093697E-01
  0.127977241034E+00  0.478519758813E-01  0.307926093697E-01
  0.130280606856E+00  0.000000000000E+00 -0.335861212265E-01
  0.130280606856E+00  0.000000000000E+00  0.335861212265E-01
  0.138131461012E+00  0.239259853013E+00 -0.144472723097E-22
  0.139877585569E+00  0.119629974159E+00 -0.272412450594E-01
  0.139877585569E+00  0.119629974159E+00  0.272412450594E-01
  0.139932216089E+00  0.167481966398E+00 -0.232903571145E-01
  0.139932216089E+00  0.167481966398E+00  0.232903571145E-01
  0.140896681748E+00  0.717779770246E-01 -0.305183831127E-01
  0.140896681748E+00  0.717779770246E-01  0.305183831127E-01
  0.141304093009E+00  0.215333909835E+00 -0.176549913366E-01
  0.141304093009E+00  0.215333909835E+00  0.176549913366E-01
  0.142953806613E+00  0.239259826516E-01 -0.332922151729E-01
  0.142953806613E+00  0.239259826516E-01  0.332922151729E-01
  0.151944583013E+00  0.263185858419E+00  0.719289120028E-23
  0.153042791092E+00  0.143555971600E+00 -0.269919856891E-01
  0.153042791092E+00  0.143555971600E+00  0.269919856891E-01
  0.153342307213E+00  0.191407956434E+00 -0.230732767824E-01
  0.153342307213E+00  0.191407956434E+00  0.230732767824E-01
  0.153816137362E+00  0.957039744426E-01 -0.302441587169E-01
  0.153816137362E+00  0.957039744426E-01  0.302441587169E-01
  0.154955895473E+00  0.239259914995E+00 -0.174873098232E-01
  0.154955895473E+00  0.239259914995E+00  0.174873098232E-01
  0.155627023945E+00  0.478519797082E-01 -0.329983131403E-01
  0.155627023945E+00  0.478519797082E-01  0.329983131403E-01
  0.158455866793E+00  0.000000000000E+00 -0.353709671003E-01
  0.158455866793E+00  0.000000000000E+00  0.353709671003E-01
  0.165757690118E+00  0.287111848920E+00  0.716227050957E-23
  0.166207981715E+00  0.167481976492E+00 -0.267427281802E-01
  0.166207981715E+00  0.167481976492E+00  0.267427281802E-01
  0.166735578077E+00  0.119629979311E+00 -0.299699324574E-01
  0.166735578077E+00  0.119629979311E+00  0.299699324574E-01
  0.166752413239E+00  0.215333961370E+00 -0.228561964490E-01
  0.166752413239E+00  0.215333961370E+00  0.228561964490E-01
  0.168300223001E+00  0.717779808344E-01 -0.327044452926E-01
  0.168300223001E+00  0.717779808344E-01  0.327044452926E-01
  0.168607683038E+00  0.263185920153E+00 -0.173196283071E-01
  0.168607683038E+00  0.263185920153E+00  0.173196283071E-01
  0.170882541601E+00  0.239259851651E-01 -0.350614488291E-01
  0.170882541601E+00  0.239259851651E-01  0.350614488291E-01
  0.179373172337E+00  0.191407966482E+00 -0.264934688071E-01
  0.179373172337E+00  0.191407966482E+00  0.264934688071E-01
  0.179570812129E+00  0.311037839420E+00  0.713177307499E-23
  0.179655018790E+00  0.143555976729E+00 -0.296957061966E-01
  0.179655018790E+00  0.143555976729E+00  0.296957061966E-01
  0.180162504363E+00  0.239259966308E+00 -0.226391161144E-01
  0.180162504363E+00  0.239259966308E+00  0.226391161144E-01
  0.180973436959E+00  0.957039782354E-01 -0.324105737185E-01
  0.180973436959E+00  0.957039782354E-01  0.324105737185E-01
  0.182259485505E+00  0.287111910410E+00 -0.171519467882E-01
  0.182259485505E+00  0.287111910410E+00  0.171519467882E-01
  0.183309233419E+00  0.478519826054E-01 -0.347519308964E-01
  0.183309233419E+00  0.478519826054E-01  0.347519308964E-01
  0.186651840225E+00  0.000000000000E+00 -0.367912449661E-01
  0.186651840225E+00  0.000000000000E+00  0.367912449661E-01
  0.192538362959E+00  0.215333971373E+00 -0.262442112956E-01
  0.192538362959E+00  0.215333971373E+00  0.262442112956E-01
  0.192574459505E+00  0.167481981598E+00 -0.294214799346E-01
  0.192574459505E+00  0.167481981598E+00  0.294214799346E-01
  0.193383934144E+00  0.334963859719E+00  0.000000000000E+00
  0.193572595488E+00  0.263185971244E+00 -0.224220357784E-01
  0.193572595488E+00  0.263185971244E+00  0.224220357784E-01
  0.193646636016E+00  0.119629983087E+00 -0.321167058683E-01
  0.193646636016E+00  0.119629983087E+00  0.321167058683E-01
  0.195735907690E+00  0.717779837188E-01 -0.344424429076E-01
  0.195735907690E+00  0.717779837188E-01  0.344424429076E-01
  0.195911273073E+00  0.311037900666E+00 -0.169842652664E-01
  0.195911273073E+00  0.311037900666E+00  0.169842652664E-01
  0.198831811194E+00  0.239259872167E-01 -0.364692996475E-01
  0.198831811194E+00  0.239259872167E-01  0.364692996475E-01
  0.205493900218E+00  0.191407971564E+00 -0.291472536711E-01
  0.205493900218E+00  0.191407971564E+00  0.291472536711E-01
  0.205703553582E+00  0.239259976265E+00 -0.259949519201E-01
  0.205703553582E+00  0.239259976265E+00  0.259949519201E-01
  0.206319849975E+00  0.143555980488E+00 -0.318228380168E-01
  0.206319849975E+00  0.143555980488E+00  0.318228380168E-01
  0.206982701514E+00  0.287111961279E+00 -0.222049554411E-01
  0.206982701514E+00  0.287111961279E+00  0.222049554411E-01
  0.207197056163E+00  0.358889850213E+00  0.707114725724E-23
  0.208162596862E+00  0.957039811068E-01 -0.341329586428E-01
  0.208162596862E+00  0.957039811068E-01  0.341329586428E-01
  0.209563075543E+00  0.334963920723E+00 -0.168165856045E-01
  0.209563075543E+00  0.334963920723E+00  0.168165856045E-01
  0.211011798873E+00  0.478519849367E-01 -0.361473547085E-01
  0.211011798873E+00  0.478519849367E-01  0.361473547085E-01
  0.214861880791E+00  0.000000000000E+00 -0.378983190876E-01
  0.214861880791E+00  0.000000000000E+00  0.378983190876E-01
  0.218413340933E+00  0.215333976432E+00 -0.288730292689E-01
  0.218413340933E+00  0.215333976432E+00  0.288730292689E-01
  0.218868744205E+00  0.263185981155E+00 -0.257456944058E-01
  0.218868744205E+00  0.263185981155E+00  0.257456944058E-01
  0.218993049032E+00  0.167481985339E+00 -0.315289701641E-01
  0.218993049032E+00  0.167481985339E+00  0.315289701641E-01
  0.220392792639E+00  0.311037951315E+00 -0.219878751024E-01
  0.220392792639E+00  0.311037951315E+00  0.219878751024E-01
  0.220589271132E+00  0.119629985945E+00 -0.338234743767E-01
  0.220589271132E+00  0.119629985945E+00  0.338234743767E-01
  0.221010163286E+00  0.382815840705E+00  0.000000000000E+00
  0.223191769539E+00  0.717779860397E-01 -0.358254428769E-01
  0.223191769539E+00  0.717779860397E-01  0.358254428769E-01
  0.223214863113E+00  0.358889910976E+00 -0.166489040771E-01
  0.223214863113E+00  0.358889910976E+00  0.166489040771E-01
  0.226795028635E+00  0.239259890457E-01 -0.375666848384E-01
  0.226795028635E+00  0.239259890457E-01  0.375666848384E-01
[...]
POINT_DATA                3261
SCALARS phi float 1
LOOKUP_TABLE default
  0.000000000000E+00
 -0.971445146547E-16
  0.107552855511E-15
  0.138777878078E-16
 -0.208166817117E-15
  0.298372437868E-15
 -0.416333634234E-16
 -0.277555756156E-16
 -0.277555756156E-16
 -0.555111512313E-16
 -0.624500451352E-16
  0.346944695195E-16
 -0.111022302463E-15
  0.416333634234E-16
  0.142247325030E-15
  0.208166817117E-16
 -0.451028103754E-16
 -0.485722573274E-16
  0.173472347598E-16
  0.416333634234E-16
  0.832667268469E-16
 -0.555111512313E-16
 -0.104083408559E-15
  0.728583859910E-16
  0.201227923213E-15
  0.242861286637E-16
 -0.277555756156E-16
 -0.170002900646E-15
  0.693889390391E-16
 -0.693889390391E-17
  0.416333634234E-16
 -0.763278329430E-16
  0.693889390391E-17
  0.277555756156E-16
  0.867361737988E-16
 -0.312250225676E-16
 -0.277555756156E-16
 -0.936750677027E-16
 -0.208166817117E-16
  0.277555756156E-16
 -0.693889390391E-17
 -0.180411241502E-15
 -0.867361737988E-16
  0.312250225676E-16
  0.346944695195E-16
  0.416333634234E-16
  0.416333634234E-16
 -0.104083408559E-16
 -0.131838984174E-15
 -0.659194920871E-16
 -0.763278329430E-16
  0.000000000000E+00
 -0.173472347598E-16
  0.312250225676E-16
 -0.485722573274E-16
  0.208166817117E-16
 -0.277555756156E-16
  0.138777878078E-16
 -0.104083408559E-16
  0.242861286637E-16
  0.693889390391E-16
 -0.971445146547E-16
 -0.624500451352E-16
  0.138777878078E-15
 -0.104083408559E-16
 -0.173472347598E-16
  0.485722573274E-16
 -0.104083408559E-15
 -0.728583859910E-16
 -0.936750677027E-16
  0.346944695195E-17
  0.589805981832E-16
 -0.163064006742E-15
 -0.145716771982E-15
 -0.693889390391E-16
 -0.693889390391E-16
 -0.312250225676E-16
 -0.693889390391E-16
 -0.867361737988E-16
  0.520417042793E-16
  0.971445146547E-16
  0.520417042793E-16
 -0.104083408559E-16
 -0.346944695195E-16
 -0.693889390391E-16
 -0.902056207508E-16
  0.131838984174E-15
  0.208166817117E-16
  0.659194920871E-16
 -0.381639164715E-16
 -0.485722573274E-16
 -0.201227923213E-15
  0.208166817117E-16
  0.111022302463E-15
  0.277555756156E-16
  0.659194920871E-16
  0.104083408559E-15
 -0.485722573274E-16
 -0.693889390391E-17
  0.693889390391E-17
  0.555111512313E-16
  0.107552855511E-15
  0.693889390391E-16
 -0.763278329430E-16
 -0.104083408559E-16
  0.135308431126E-15
 -0.659194920871E-16
  0.277555756156E-16
 -0.902056207508E-16
 -0.242861286637E-16
 -0.277555756156E-16
  0.312250225676E-16
  0.104083408559E-16
 -0.451028103754E-16
 -0.208166817117E-16
  0.312250225676E-16
  0.381639164715E-16
  0.451028103754E-16
  0.138777878078E-16
  0.624500451352E-16
  0.624500451352E-16
  0.173472347598E-16
 -0.867361737988E-16
 -0.117961196366E-15
 -0.277555756156E-16
 -0.693889390391E-16
 -0.381639164715E-16
  0.693889390391E-17
  0.208166817117E-16
 -0.451028103754E-16
  0.485722573274E-16
 -0.451028103754E-16
  0.173472347598E-15
 -0.485722573274E-16
  0.131838984174E-15
  0.381639164715E-16
 -0.211636264069E-15
 -0.693889390391E-17
  0.346944695195E-17
 -0.832667268469E-16
  0.624500451352E-16
  0.867361737988E-17
 -0.659194920871E-16
  0.173472347598E-16
 -0.381639164715E-16
 -0.208166817117E-16
  0.138777878078E-16
 -0.555111512313E-16
  0.451028103754E-16
  0.693889390391E-17
  0.693889390391E-17
 -0.312250225676E-16
 -0.763278329430E-16
 -0.277555756156E-16
 -0.208166817117E-15
  0.121430643318E-15
 -0.364291929955E-16
  0.242861286637E-16
 -0.312250225676E-16
  0.693889390391E-16
  0.503069808033E-16
  0.138777878078E-15
  0.416333634234E-16
 -0.156125112838E-15
  0.346944695195E-17
 -0.346944695195E-17
  0.312250225676E-16
  0.156125112838E-15
  0.451028103754E-16
  0.797972798949E-16
  0.763278329430E-16
 -0.346944695195E-16
 -0.485722573274E-16
  0.867361737988E-17
 -0.763278329430E-16
 -0.693889390391E-16
 -0.381639164715E-16
 -0.208166817117E-16
  0.157859836314E-15
  0.173472347598E-17
  0.159594559790E-15
 -0.416333634234E-16
  0.124900090270E-15
 -0.520417042793E-16
 -0.138777878078E-16
 -0.242861286637E-16
  0.117961196366E-15
  0.572458747072E-16
 -0.173472347598E-16
  0.346944695195E-16
  0.555111512313E-16
 -0.173472347598E-17
  0.312250225676E-16
  0.111022302463E-15
  0.176941794550E-15
  0.676542155631E-16
 -0.312250225676E-16
  0.156125112838E-16
  0.520417042793E-17
  0.416333634234E-16
 -0.659194920871E-16
  0.138777878078E-15
  0.936750677027E-16
  0.832667268469E-16
  0.346944695195E-17
 -0.208166817117E-16
  0.104083408559E-16
  0.138777878078E-16
  0.468375338514E-16
 -0.555111512313E-16
  0.346944695195E-16
 -0.312250225676E-16
  0.242861286637E-16
 -0.381639164715E-16
 -0.728583859910E-16
 -0.659194920871E-16
  0.346944695195E-16
 -0.711236625150E-16
  0.100613961607E-15
  0.138777878078E-16
 -0.659194920871E-16
  0.971445146547E-16
  0.381639164715E-16
  0.260208521397E-16
 -0.260208521397E-16
 -0.520417042793E-17
  0.277555756156E-16
  0.659194920871E-16
  0.728583859910E-16
 -0.867361737988E-17
 -0.763278329430E-16
 -0.138777878078E-16
 -0.225514051877E-16
  0.312250225676E-16
  0.000000000000E+00
  0.180411241502E-15
 -0.346944695195E-17
 -0.850014503229E-16
 -0.277555756156E-16
 -0.728583859910E-16
 -0.173472347598E-17
  0.121430643318E-15
  0.797972798949E-16
  0.988792381307E-16
 -0.346944695195E-17
 -0.208166817117E-16
  0.451028103754E-16
 -0.142247325030E-15
  0.104083408559E-16
  0.107552855511E-15
  0.693889390391E-17
  0.503069808033E-16
  0.190819582357E-16
  0.555111512313E-16
 -0.659194920871E-16
 -0.797972798949E-16
  0.485722573274E-16
  0.797972798949E-16
  0.277555756156E-16
 -0.589805981832E-16
 -0.346944695195E-16
  0.260208521397E-16
  0.107552855511E-15
 -0.260208521397E-16
 -0.138777878078E-15
  0.555111512313E-16
 -0.902056207508E-16
  0.312250225676E-16
  0.277555756156E-16
  0.607153216592E-16
  0.000000000000E+00
  0.693889390391E-16
 -0.156125112838E-16
  0.000000000000E+00
  0.364291929955E-16
 -0.130104260698E-16
 -0.100613961607E-15
  0.138777878078E-16
 -0.173472347598E-17
  0.190819582357E-16
 -0.832667268469E-16
 -0.277555756156E-16
 -0.111022302463E-15
  0.346944695195E-16
 -0.208166817117E-16
  0.346944695195E-16
  0.225514051877E-16
  0.346944695195E-17
  0.867361737988E-17
  0.346944695195E-17
 -0.138777878078E-16
  0.659194920871E-16
  0.797972798949E-16
  0.693889390391E-17
 -0.398986399475E-16
 -0.277555756156E-16
 -0.173472347598E-17
  0.902056207508E-16
 -0.242861286637E-16
 -0.260208521397E-16
 -0.208166817117E-16
 -0.971445146547E-16
 -0.728583859910E-16
  0.398986399475E-16
  0.459701721134E-16
 -0.555111512313E-16
  0.693889390391E-16
 -0.346944695195E-17
  0.693889390391E-17
 -0.520417042793E-16
 -0.797972798949E-16
 -0.398986399475E-16
 -0.624500451352E-16
 -0.503069808033E-16
  0.693889390391E-17
  0.520417042793E-16
 -0.104083408559E-16
 -0.494396190653E-16
  0.163064006742E-15
 -0.156125112838E-16
 -0.520417042793E-16
 -0.346944695195E-17
 -0.555111512313E-16
  0.216840434497E-16
  0.485722573274E-16
 -0.124900090270E-15
 -0.433680868994E-16
  0.433680868994E-17
  0.000000000000E+00
  0.147451495458E-16
  0.104083408559E-16
 -0.451028103754E-16
 -0.131838984174E-15
 -0.659194920871E-16
 -0.173472347598E-16
 -0.936750677027E-16
  0.104083408559E-16
  0.381639164715E-16
  0.104083408559E-16
  0.260208521397E-16
  0.693889390391E-17
  0.104083408559E-16
 -0.364291929955E-16
  0.104083408559E-15
 -0.138777878078E-16
 -0.624500451352E-16
  0.000000000000E+00
 -0.520417042793E-16
  0.520417042793E-16
  0.260208521397E-17
 -0.433680868994E-18
 -0.867361737988E-17
  0.338271077815E-16
 -0.277555756156E-16
  0.797972798949E-16
 -0.737257477290E-16
 -0.954097911787E-16
 -0.433680868994E-16
 -0.225514051877E-16
 -0.954097911787E-16
  0.346944695195E-17
  0.107552855511E-15
  0.104083408559E-16
 -0.693889390391E-17
  0.173472347598E-16
  0.000000000000E+00
  0.346944695195E-17
 -0.346944695195E-17
  0.728583859910E-16
 -0.451028103754E-16
  0.346944695195E-16
 -0.112757025938E-16
 -0.320923843056E-16
 -0.390312782095E-17
 -0.485722573274E-16
  0.520417042793E-16
  0.520417042793E-16
  0.121430643318E-16
 -0.346944695195E-16
 -0.346944695195E-16
  0.407660016855E-16
  0.108420217249E-16
  0.286229373536E-16
 -0.153956708493E-16
 -0.104083408559E-16
  0.190819582357E-16
 -0.329597460436E-16
  0.260208521397E-16
 -0.520417042793E-17
 -0.173472347598E-16
  0.902056207508E-16
  0.867361737988E-17
 -0.867361737988E-16
 -0.114491749414E-15
 -0.111022302463E-15
 -0.346944695195E-17
 -0.138777878078E-16
  0.138777878078E-16
  0.277555756156E-16
  0.303576608296E-16
  0.997465998687E-17
 -0.104083408559E-16
  0.130104260698E-16
  0.520417042793E-16
  0.346944695195E-16
  0.164798730218E-16
  0.737257477290E-17
 -0.511743425413E-16
 -0.758941520740E-17
  0.242861286637E-16
 -0.312250225676E-16
  0.000000000000E+00
  0.208166817117E-16
  0.242861286637E-16
  0.173472347598E-16
  0.693889390391E-17
 -0.225514051877E-16
 -0.520417042793E-16
  0.156125112838E-16
  0.693889390391E-17
  0.247198095327E-16
  0.173472347598E-17
 -0.104083408559E-16
 -0.555111512313E-16
  0.832667268469E-16
  0.797972798949E-16
  0.000000000000E+00
  0.346944695195E-17
 -0.312250225676E-16
  0.425007251614E-16
 -0.555111512313E-16
  0.520417042793E-16
 -0.182145964978E-16
  0.136067372647E-16
 -0.173472347598E-16
  0.260208521397E-16
 -0.416333634234E-16
  0.312250225676E-16
  0.109287578987E-15
  0.156125112838E-16
  0.156125112838E-16
 -0.693889390391E-17
  0.919403442268E-16
  0.173472347598E-16
  0.112757025938E-16
 -0.223345647532E-16
 -0.346944695195E-17
 -0.138777878078E-16
  0.242861286637E-16
 -0.346944695195E-17
  0.485722573274E-16
  0.672205346941E-17
 -0.121430643318E-16
 -0.121430643318E-16
 -0.104083408559E-16
 -0.138777878078E-16
  0.170002900646E-15
  0.902056207508E-16
 -0.138777878078E-16
  0.472712147204E-16
  0.547522097105E-16
  0.156125112838E-16
 -0.143114686768E-16
  0.131838984174E-15
 -0.346944695195E-17
  0.138777878078E-16
  0.748099499015E-17
 -0.693889390391E-16
  0.190819582357E-16
 -0.572458747072E-16
 -0.208166817117E-16
 -0.156125112838E-16
 -0.121430643318E-16
  0.823993651089E-17
  0.375133951680E-16
  0.693889390391E-17
  0.312250225676E-16
  0.173472347598E-16
 -0.121430643318E-16
  0.208166817117E-16
  0.589805981832E-16
  0.121430643318E-15
 -0.260208521397E-17
 -0.260208521397E-17
  0.455364912444E-17
 -0.832667268469E-16
  0.173472347598E-17
 -0.520417042793E-17
 -0.780625564190E-17
 -0.173472347598E-16
 -0.902056207508E-16
 -0.832667268469E-16
 -0.346944695195E-17
 -0.138777878078E-16
 -0.433680868994E-18
 -0.286229373536E-16
  0.377302356025E-16
 -0.516080234103E-16
  0.589805981832E-16
 -0.346944695195E-17
  0.260208521397E-16
  0.693889390391E-17
  0.190819582357E-16
  0.104083408559E-16
  0.520417042793E-16
  0.242861286637E-16
  0.485722573274E-16
  0.832667268469E-16
  0.780625564190E-17
  0.307913416986E-16
 -0.468375338514E-16
  0.225514051877E-16
  0.281892564846E-16
  0.737257477290E-17
 -0.156125112838E-16
  0.192987986702E-16
 -0.208166817117E-16
 -0.520417042793E-16
 -0.383807569060E-16
 -0.104083408559E-16
  0.867361737988E-16
 -0.104083408559E-16
  0.111022302463E-15
 -0.268882138776E-16
  0.219788109154E-16
 -0.140946282423E-16
 -0.208166817117E-16
 -0.451028103754E-16
  0.451028103754E-16
  0.190819582357E-16
 -0.173472347598E-16
 -0.277555756156E-16
  0.468375338514E-16
 -0.138777878078E-16
  0.563785129692E-16
  0.225514051877E-16
 -0.867361737988E-17
  0.433680868994E-16
  0.307913416986E-16
 -0.975781955237E-17
 -0.823993651089E-17
  0.107552855511E-15
 -0.416333634234E-16
  0.832667268469E-16
  0.138777878078E-16
 -0.169677639994E-16
 -0.602816407902E-16
 -0.208166817117E-16
 -0.500901403688E-16
  0.485722573274E-16
 -0.190819582357E-16
 -0.514996031931E-17
 -0.273218947466E-16
 -0.615826833972E-16
  0.355618312575E-16
 -0.555111512313E-16
  0.520417042793E-16
 -0.416333634234E-16
  0.624500451352E-16
 -0.104083408559E-16
 -0.346944695195E-16
  0.346944695195E-17
  0.555111512313E-16
 -0.138777878078E-16
  0.364291929955E-16
 -0.364291929955E-16
 -0.260208521397E-16
  0.650521303491E-17
 -0.190819582357E-16
  0.997465998687E-17
 -0.381639164715E-16
 -0.867361737988E-17
  0.236356073602E-16
 -0.260208521397E-16
  0.242861286637E-16
 -0.433680868994E-17
 -0.104083408559E-16
 -0.433680868994E-16
  0.242861286637E-16
  0.312250225676E-16
 -0.221177243187E-16
  0.312250225676E-16
 -0.160461921528E-16
  0.427175655959E-16
 -0.555111512313E-16
 -0.190819582357E-16
  0.338271077815E-16
 -0.407660016855E-16
  0.143114686768E-16
  0.385975973405E-16
 -0.364291929955E-16
 -0.130104260698E-16
  0.277555756156E-16
 -0.693889390391E-17
 -0.329597460436E-16
  0.433680868994E-17
  0.520417042793E-16
  0.398986399475E-16
  0.190819582357E-16
 -0.763278329430E-16
  0.312250225676E-16
  0.780625564190E-17
 -0.433680868994E-18
 -0.802309607639E-17
 -0.494396190653E-16
  0.693889390391E-16
  0.329597460436E-16
  0.598479599212E-16
  0.277555756156E-16
 -0.179977560633E-16
  0.390312782095E-16
  0.329597460436E-16
 -0.208166817117E-16
 -0.134441069388E-16
 -0.182145964978E-16
  0.117961196366E-15
 -0.104083408559E-16
 -0.134441069388E-16
 -0.728583859910E-16
 -0.208166817117E-16
 -0.294902990916E-16
  0.217924636670E-16
 -0.503069808033E-16
 -0.464038529824E-16
 -0.555111512313E-16
 -0.173472347598E-16
 -0.442354486374E-16
  0.346944695195E-17
 -0.190819582357E-16
 -0.511743425413E-16
 -0.294902990916E-16
 -0.693889390391E-16
 -0.867361737988E-17
 -0.693889390391E-17
  0.381639164715E-16
 -0.416333634234E-16
 -0.100613961607E-15
 -0.208166817117E-16
 -0.451028103754E-16
  0.268882138776E-16
 -0.693889390391E-17
  0.867361737988E-17
  0.164798730218E-16
 -0.173472347598E-17
 -0.104083408559E-16
 -0.672205346941E-17
  0.520417042793E-16
 -0.242861286637E-16
 -0.221177243187E-16
  0.451028103754E-16
  0.346944695195E-16
  0.485722573274E-16
 -0.617995238317E-17
  0.238524477947E-16
  0.411996825544E-16
 -0.242861286637E-16
  0.346944695195E-16
 -0.190819582357E-16
 -0.260208521397E-16
  0.693889390391E-17
  0.104083408559E-16
 -0.147451495458E-16
 -0.607153216592E-17
  0.932413868338E-16
  0.745931094670E-16
 -0.520417042793E-17
  0.693889390391E-17
  0.243945488809E-16
 -0.442354486374E-16
  0.190819582357E-16
 -0.416333634234E-16
 -0.884708972748E-16
 -0.763278329430E-16
 -0.485722573274E-16
 -0.381639164715E-16
 -0.659194920871E-16
 -0.260208521397E-16
 -0.156125112838E-16
  0.381639164715E-16
 -0.169135538908E-16
 -0.110588621594E-16
 -0.156125112838E-16
  0.312250225676E-16
 -0.520417042793E-16
  0.000000000000E+00
 -0.867361737988E-18
 -0.346944695195E-16
  0.235271871429E-16
 -0.199493199737E-16
 -0.346944695195E-17
 -0.346944695195E-16
 -0.104083408559E-16
 -0.208166817117E-16
 -0.867361737988E-18
  0.121430643318E-16
  0.260208521397E-17
 -0.307913416986E-16
 -0.832667268469E-16
 -0.234187669257E-16
  0.101915004214E-16
 -0.702563007771E-16
  0.000000000000E+00
  0.520417042793E-17
  0.208166817117E-16
  0.112757025938E-16
 -0.346944695195E-17
  0.520417042793E-17
  0.000000000000E+00
 -0.116226472890E-15
  0.197324795392E-16
 -0.201661604082E-16
  0.173472347598E-17
 -0.190819582357E-16
 -0.277555756156E-16
  0.520417042793E-17
  0.485722573274E-16
 -0.346944695195E-17
 -0.381639164715E-16
  0.342607886505E-16
 -0.138777878078E-15
 -0.383265467974E-16
 -0.251534904017E-16
  0.138777878078E-16
  0.104083408559E-16
  0.607153216592E-17
  0.815320033709E-16
 -0.537764277553E-16
  0.520417042793E-17
  0.520417042793E-16
 -0.173472347598E-16
  0.130104260698E-16
 -0.581132364452E-16
  0.286229373536E-16
 -0.667868538251E-16
 -0.138777878078E-16
 -0.607153216592E-17
 -0.641847686111E-16
  0.208166817117E-16
 -0.693889390391E-17
 -0.872782748851E-17
 -0.303576608296E-16
 -0.277555756156E-16
 -0.468375338514E-16
  0.225514051877E-16
  0.607153216592E-17
 -0.108420217249E-17
 -0.121430643318E-16
  0.121430643318E-16
 -0.134441069388E-16
  0.780625564190E-17
  0.316587034366E-16
 -0.529090660173E-16
  0.520417042793E-16
  0.364291929955E-16
 -0.145716771982E-15
 -0.138777878078E-16
 -0.433680868994E-16
 -0.555111512313E-16
  0.117961196366E-15
 -0.832667268469E-16
  0.693889390391E-17
 -0.355618312575E-16
 -0.555111512313E-16
  0.134441069388E-16
 -0.260208521397E-17
 -0.876035355368E-16
  0.867361737988E-18
 -0.381639164715E-16
 -0.147451495458E-16
 -0.164798730218E-16
  0.173472347598E-17
 -0.186482773668E-16
  0.986623976962E-17
 -0.173472347598E-17
  0.329597460436E-16
  0.159594559790E-15
  0.555111512313E-16
 -0.173472347598E-16
 -0.312250225676E-16
  0.266713734431E-16
 -0.607153216592E-17
  0.294902990916E-16
  0.130104260698E-16
 -0.563785129692E-17
  0.988792381307E-16
  0.173472347598E-17
  0.433680868994E-18
  0.312250225676E-16
 -0.485722573274E-16
  0.294902990916E-16
 -0.100613961607E-15
 -0.208166817117E-16
  0.208166817117E-16
 -0.555111512313E-16
  0.225514051877E-16
 -0.156125112838E-16
  0.867361737988E-18
 -0.416333634234E-16
 -0.451028103754E-16
 -0.520417042793E-17
  0.433680868994E-16
 -0.138777878078E-16
  0.242861286637E-16
 -0.867361737988E-16
 -0.572458747072E-16
 -0.164798730218E-16
  0.268882138776E-16
  0.867361737988E-18
 -0.464038529824E-16
 -0.802309607639E-17
  0.451028103754E-16
  0.260208521397E-16
  0.574627151417E-16
  0.357786716920E-16
 -0.494396190653E-16
  0.390312782095E-16
  0.104083408559E-16
 -0.138777878078E-16
  0.242861286637E-16
  0.260208521397E-16
  0.381639164715E-16
 -0.156125112838E-16
  0.156125112838E-16
 -0.104083408559E-16
  0.369712940818E-16
 -0.134441069388E-16
 -0.398986399475E-16
 -0.624500451352E-16
 -0.451028103754E-16
 -0.277555756156E-16
 -0.446691295064E-16
  0.459701721134E-16
 -0.477048955894E-16
 -0.607153216592E-16
  0.100613961607E-15
  0.867361737988E-17
  0.858688120609E-16
  0.607153216592E-17
  0.294902990916E-16
  0.121430643318E-16
 -0.815320033709E-16
 -0.129426634340E-17
 -0.797972798949E-16
  0.147451495458E-16
  0.173472347598E-16
  0.763278329430E-16
 -0.190819582357E-16
  0.919403442268E-16
 -0.151788304148E-17
 -0.190819582357E-16
  0.693889390391E-16
 -0.589805981832E-16
 -0.173472347598E-17
 -0.190819582357E-16
  0.520417042793E-17
  0.242861286637E-16
  0.000000000000E+00
  0.112757025938E-16
 -0.936750677027E-16
 -0.184314369323E-16
 -0.195156391047E-16
  0.208166817117E-16
  0.260208521397E-17
 -0.711236625150E-16
 -0.260208521397E-16
  0.138777878078E-16
 -0.138777878078E-16
 -0.346944695195E-17
 -0.225514051877E-16
  0.390312782095E-16
  0.962771529167E-16
  0.190819582357E-16
  0.173472347598E-17
 -0.346944695195E-16
 -0.780625564190E-16
 -0.346944695195E-17
 -0.758941520740E-17
  0.472712147204E-16
  0.353043332416E-16
 -0.312250225676E-16
 -0.485722573274E-16
 -0.659194920871E-16
  0.156125112838E-16
 -0.104083408559E-16
 -0.234187669257E-16
 -0.216840434497E-16
  0.433680868994E-17
  0.648352899146E-16
  0.563785129692E-17
  0.867361737988E-17
  0.433680868994E-16
  0.000000000000E+00
  0.154390389362E-15
 -0.242861286637E-16
  0.520417042793E-17
 -0.222044604925E-15
  0.346944695195E-17
 -0.429344060304E-16
 -0.650521303491E-16
  0.104083408559E-16
  0.346944695195E-17
  0.216840434497E-16
  0.589805981832E-16
 -0.121430643318E-16
  0.216840434497E-16
 -0.112757025938E-16
  0.121430643318E-16
  0.000000000000E+00
 -0.104083408559E-15
 -0.728583859910E-16
 -0.190819582357E-16
  0.468375338514E-16
  0.693889390391E-17
 -0.381639164715E-16
 -0.468375338514E-16
  0.173472347598E-16
 -0.459701721134E-16
 -0.143982048506E-15
 -0.173472347598E-16
 -0.255871712707E-16
  0.390312782095E-16
  0.286229373536E-16
  0.381639164715E-16
  0.242861286637E-16
 -0.147451495458E-16
  0.737257477290E-17
 -0.425007251614E-16
 -0.169135538908E-16
  0.416333634234E-16
  0.364291929955E-16
 -0.659194920871E-16
  0.312250225676E-16
  0.541016884070E-16
 -0.111022302463E-15
 -0.624500451352E-16
  0.251534904017E-16
  0.468375338514E-16
  0.312250225676E-16
  0.000000000000E+00
 -0.589805981832E-16
 -0.490059381963E-16
  0.148318857196E-15
  0.000000000000E+00
 -0.147451495458E-16
  0.100613961607E-15
 -0.572458747072E-16
  0.260208521397E-16
 -0.294902990916E-16