# vtk DataFile Version 3.0
TriPan results file. Generated by TriPan, USU AeroLab (c) 2021.
ASCII
DATASET POLYDATA
POINTS                 144 float
  0.000000000000E+00  0.000000000000E+00  0.000000000000E+00
  0.113538098335E+01  0.000000000000E+00 -0.658124566078E+00
  0.113538098335E+01  0.000000000000E+00  0.658124566078E+00
  0.192375373840E+01  0.192375373840E+01  0.000000000000E+00
  0.305913543701E+01  0.192375373840E+01 -0.658124983311E+00
  0.305913543701E+01  0.192375373840E+01  0.658124983311E+00
  0.423028087616E+01  0.000000000000E+00 -0.108747220039E+01
  0.423028087616E+01  0.000000000000E+00  0.108747220039E+01
  0.547033166885E+01  0.547033166885E+01  0.000000000000E+00
  0.615403699875E+01  0.192375373840E+01 -0.108747279644E+01
  0.615403699875E+01  0.192375373840E+01  0.108747279644E+01
  0.660571479797E+01  0.547033166885E+01 -0.658125698566E+00
  0.660571479797E+01  0.547033166885E+01  0.658125698566E+00
  0.939508819580E+01  0.000000000000E+00 -0.980745851994E+00
  0.939508819580E+01  0.000000000000E+00  0.980745851994E+00
  0.970061969757E+01  0.547033166885E+01 -0.108747410774E+01
  0.970061969757E+01  0.547033166885E+01  0.108747410774E+01
  0.113188476562E+02  0.192375373840E+01 -0.980746448040E+00
  0.113188476562E+02  0.192375373840E+01  0.980746448040E+00
  0.113820018768E+02  0.113820018768E+02  0.000000000000E+00
  0.125173873901E+02  0.113820018768E+02 -0.658127009869E+00
  0.125173873901E+02  0.113820018768E+02  0.658127009869E+00
  0.145402030945E+02  0.000000000000E+00 -0.479613035917E+00
  0.145402030945E+02  0.000000000000E+00  0.479613035917E+00
  0.148654365540E+02  0.547033166885E+01 -0.980747580528E+00
  0.148654365540E+02  0.547033166885E+01  0.980747580528E+00
  0.156122989655E+02  0.113820018768E+02 -0.108747613430E+01
  0.156122989655E+02  0.113820018768E+02  0.108747613430E+01
  0.164639663696E+02  0.192375373840E+01 -0.479613333941E+00
  0.164639663696E+02  0.192375373840E+01  0.479613333941E+00
  0.176505107880E+02  0.000000000000E+00 -0.144198849797E+00
  0.176505107880E+02  0.000000000000E+00  0.144198849797E+00
  0.190000000000E+02  0.000000000000E+00  0.000000000000E+00
  0.195742740631E+02  0.192375373840E+01 -0.144198939204E+00
  0.195742740631E+02  0.192375373840E+01  0.144198939204E+00
  0.197561950684E+02  0.197561950684E+02  0.000000000000E+00
  0.200105609894E+02  0.547033166885E+01 -0.479613870382E+00
  0.200105609894E+02  0.547033166885E+01  0.479613870382E+00
  0.207771244049E+02  0.113820018768E+02 -0.980749428272E+00
  0.207771244049E+02  0.113820018768E+02  0.980749428272E+00
  0.208915824890E+02  0.197561950684E+02 -0.658128738403E+00
  0.208915824890E+02  0.197561950684E+02  0.658128738403E+00
  0.209237651825E+02  0.192375373840E+01  0.000000000000E+00
  0.231208724976E+02  0.547033166885E+01 -0.144199103117E+00
  0.231208724976E+02  0.547033166885E+01  0.144199103117E+00
  0.239865016937E+02  0.197561950684E+02 -0.108747911453E+01
  0.239865016937E+02  0.197561950684E+02  0.108747911453E+01
  0.244703655243E+02  0.547033166885E+01  0.000000000000E+00
  0.259222583771E+02  0.113820018768E+02 -0.479614794254E+00
  0.259222583771E+02  0.113820018768E+02  0.479614794254E+00
  0.290325775146E+02  0.113820018768E+02 -0.144199386239E+00
  0.290325775146E+02  0.113820018768E+02  0.144199386239E+00
  0.291513423920E+02  0.197561950684E+02 -0.980752110481E+00
  0.291513423920E+02  0.197561950684E+02  0.980752110481E+00
  0.292438049316E+02  0.292438049316E+02  0.000000000000E+00
  0.303791980743E+02  0.292438049316E+02 -0.658130764961E+00
  0.303791980743E+02  0.292438049316E+02  0.658130764961E+00
  0.303820724487E+02  0.113820018768E+02  0.000000000000E+00
  0.334741249084E+02  0.292438049316E+02 -0.108748245239E+01
  0.334741249084E+02  0.292438049316E+02  0.108748245239E+01
  0.342964897156E+02  0.197561950684E+02 -0.479616105556E+00
  0.342964897156E+02  0.197561950684E+02  0.479616105556E+00
  0.374068183899E+02  0.197561950684E+02 -0.144199773669E+00
  0.374068183899E+02  0.197561950684E+02  0.144199773669E+00
  0.376179962158E+02  0.376179962158E+02  0.000000000000E+00
  0.386389808655E+02  0.292438049316E+02 -0.980755090714E+00
  0.386389808655E+02  0.292438049316E+02  0.980755090714E+00
  0.387533912659E+02  0.376179962158E+02 -0.658132553101E+00
  0.387533912659E+02  0.376179962158E+02  0.658132553101E+00
  0.387563171387E+02  0.197561950684E+02  0.000000000000E+00
  0.418483314514E+02  0.376179962158E+02 -0.108748543262E+01
  0.418483314514E+02  0.376179962158E+02  0.108748543262E+01
  0.435296669006E+02  0.435296669006E+02  0.000000000000E+00
  0.437841453552E+02  0.292438049316E+02 -0.479617565870E+00
  0.437841453552E+02  0.292438049316E+02  0.479617565870E+00
  0.446650657654E+02  0.435296669006E+02 -0.658133804798E+00
  0.446650657654E+02  0.435296669006E+02  0.658133804798E+00
  0.468944816589E+02  0.292438049316E+02 -0.144200220704E+00
  0.468944816589E+02  0.292438049316E+02  0.144200220704E+00
  0.470131988525E+02  0.376179962158E+02 -0.980757772923E+00
  0.470131988525E+02  0.376179962158E+02  0.980757772923E+00
  0.470762481689E+02  0.470762481689E+02  0.000000000000E+00
  0.477600097656E+02  0.435296669006E+02 -0.108748745918E+01
  0.477600097656E+02  0.435296669006E+02  0.108748745918E+01
  0.482116432190E+02  0.470762481689E+02 -0.658134579659E+00
  0.482116432190E+02  0.470762481689E+02  0.658134579659E+00
  0.482439842224E+02  0.292438049316E+02  0.000000000000E+00
  0.490000000000E+02  0.490000000000E+02  0.000000000000E+00
  0.501353988647E+02  0.490000000000E+02 -0.658134996891E+00
  0.501353988647E+02  0.490000000000E+02  0.658134996891E+00
  0.506007728577E+02  0.494653701782E+02 -0.465371757746E+00
  0.506007728577E+02  0.494653701782E+02  0.465371757746E+00
  0.507935333252E+02  0.496581344604E+02 -0.771266485397E-15
  0.513065910339E+02  0.470762481689E+02 -0.108748877048E+01
  0.513065910339E+02  0.470762481689E+02  0.108748877048E+01
  0.521583786011E+02  0.376179962158E+02 -0.479618877172E+00
  0.521583786011E+02  0.376179962158E+02  0.479618877172E+00
  0.529248886108E+02  0.435296669006E+02 -0.980759620667E+00
  0.529248886108E+02  0.435296669006E+02  0.980759620667E+00
  0.532303466797E+02  0.490000000000E+02 -0.108748936653E+01
  0.532303466797E+02  0.490000000000E+02  0.108748936653E+01
  0.539993209839E+02  0.497689704895E+02 -0.768971264362E+00
  0.539993209839E+02  0.497689704895E+02  0.768971264362E+00
  0.543178405762E+02  0.500874900818E+02 -0.157378642191E-15
  0.552687225342E+02  0.376179962158E+02 -0.144200608134E+00
  0.552687225342E+02  0.376179962158E+02  0.144200608134E+00
  0.564714775085E+02  0.470762481689E+02 -0.980760753155E+00
  0.564714775085E+02  0.470762481689E+02  0.980760753155E+00
  0.566182289124E+02  0.376179962158E+02  0.000000000000E+00
  0.580700759888E+02  0.435296669006E+02 -0.479619771242E+00
  0.580700759888E+02  0.435296669006E+02  0.479619771242E+00
  0.583952369690E+02  0.490000000000E+02 -0.980761349201E+00
  0.583952369690E+02  0.490000000000E+02  0.980761349201E+00
  0.590887413025E+02  0.496935043335E+02 -0.693503141403E+00
  0.590887413025E+02  0.496935043335E+02  0.693503141403E+00
  0.593759994507E+02  0.499807624817E+02  0.000000000000E+00
  0.611804275513E+02  0.435296669006E+02 -0.144200876355E+00
  0.611804275513E+02  0.435296669006E+02  0.144200876355E+00
  0.616166725159E+02  0.470762481689E+02 -0.479620337486E+00
  0.616166725159E+02  0.470762481689E+02  0.479620337486E+00
  0.625299339294E+02  0.435296669006E+02  0.000000000000E+00
  0.635404319763E+02  0.490000000000E+02 -0.479620635509E+00
  0.635404319763E+02  0.490000000000E+02  0.479620635509E+00
  0.638795776367E+02  0.493391418457E+02 -0.339143037796E+00
  0.638795776367E+02  0.493391418457E+02  0.339143037796E+00
  0.640200576782E+02  0.494796218872E+02  0.296956834055E-15
  0.647270278931E+02  0.470762481689E+02 -0.144201040268E+00
  0.647270278931E+02  0.470762481689E+02  0.144201040268E+00
  0.660765380859E+02  0.470762481689E+02  0.000000000000E+00
  0.666507873535E+02  0.490000000000E+02 -0.144201144576E+00
  0.666507873535E+02  0.490000000000E+02  0.144201144576E+00
  0.667527542114E+02  0.491019668579E+02 -0.101965606213E+00
  0.667527542114E+02  0.491019668579E+02  0.101965606213E+00
  0.667949905396E+02  0.491441993713E+02 -0.260488604752E-16
  0.680002975464E+02  0.490000000000E+02  0.000000000000E+00
  0.209237651825E+02  0.192375373840E+01  0.000000000000E+00
  0.190000000000E+02  0.000000000000E+00  0.000000000000E+00
  0.244703655243E+02  0.547033166885E+01  0.000000000000E+00
  0.303820724487E+02  0.113820018768E+02  0.000000000000E+00
  0.387563171387E+02  0.197561950684E+02  0.000000000000E+00
  0.482439842224E+02  0.292438049316E+02  0.000000000000E+00
  0.566182289124E+02  0.376179962158E+02  0.000000000000E+00
  0.625299339294E+02  0.435296669006E+02  0.000000000000E+00
  0.660765380859E+02  0.470762481689E+02  0.000000000000E+00
POLYGONS                 256                1024
3                  32                  33                  42
3                  32                  30                  33
3                  30                  28                  33
3                  30                  22                  28
3                  22                  17                  28
3                  22                  13                  17
3                  13                   6                  17
3                  17                   6                   9
3                   6                   1                   9
3                   9                   1                   4
3                   1                   0                   4
3                   4                   0                   3
3                   0                   5                   3
3                   0                   2                   5
3                   2                  10                   5
3                   2                   7                  10
[...]
CELL_DATA                 256
SCALARS sigma float 1
LOOKUP_TABLE default
  0.000000000000E+00
  0.000000000000E+00
  0.000000000000E+00
  0.000000000000E+00
  0.000000000000E+00
  0.000000000000E+00
  0.000000000000E+00
  0.000000000000E+00
  0.000000000000E+00
  0.000000000000E+00
  0.000000000000E+00
  0.000000000000E+00
  0.000000000000E+00
  0.000000000000E+00
  0.000000000000E+00
  0.000000000000E+00
  0.000000000000E+00
  0.000000000000E+00
  0.000000000000E+00
  0.000000000000E+00
  0.000000000000E+00
  0.000000000000E+00
  0.000000000000E+00
  0.000000000000E+00
  0.000000000000E+00
  0.000000000000E+00
  0.000000000000E+00
  0.000000000000E+00
  0.000000000000E+00
  0.000000000000E+00
  0.000000000000E+00
  0.000000000000E+00
  0.000000000000E+00
  0.000000000000E+00
  0.000000000000E+00
  0.000000000000E+00
  0.000000000000E+00
  0.000000000000E+00
  0.000000000000E+00
  0.000000000000E+00
  0.000000000000E+00
  0.000000000000E+00
  0.000000000000E+00
  0.000000000000E+00
  0.000000000000E+00
  0.000000000000E+00
  0.000000000000E+00
  0.000000000000E+00
  0.000000000000E+00
  0.000000000000E+00
  0.000000000000E+00
  0.000000000000E+00
  0.000000000000E+00
  0.000000000000E+00
  0.000000000000E+00
  0.000000000000E+00
  0.000000000000E+00
  0.000000000000E+00
  0.000000000000E+00
  0.000000000000E+00
  0.000000000000E+00
  0.000000000000E+00
  0.000000000000E+00
  0.000000000000E+00
  0.000000000000E+00
  0.000000000000E+00
  0.000000000000E+00
  0.000000000000E+00
  0.000000000000E+00
  0.000000000000E+00
  0.000000000000E+00
  0.000000000000E+00
  0.000000000000E+00
  0.000000000000E+00
  0.000000000000E+00
  0.000000000000E+00
  0.000000000000E+00
  0.000000000000E+00
  0.000000000000E+00
  0.000000000000E+00
  0.000000000000E+00
  0.000000000000E+00
  0.000000000000E+00
  0.000000000000E+00
  0.000000000000E+00
  0.000000000000E+00
  0.000000000000E+00
  0.000000000000E+00
  0.000000000000E+00
  0.000000000000E+00
  0.000000000000E+00
  0.000000000000E+00
  0.000000000000E+00
  0.000000000000E+00
  0.000000000000E+00
  0.000000000000E+00
  0.000000000000E+00
  0.000000000000E+00
  0.000000000000E+00
  0.000000000000E+00
  0.000000000000E+00
  0.000000000000E+00
  0.000000000000E+00
  0.000000000000E+00
  0.000000000000E+00
  0.000000000000E+00
  0.000000000000E+00
  0.000000000000E+00
  0.000000000000E+00
  0.000000000000E+00
  0.000000000000E+00
  0.000000000000E+00
  0.000000000000E+00
  0.000000000000E+00
  0.000000000000E+00
  0.000000000000E+00
  0.000000000000E+00
  0.000000000000E+00
  0.000000000000E+00
  0.000000000000E+00
  0.000000000000E+00
  0.000000000000E+00
  0.000000000000E+00
  0.000000000000E+00
  0.000000000000E+00
  0.000000000000E+00
  0.000000000000E+00
  0.000000000000E+00
  0.000000000000E+00
  0.000000000000E+00
  0.000000000000E+00
  0.000000000000E+00
  0.000000000000E+00
  0.000000000000E+00
  0.000000000000E+00
  0.000000000000E+00
  0.000000000000E+00
  0.000000000000E+00
  0.000000000000E+00
  0.000000000000E+00
  0.000000000000E+00
  0.000000000000E+00
  0.000000000000E+00
  0.000000000000E+00
  0.000000000000E+00
  0.000000000000E+00
  0.000000000000E+00
  0.000000000000E+00
  0.000000000000E+00
  0.000000000000E+00
  0.000000000000E+00
  0.000000000000E+00
  0.000000000000E+00
  0.000000000000E+00
  0.000000000000E+00
  0.000000000000E+00
  0.000000000000E+00
  0.000000000000E+00
  0.000000000000E+00
  0.000000000000E+00
  0.000000000000E+00
  0.000000000000E+00
  0.000000000000E+00
  0.000000000000E+00
  0.000000000000E+00
  0.000000000000E+00
  0.000000000000E+00
  0.000000000000E+00
  0.000000000000E+00
  0.000000000000E+00
  0.000000000000E+00
  0.000000000000E+00
  0.000000000000E+00
  0.000000000000E+00
  0.000000000000E+00
  0.000000000000E+00
  0.000000000000E+00
  0.000000000000E+00
  0.000000000000E+00
  0.000000000000E+00
  0.000000000000E+00
  0.000000000000E+00
  0.000000000000E+00
  0.000000000000E+00
  0.000000000000E+00
  0.000000000000E+00
  0.000000000000E+00
  0.000000000000E+00
  0.000000000000E+00
  0.000000000000E+00
  0.000000000000E+00
  0.000000000000E+00
  0.000000000000E+00
  0.000000000000E+00
  0.000000000000E+00
  0.000000000000E+00
  0.000000000000E+00
  0.000000000000E+00
  0.000000000000E+00
  0.000000000000E+00
  0.000000000000E+00
  0.000000000000E+00
  0.000000000000E+00
  0.000000000000E+00
  0.000000000000E+00
  0.000000000000E+00
  0.000000000000E+00
  0.000000000000E+00
  0.000000000000E+00
  0.000000000000E+00
  0.000000000000E+00
  0.000000000000E+00
  0.000000000000E+00
  0.000000000000E+00
  0.000000000000E+00
  0.000000000000E+00
  0.000000000000E+00
  0.000000000000E+00
  0.000000000000E+00
  0.000000000000E+00
  0.000000000000E+00
  0.000000000000E+00
  0.000000000000E+00
  0.000000000000E+00
  0.000000000000E+00
  0.000000000000E+00
  0.000000000000E+00
  0.000000000000E+00
  0.000000000000E+00
  0.000000000000E+00
  0.000000000000E+00
  0.000000000000E+00
  0.000000000000E+00
  0.000000000000E+00
  0.000000000000E+00
  0.000000000000E+00
  0.000000000000E+00
  0.000000000000E+00
  0.000000000000E+00
  0.000000000000E+00
  0.000000000000E+00
  0.000000000000E+00
  0.000000000000E+00
  0.000000000000E+00
  0.000000000000E+00
  0.000000000000E+00
  0.000000000000E+00
  0.000000000000E+00
  0.000000000000E+00
  0.000000000000E+00
  0.000000000000E+00
  0.000000000000E+00
  0.000000000000E+00
  0.000000000000E+00
  0.000000000000E+00
  0.000000000000E+00
SCALARS C_p_inc float 1
LOOKUP_TABLE default
  0.112032587287E+00
  0.685581843507E-01
  0.238140627081E-01
 -0.915058231803E-02
 -0.637223138966E-01
 -0.880441300569E-01
 -0.849301049492E-01
 -0.101802904845E+00
  0.838900682000E-01
 -0.979189915187E-02
  0.500210795637E+00
  0.475094983033E+00
 -0.104340972487E+00
  0.202944288042E+00
 -0.439430385535E+00
 -0.279220818310E+00
 -0.354885816382E+00
 -0.355371574200E+00
 -0.264446760836E+00
 -0.215223618987E+00
 -0.112829692833E+00
 -0.487990955116E-01
  0.294968384214E-01
  0.961622718011E-01
  0.114303182608E+00
  0.110303377260E+00
  0.383464875312E-01
  0.237826929569E-01
 -0.445142607533E-01
 -0.636358951881E-01
 -0.102590920519E+00
 -0.105699325776E+00
 -0.658029878800E-02
 -0.253364732043E-01
  0.414330933500E+00
  0.420347267119E+00
 -0.260796252842E+00
 -0.114902201843E+00
 -0.523961623601E+00
 -0.430879172382E+00
 -0.363120597269E+00
 -0.365087046558E+00
 -0.215520478868E+00
 -0.172680882399E+00
 -0.486644540499E-01
 -0.134569036146E-01
  0.935414661437E-01
  0.106015062284E+00
  0.115750271709E+00
  0.113599801325E+00
  0.415077111541E-01
  0.381720079806E-01
 -0.358079449055E-01
 -0.443258868284E-01
 -0.106502353476E+00
 -0.948962507297E-01
 -0.252792111967E-01
 -0.139573526692E-01
  0.418097667183E+00
  0.429602047623E+00
 -0.342397828677E+00
 -0.261726534616E+00
 -0.563136317096E+00
 -0.525351960045E+00
 -0.358835749455E+00
 -0.372094960716E+00
 -0.173261669787E+00
 -0.152995456548E+00
 -0.134860305277E-01
 -0.214093667900E-02
  0.105808760742E+00
  0.111479345916E+00
  0.115355962619E+00
  0.115171918106E+00
  0.415101979893E-01
  0.413269346242E-01
 -0.338122828106E-01
 -0.356416770933E-01
 -0.952525158331E-01
 -0.890385851400E-01
 -0.139338109014E-01
 -0.413563492445E-03
  0.434987338512E+00
  0.443397493563E+00
 -0.377630810073E+00
 -0.342383716601E+00
 -0.577551153208E+00
 -0.566916991375E+00
 -0.358885588826E+00
 -0.363658480165E+00
 -0.153528758164E+00
 -0.147171964058E+00
 -0.207811844110E-02
  0.338343406794E-02
  0.111970414997E+00
  0.116136004770E+00
  0.111716926959E+00
  0.114491193831E+00
  0.370916700222E-01
  0.412156871943E-01
 -0.374336577568E-01
 -0.336716131327E-01
 -0.888031480287E-01
 -0.908705047755E-01
 -0.407523457200E-03
  0.173920268488E-02
  0.445344818904E+00
  0.447630178722E+00
 -0.386375538045E+00
 -0.377662427919E+00
 -0.578984594283E+00
 -0.579222673406E+00
 -0.354965619821E+00
 -0.360801678223E+00
 -0.147597955485E+00
 -0.139835089855E+00
  0.344825438439E-02
  0.130386425486E-01
  0.116868266940E+00
  0.125691625875E+00
  0.110510048391E+00
  0.109763019009E+00
  0.298169958660E-01
  0.362957229720E-01
 -0.504913118630E-01
 -0.372873112185E-01
 -0.900554006953E-01
 -0.105477896733E+00
  0.158526197139E-02
 -0.108429678049E-01
  0.445422851032E+00
  0.441817752465E+00
 -0.371616653494E+00
 -0.386354423505E+00
 -0.566409191402E+00
 -0.579586917457E+00
 -0.341768436344E+00
 -0.356379288961E+00
 -0.140023066269E+00
 -0.121677719053E+00
  0.130999631586E-01
  0.400822027967E-01
  0.126889224412E+00
  0.154942852123E+00
  0.218443066649E+00
  0.102278744849E+00
  0.150168237704E-01
  0.256281598859E-01
 -0.841080506856E-01
 -0.508178348485E-01
 -0.103622406479E+00
 -0.144753328870E+00
 -0.115143370735E-01
 -0.464847246178E-01
  0.433121607405E+00
  0.423718964640E+00
 -0.341720784946E+00
 -0.371558034125E+00
 -0.547447574767E+00
 -0.565557321689E+00
 -0.324970186051E+00
 -0.342292783776E+00
 -0.120911479104E+00
 -0.989207297629E-01
  0.400095992951E-01
  0.834869892732E-01
  0.155847597744E+00
  0.315868752214E+00
 -0.227058690326E+02
 -0.138169608506E+00
  0.709646505857E+00
 -0.957449567907E-01
 -0.434957970582E+00
 -0.892581108349E-01
 -0.144395620359E+00
 -0.202494057741E+00
 -0.496958054902E-01
 -0.117045837471E+00
  0.400110476510E+00
  0.385117818033E+00
 -0.309896372140E+00
 -0.341985858750E+00
 -0.527444750857E+00
 -0.543071551316E+00
 -0.306696304328E+00
 -0.323427574480E+00
 -0.972026265309E-01
 -0.359875555338E+00
  0.314493993016E-01
  0.760520223491E+00
 -0.224119855402E+00
 -0.223478171355E+02
 -0.410071481422E+08
 -0.213923967231E+05
 -0.120302981599E+05
  0.905923498051E+00
 -0.454048770887E-01
 -0.421818572590E+00
 -0.231441719866E+00
 -0.287628094102E+00
 -0.130960877258E+00
 -0.148484174070E+00
  0.288124823444E+00
  0.267894634835E+00
 -0.286305630925E+00
 -0.314996537489E+00
 -0.397432081205E+00
 -0.532616455224E+00
 -0.336004288083E+00
 -0.302459327963E+00
 -0.374590824119E+00
 -0.424357381711E+00
  0.895575912771E+00
 -0.119790757003E+05
 -0.213131591816E+05
 -0.410087061527E+08
 -0.854092015702E+08
 -0.484414727032E+06
 -0.181643984609E+05
 -0.278425533288E+02
 -0.123015272113E+00
 -0.435388448621E+00
 -0.378113124056E+00
 -0.221200492065E+00
 -0.230224020502E+00
 -0.276815312161E-01
 -0.315365842374E+00
 -0.328234056079E+00
 -0.424108425382E+00
 -0.426128549595E+00
 -0.334452031072E+00
  0.477356019522E+00
 -0.355780184575E+02
 -0.182713758859E+05
 -0.483065738182E+06
 -0.853990003496E+08
 -0.583733278236E+08
 -0.579460670954E+06
 -0.217159903113E+05
 -0.424480985879E+02
  0.256804020335E+00
 -0.541430054498E+00
 -0.477459325618E+00
 -0.297893277383E+00
 -0.304778816345E+00
 -0.177936877899E+00
 -0.275300139880E+00
 -0.336624299395E+00
 -0.355496552154E+00
 -0.500471212901E+00
 -0.429951286980E+00
  0.964197245824E+00
 -0.557524216921E+02
 -0.218205387148E+05
 -0.577406926603E+06
 -0.583647522827E+08
SCALARS inclination float 1
LOOKUP_TABLE default
  0.100000000000E+01
  0.100000000000E+01
  0.100000000000E+01
  0.100000000000E+01
  0.100000000000E+01
  0.100000000000E+01
  0.100000000000E+01
  0.100000000000E+01
  0.100000000000E+01
  0.100000000000E+01
  0.100000000000E+01
  0.100000000000E+01
  0.100000000000E+01
  0.100000000000E+01
  0.100000000000E+01
  0.100000000000E+01
  0.100000000000E+01
  0.100000000000E+01
  0.100000000000E+01
  0.100000000000E+01
  0.100000000000E+01
  0.100000000000E+01
  0.100000000000E+01
  0.100000000000E+01
  0.100000000000E+01
  0.100000000000E+01
  0.100000000000E+01
  0.100000000000E+01
  0.100000000000E+01
  0.100000000000E+01
  0.100000000000E+01
  0.100000000000E+01
  0.100000000000E+01
  0.100000000000E+01
  0.100000000000E+01
  0.100000000000E+01
  0.100000000000E+01
  0.100000000000E+01
  0.100000000000E+01
  0.100000000000E+01
  0.100000000000E+01
  0.100000000000E+01
  0.100000000000E+01
  0.100000000000E+01
  0.100000000000E+01
  0.100000000000E+01
  0.100000000000E+01
  0.100000000000E+01
  0.100000000000E+01
  0.100000000000E+01
  0.100000000000E+01
  0.100000000000E+01
  0.100000000000E+01
  0.100000000000E+01
  0.100000000000E+01
  0.100000000000E+01
  0.100000000000E+01
  0.100000000000E+01
  0.100000000000E+01
  0.100000000000E+01
  0.100000000000E+01
  0.100000000000E+01
  0.100000000000E+01
  0.100000000000E+01
  0.100000000000E+01
  0.100000000000E+01
  0.100000000000E+01
  0.100000000000E+01
  0.100000000000E+01
  0.100000000000E+01
  0.100000000000E+01
  0.100000000000E+01
  0.100000000000E+01
  0.100000000000E+01
  0.100000000000E+01
  0.100000000000E+01
  0.100000000000E+01
  0.100000000000E+01
  0.100000000000E+01
  0.100000000000E+01
  0.100000000000E+01
  0.100000000000E+01
  0.100000000000E+01
  0.100000000000E+01
  0.100000000000E+01
  0.100000000000E+01
  0.100000000000E+01
  0.100000000000E+01
  0.100000000000E+01
  0.100000000000E+01
  0.100000000000E+01
  0.100000000000E+01
  0.100000000000E+01
  0.100000000000E+01
  0.100000000000E+01
  0.100000000000E+01
  0.100000000000E+01
  0.100000000000E+01
  0.100000000000E+01
  0.100000000000E+01
  0.100000000000E+01
  0.100000000000E+01
  0.100000000000E+01
  0.100000000000E+01
  0.100000000000E+01
  0.100000000000E+01
  0.100000000000E+01
  0.100000000000E+01
  0.100000000000E+01
  0.100000000000E+01
  0.100000000000E+01
  0.100000000000E+01
  0.100000000000E+01
  0.100000000000E+01
  0.100000000000E+01
  0.100000000000E+01
  0.100000000000E+01
  0.100000000000E+01
  0.100000000000E+01
  0.100000000000E+01
  0.100000000000E+01
  0.100000000000E+01
  0.100000000000E+01
  0.100000000000E+01
  0.100000000000E+01
  0.100000000000E+01
  0.100000000000E+01
  0.100000000000E+01
  0.100000000000E+01
  0.100000000000E+01
  0.100000000000E+01
  0.100000000000E+01
  0.100000000000E+01
  0.100000000000E+01
  0.100000000000E+01
  0.100000000000E+01
  0.100000000000E+01
  0.100000000000E+01
  0.100000000000E+01
  0.100000000000E+01
  0.100000000000E+01
  0.100000000000E+01
  0.100000000000E+01
  0.100000000000E+01
  0.100000000000E+01
  0.100000000000E+01
  0.100000000000E+01
  0.100000000000E+01
  0.100000000000E+01
  0.100000000000E+01
  0.100000000000E+01
  0.100000000000E+01
  0.100000000000E+01
  0.100000000000E+01
  0.100000000000E+01
  0.100000000000E+01
  0.100000000000E+01
  0.100000000000E+01
  0.100000000000E+01
  0.100000000000E+01
  0.100000000000E+01
  0.100000000000E+01
  0.100000000000E+01
  0.100000000000E+01
  0.100000000000E+01
  0.100000000000E+01
  0.100000000000E+01
  0.100000000000E+01
  0.100000000000E+01
  0.100000000000E+01
  0.100000000000E+01
  0.100000000000E+01
  0.100000000000E+01
  0.100000000000E+01
  0.100000000000E+01
  0.100000000000E+01
  0.100000000000E+01
  0.100000000000E+01
  0.100000000000E+01
  0.100000000000E+01
  0.100000000000E+01
  0.100000000000E+01
  0.100000000000E+01
  0.100000000000E+01
  0.100000000000E+01
  0.100000000000E+01
  0.100000000000E+01
  0.100000000000E+01
  0.100000000000E+01
  0.100000000000E+01
  0.100000000000E+01
  0.100000000000E+01
  0.100000000000E+01
  0.100000000000E+01
  0.100000000000E+01
  0.100000000000E+01
  0.100000000000E+01
  0.100000000000E+01
  0.100000000000E+01
  0.100000000000E+01
  0.100000000000E+01
  0.100000000000E+01
  0.100000000000E+01
  0.100000000000E+01
  0.100000000000E+01
  0.100000000000E+01
  0.100000000000E+01
  0.100000000000E+01
  0.100000000000E+01
  0.100000000000E+01
  0.100000000000E+01
  0.100000000000E+01
  0.100000000000E+01
  0.100000000000E+01
  0.100000000000E+01
  0.100000000000E+01
  0.100000000000E+01
  0.100000000000E+01
  0.100000000000E+01
  0.100000000000E+01
  0.100000000000E+01
  0.100000000000E+01
  0.100000000000E+01
  0.100000000000E+01
  0.100000000000E+01
  0.100000000000E+01
  0.100000000000E+01
  0.100000000000E+01
  0.100000000000E+01
  0.100000000000E+01
  0.100000000000E+01
  0.100000000000E+01
  0.100000000000E+01
  0.100000000000E+01
  0.100000000000E+01
  0.100000000000E+01
  0.100000000000E+01
  0.100000000000E+01
  0.100000000000E+01
  0.100000000000E+01
  0.100000000000E+01
  0.100000000000E+01
  0.100000000000E+01
  0.100000000000E+01
  0.100000000000E+01
  0.100000000000E+01
  0.100000000000E+01
  0.100000000000E+01
  0.100000000000E+01
  0.100000000000E+01
  0.100000000000E+01
  0.100000000000E+01
  0.100000000000E+01
  0.100000000000E+01
  0.100000000000E+01
  0.100000000000E+01
VECTORS v float
  0.152725830863E+03  0.369032352087E+01  0.159250836022E+02
  0.156430459985E+03  0.262265179199E+01  0.164350383795E+02
  0.160103585607E+03 -0.105049199579E+01  0.173787948408E+02
  0.162806244771E+03  0.635582440926E+00  0.174884110240E+02
  0.167242494498E+03 -0.380068940648E+01  0.166595603798E+02
  0.169217692237E+03 -0.526157343158E+00  0.165330058997E+02
  0.169740836058E+03 -0.104930674956E+01  0.352923336110E+01
  0.170966239687E+03 -0.557121113057E+01  0.364799571242E+01
  0.154346578262E+03  0.110484636022E+02 -0.198793865317E+02
  0.161802871306E+03 -0.926312198445E+01 -0.237315481335E+02
  0.984473853958E+02  0.540923870523E+02 -0.257104131127E+02
  0.104536197977E+03  0.405089903581E+02 -0.371134262575E+02
  0.147547095209E+03 -0.250190687464E+01  0.869760337984E+02
  0.130019650312E+03  0.365996805258E+02  0.541509660960E+02
  0.191615311515E+03 -0.249959983510E+02  0.300499313295E+02
  0.182599735993E+03 -0.436792886085E+00  0.253921946436E+02
  0.189543985329E+03 -0.738104169970E+01 -0.406928796137E+01
  0.189573669135E+03 -0.749057910351E+01 -0.407216778416E+01
  0.182422844098E+03 -0.339728543956E+00 -0.178010259349E+02
  0.178657281806E+03 -0.658237110350E+01 -0.180422942379E+02
  0.170967856728E+03  0.110709213614E+01 -0.183177078763E+02
  0.165931631045E+03 -0.203479700959E+01 -0.181134366858E+02
  0.159660685949E+03  0.423617910353E+01 -0.166077888020E+02
  0.154042365900E+03  0.585537581600E+01 -0.158344145018E+02
  0.152417831265E+03  0.790059922240E+01  0.154422791626E+02
  0.152770919338E+03  0.768433469917E+01  0.155031214444E+02
  0.158933006159E+03  0.152221232015E+01  0.169751169524E+02
  0.160131621989E+03  0.138835293642E+01  0.171188126417E+02
  0.165711430020E+03 -0.419148143813E+01  0.165484995745E+02
  0.167245427093E+03 -0.348863269251E+01  0.166294515184E+02
  0.170965540722E+03 -0.720876196027E+01  0.368182073520E+01
  0.171183198445E+03 -0.774385910542E+01  0.369737783671E+01
  0.162004862302E+03  0.143447977441E+01 -0.222755205714E+02
  0.163455195667E+03 -0.135264714856E+01 -0.228633792694E+02
  0.107963967863E+03  0.541386013565E+02 -0.311999184966E+02
  0.106730089101E+03  0.561125322635E+02 -0.293405055076E+02
  0.159218735058E+03  0.362388630591E+01  0.901906730002E+02
  0.151994326313E+03  0.151813222880E+02  0.793037755912E+02
  0.196577839711E+03 -0.294021994220E+02  0.313496408434E+02
  0.191708790552E+03 -0.200452777782E+02  0.293760990386E+02
  0.189427702436E+03 -0.177641741504E+02 -0.428145015423E+01
  0.189539436220E+03 -0.180388641861E+02 -0.428943308523E+01
  0.178651935009E+03 -0.715132489738E+01 -0.180971896403E+02
  0.175387817431E+03 -0.864688265986E+01 -0.179249346309E+02
  0.165963955064E+03  0.777024036872E+00 -0.178136950928E+02
  0.163156057034E+03  0.109060557267E+01 -0.174770736850E+02
  0.154090913498E+03  0.101558014209E+02 -0.153800800001E+02
  0.152984316687E+03  0.108335863243E+02 -0.151894063537E+02
  0.152237500512E+03  0.914219501320E+01  0.152903479054E+02
  0.152430179045E+03  0.899438649815E+01  0.153267219709E+02
  0.158669121465E+03  0.275540741311E+01  0.168136624731E+02
  0.158945704482E+03  0.262682154634E+01  0.168573650173E+02
  0.165042280406E+03 -0.346978247722E+01  0.164130306813E+02
  0.165717448218E+03 -0.355108524615E+01  0.164867109187E+02
  0.171182655324E+03 -0.901631265235E+01  0.372366107471E+01
  0.170355675063E+03 -0.746593967062E+01  0.367453457308E+01
  0.163469783833E+03 -0.580046949316E+00 -0.227582222792E+02
  0.162589528827E+03  0.783654217668E+00 -0.224469130381E+02
  0.106836712658E+03  0.565364913837E+02 -0.291565610299E+02
  0.104486661118E+03  0.596932479515E+02 -0.259645333887E+02