# vtk DataFile Version 3.0
TriPan results file. Generated by TriPan, USU AeroLab (c) 2021.
ASCII
DATASET POLYDATA
POINTS                 482 float
  0.130247308752E-04  0.000000000000E+00  0.000000000000E+00
  0.473471998374E+00  0.000000000000E+00 -0.436280480279E+00
  0.473471998374E+00  0.000000000000E+00  0.436280480279E+00
  0.757906115597E+00  0.757886492666E+00  0.970884839498E-21
  0.123136895910E+01  0.757889807076E+00 -0.436282030868E+00
  0.123136895910E+01  0.757889807076E+00  0.436282030868E+00
  0.157642335882E+01  0.000000000000E+00 -0.760501285105E+00
  0.157642335882E+01  0.000000000000E+00  0.760501285105E+00
  0.178898577720E+01  0.178896136254E+01  0.402655090288E-21
  0.226244758528E+01  0.178896571238E+01 -0.436279675842E+00
  0.226244758528E+01  0.178896571238E+01  0.436279675842E+00
  0.233432052349E+01  0.757892272727E+00 -0.760501900766E+00
  0.233432052349E+01  0.757892272727E+00  0.760501900766E+00
  0.317281291859E+01  0.317278244121E+01 -0.502643732574E-21
  0.336539878957E+01  0.178896889576E+01 -0.760499161643E+00
  0.336539878957E+01  0.178896889576E+01  0.760499161643E+00
  0.342464590410E+01  0.000000000000E+00 -0.102346395851E+01
  0.342464590410E+01  0.000000000000E+00  0.102346395851E+01
  0.364627391137E+01  0.317278808318E+01 -0.436276653421E+00
  0.364627391137E+01  0.317278808318E+01  0.436276653421E+00
  0.418254366712E+01  0.757894007404E+00 -0.102346449441E+01
  0.418254366712E+01  0.757894007404E+00  0.102346449441E+01
  0.474922443846E+01  0.317279218218E+01 -0.760495703661E+00
  0.474922443846E+01  0.317279218218E+01  0.760495703661E+00
  0.499663525975E+01  0.499659746731E+01  0.623286393957E-21
  0.521362228604E+01  0.178897099285E+01 -0.102346181793E+01
  0.521362228604E+01  0.178897099285E+01  0.102346181793E+01
  0.547009495982E+01  0.499660464040E+01 -0.436273007752E+00
  0.547009495982E+01  0.499660464040E+01  0.436273007752E+00
  0.611307615049E+01  0.000000000000E+00 -0.114005132092E+01
  0.611307615049E+01  0.000000000000E+00  0.114005132092E+01
  0.657304508535E+01  0.499660985621E+01 -0.760491503240E+00
  0.657304508535E+01  0.499660985621E+01  0.760491503240E+00
  0.659744842488E+01  0.317279474301E+01 -0.102345839923E+01
  0.659744842488E+01  0.317279474301E+01  0.102345839923E+01
  0.687097446281E+01  0.757896382042E+00 -0.114005132102E+01
  0.687097446281E+01  0.757896382042E+00  0.114005132102E+01
  0.734364762990E+01  0.734360155376E+01  0.227971256176E-20
  0.781710611506E+01  0.734361041860E+01 -0.436268825882E+00
  0.781710611506E+01  0.734361041860E+01  0.436268825882E+00
  0.790205327048E+01  0.178897365557E+01 -0.114004877659E+01
  0.790205327048E+01  0.178897365557E+01  0.114004877659E+01
  0.842126898126E+01  0.499661298439E+01 -0.102345420801E+01
  0.842126898126E+01  0.499661298439E+01  0.102345420801E+01
  0.892005543328E+01  0.734361691857E+01 -0.760486638111E+00
  0.892005543328E+01  0.734361691857E+01  0.760486638111E+00
  0.928587999311E+01  0.317279777561E+01 -0.114004537243E+01
  0.928587999311E+01  0.317279777561E+01  0.114004537243E+01
  0.939508651117E+01  0.000000000000E+00 -0.980721943788E+00
  0.939508651117E+01  0.000000000000E+00  0.980721943788E+00
  0.101529844880E+02  0.757898342664E+00 -0.980717159871E+00
  0.101529844880E+02  0.757898342664E+00  0.980717159871E+00
  0.102728649761E+02  0.102728103017E+02  0.360684024404E-20
  0.107463222437E+02  0.102728208609E+02 -0.436264448741E+00
  0.107463222437E+02  0.102728208609E+02  0.436264448741E+00
  0.107682810595E+02  0.734362070066E+01 -0.102344938071E+01
  0.107682810595E+02  0.734362070066E+01  0.102344938071E+01
  0.111097029560E+02  0.499661647156E+01 -0.114004119345E+01
  0.111097029560E+02  0.499661647156E+01  0.114004119345E+01
  0.111840645989E+02  0.178897574353E+01 -0.980715540156E+00
  0.111840645989E+02  0.178897574353E+01  0.980715540156E+00
  0.118492721062E+02  0.102728287239E+02 -0.760481600830E+00
  0.118492721062E+02  0.102728287239E+02  0.760481600830E+00
  0.125678925784E+02  0.317280003715E+01 -0.980713411564E+00
  0.125678925784E+02  0.317280003715E+01  0.980713411564E+00
  0.126670289110E+02  0.000000000000E+00 -0.678028198026E+00
  0.126670289110E+02  0.000000000000E+00  0.678028198026E+00
  0.134249282109E+02  0.757898665790E+00 -0.678029104408E+00
  0.134249282109E+02  0.757898665790E+00  0.678029104408E+00
  0.134567154615E+02  0.734362471414E+01 -0.114003661032E+01
  0.134567154615E+02  0.734362471414E+01  0.114003661032E+01
  0.136974979908E+02  0.102728332013E+02 -0.102344441904E+01
  0.136974979908E+02  0.102728332013E+02  0.102344441904E+01
  0.137921531606E+02  0.137920906138E+02 -0.412617430891E-20
  0.142656089637E+02  0.137921026376E+02 -0.436260406143E+00
  0.142656089637E+02  0.137921026376E+02  0.436260406143E+00
  0.143917162623E+02  0.499661896565E+01 -0.980710472824E+00
  0.143917162623E+02  0.499661896565E+01  0.980710472824E+00
  0.144560092949E+02  0.178897604722E+01 -0.678028179987E+00
  0.144560092949E+02  0.178897604722E+01  0.678028179987E+00
  0.153437545560E+02  0.000000000000E+00 -0.393011337881E+00
  0.153437545560E+02  0.000000000000E+00  0.393011337881E+00
  0.153685584878E+02  0.137921117926E+02 -0.760477029805E+00
  0.153685584878E+02  0.137921117926E+02  0.760477029805E+00
  0.158398391737E+02  0.317280034896E+01 -0.678026550975E+00
  0.158398391737E+02  0.317280034896E+01  0.678026550975E+00
  0.161016539381E+02  0.757898326130E+00 -0.393012384982E+00
  0.161016539381E+02  0.757898326130E+00  0.393012384982E+00
  0.163859346921E+02  0.102728377765E+02 -0.114003176519E+01
  0.163859346921E+02  0.102728377765E+02  0.114003176519E+01
  0.167387322842E+02  0.734362750662E+01 -0.980706810415E+00
  0.167387322842E+02  0.734362750662E+01  0.980706810415E+00
  0.171327359313E+02  0.178897575201E+01 -0.393011040775E+00
  0.171327359313E+02  0.178897575201E+01  0.393011040775E+00
  0.172004302801E+02  0.000000000000E+00 -0.192492534141E+00
  0.172004302801E+02  0.000000000000E+00  0.192492534141E+00
  0.172167865738E+02  0.137921169296E+02 -0.102343998227E+01
  0.172167865738E+02  0.137921169296E+02  0.102343998227E+01
  0.176636647076E+02  0.499661933474E+01 -0.678023871616E+00
  0.176636647076E+02  0.499661933474E+01  0.678023871616E+00
  0.178320406685E+02  0.178319722405E+02 -0.338561949531E-20
  0.179583305519E+02  0.757897814089E+00 -0.192492887904E+00
  0.179583305519E+02  0.757897814089E+00  0.192492887904E+00
  0.183054964506E+02  0.178319852389E+02 -0.436257353844E+00
  0.183054964506E+02  0.178319852389E+02  0.436257353844E+00
  0.183450401686E+02  0.000000000000E+00 -0.698557350169E-01
  0.183450401686E+02  0.000000000000E+00  0.698557350169E-01
  0.185165666873E+02  0.317280013019E+01 -0.393008719136E+00
  0.185165666873E+02  0.317280013019E+01  0.393008719136E+00
  0.189894143765E+02  0.178897531578E+01 -0.192490754164E+00
  0.189894143765E+02  0.178897531578E+01  0.192490754164E+00
  0.189999910876E+02 -0.706716667334E-07 -0.662507154444E-06
  0.191029403208E+02  0.757897496463E+00 -0.698549383524E-01
  0.191029403208E+02  0.757897496463E+00  0.698549383524E-01
  0.194084449479E+02  0.178319954208E+02 -0.760473692460E+00
  0.194084449479E+02  0.178319954208E+02  0.760473692460E+00
  0.196679540248E+02  0.102728409201E+02 -0.980702505042E+00
  0.196679540248E+02  0.102728409201E+02  0.980702505042E+00
  0.197578924863E+02  0.757904055872E+00 -0.817590626343E-06
  0.199052256017E+02  0.137921220393E+02 -0.114002743811E+01
  0.199052256017E+02  0.137921220393E+02  0.114002743811E+01
  0.200106815730E+02  0.734362798583E+01 -0.678020158371E+00
  0.200106815730E+02  0.734362798583E+01  0.678020158371E+00
  0.201340240748E+02  0.178897506881E+01 -0.698520928202E-01
  0.201340240748E+02  0.178897506881E+01  0.698520928202E-01
  0.203403940275E+02  0.499661921715E+01 -0.393005166852E+00
  0.203403940275E+02  0.499661921715E+01  0.393005166852E+00
  0.203732450409E+02  0.317279978560E+01 -0.192487498987E+00
  0.203732450409E+02  0.317279978560E+01  0.192487498987E+00
  0.207889742179E+02  0.178898365075E+01 -0.106324915596E-05
  0.212566753703E+02  0.178320010825E+02 -0.102343680753E+01
  0.212566753703E+02  0.178320010825E+02  0.102343680753E+01
  0.215178546867E+02  0.317279959111E+01 -0.698482663852E-01
  0.215178546867E+02  0.317279959111E+01  0.698482663852E-01
  0.221728041694E+02  0.317281074082E+01 -0.137756024601E-05
  0.221970742095E+02  0.499661895150E+01 -0.192483120200E+00
  0.221970742095E+02  0.499661895150E+01  0.192483120200E+00
  0.222339661801E+02  0.222338949955E+02 -0.352200781662E-20
  0.226874146054E+02  0.734362797048E+01 -0.393000569122E+00
  0.226874146054E+02  0.734362797048E+01  0.393000569122E+00
  0.227074235883E+02  0.222339082751E+02 -0.436255960272E+00
  0.227074235883E+02  0.222339082751E+02  0.436255960272E+00
  0.229399069889E+02  0.102728415388E+02 -0.678015729259E+00
  0.229399069889E+02  0.102728415388E+02  0.678015729259E+00
  0.231872483860E+02  0.137921255459E+02 -0.980698278886E+00
  0.231872483860E+02  0.137921255459E+02  0.980698278886E+00
  0.233416838233E+02  0.499661878904E+01 -0.698435004566E-01
  0.233416838233E+02  0.499661878904E+01  0.698435004566E-01
  0.238103734204E+02  0.222339190297E+02 -0.760472335773E+00
  0.238103734204E+02  0.222339190297E+02  0.760472335773E+00
  0.239451177867E+02  0.178320066182E+02 -0.114002437110E+01
  0.239451177867E+02  0.178320066182E+02  0.114002437110E+01
  0.239966302105E+02  0.499663303420E+01 -0.175828638870E-05
  0.245440947328E+02  0.734362775945E+01 -0.192477880815E+00
  0.245440947328E+02  0.734362775945E+01  0.192477880815E+00
  0.256166418408E+02  0.102728416112E+02 -0.392995421349E+00
  0.256166418408E+02  0.102728416112E+02  0.392995421349E+00
  0.256586054572E+02  0.222339249841E+02 -0.102343585009E+01
  0.256586054572E+02  0.222339249841E+02  0.102343585009E+01
  0.256887062361E+02  0.734362761471E+01 -0.698379650477E-01
  0.256887062361E+02  0.734362761471E+01  0.698379650477E-01
[...]
POINT_DATA                 482
SCALARS phi float 1
LOOKUP_TABLE default
 -0.129880679971E-04
 -0.439427482969E+00
 -0.504850992870E+00
 -0.755772711081E+00
 -0.119519094868E+01
 -0.126061469111E+01
 -0.151496451945E+01
 -0.162900735566E+01
 -0.178395002111E+01
 -0.222336740278E+01
 -0.228879079205E+01
 -0.227072825863E+01
 -0.238477118717E+01
 -0.316388187387E+01
 -0.329890438245E+01
 -0.341294690023E+01
 -0.333826795860E+01
 -0.349174400772E+01
 -0.360329866916E+01
 -0.366872160520E+01
 -0.409403230043E+01
 -0.424750842992E+01
 -0.467883500618E+01
 -0.479287700542E+01
 -0.498257039867E+01
 -0.512220877139E+01
 -0.527568449951E+01
 -0.542198617823E+01
 -0.548740856757E+01
 -0.601038906081E+01
 -0.618134825393E+01
 -0.649752215643E+01
 -0.661156352578E+01
 -0.650213988075E+01
 -0.665561509622E+01
 -0.676615399058E+01
 -0.693711318371E+01
 -0.732297624239E+01
 -0.776239112401E+01
 -0.782781288625E+01
 -0.779433063986E+01
 -0.796528945143E+01
 -0.832082694005E+01
 -0.847430152701E+01
 -0.883792634839E+01
 -0.895196698818E+01
 -0.917426233028E+01
 -0.934522063138E+01
 -0.929510731440E+01
 -0.944217387983E+01
 -0.100508722683E+02
 -0.101979381164E+02
 -0.102439482329E+02
 -0.106833622286E+02
 -0.107487833344E+02
 -0.106612328546E+02
 -0.108147067177E+02
 -0.109929517884E+02
 -0.111639094628E+02
 -0.110790501478E+02
 -0.112261157529E+02
 -0.117588980452E+02
 -0.118729379296E+02
 -0.124589829959E+02
 -0.126060482819E+02
 -0.125805352250E+02
 -0.126822106070E+02
 -0.133363010715E+02
 -0.134379765895E+02
 -0.133333581107E+02
 -0.135043150979E+02
 -0.135822048034E+02
 -0.137356779225E+02
 -0.137533300910E+02
 -0.141927429295E+02
 -0.142581634291E+02
 -0.142776730800E+02
 -0.144247379253E+02
 -0.143644798693E+02
 -0.144661552486E+02
 -0.152710964460E+02
 -0.153300314255E+02
 -0.152682784483E+02
 -0.153823176472E+02
 -0.157444145738E+02
 -0.158460897089E+02
 -0.160268623640E+02
 -0.160857975005E+02
 -0.162543323436E+02
 -0.164252886042E+02
 -0.166180828399E+02
 -0.167651471359E+02
 -0.170550420998E+02
 -0.171139770347E+02
 -0.171375805204E+02
 -0.171664462106E+02
 -0.170915873916E+02
 -0.172450598454E+02
 -0.175631064834E+02
 -0.176647812167E+02
 -0.177818458551E+02
 -0.178933473776E+02
 -0.179222131209E+02
 -0.182212589013E+02
 -0.182866789433E+02
 -0.182881636360E+02
 -0.182986390241E+02
 -0.184349777311E+02
 -0.184939123179E+02
 -0.189215289989E+02
 -0.189503944223E+02
 -0.189465086000E+02
 -0.190439304602E+02
 -0.190544057288E+02
 -0.192967934177E+02
 -0.194108321162E+02
 -0.195390595351E+02
 -0.196861231856E+02
 -0.197022765958E+02
 -0.197637172436E+02
 -0.199346728553E+02
 -0.199035170881E+02
 -0.200051912646E+02
 -0.200721120644E+02
 -0.200825869064E+02
 -0.202536715072E+02
 -0.203126055613E+02
 -0.203014646089E+02
 -0.203303295441E+02
 -0.207304559516E+02
 -0.211201046786E+02
 -0.212735766562E+02
 -0.214520476648E+02
 -0.214625219330E+02
 -0.221103905830E+02
 -0.221201602702E+02
 -0.221490245488E+02
 -0.221713805341E+02
 -0.225940858803E+02
 -0.226530192449E+02
 -0.226107953064E+02
 -0.226762151394E+02
 -0.228244974576E+02
 -0.229261709699E+02
 -0.230484478695E+02
 -0.231955108862E+02
 -0.232707433233E+02
 -0.232812168768E+02
 -0.236863311509E+02
 -0.238003696460E+02
 -0.237922379015E+02
 -0.239631930533E+02
 -0.239290827688E+02
 -0.244605746369E+02
 -0.244894381298E+02
 -0.255150681181E+02
 -0.255740007108E+02
 -0.255096439919E+02
 -0.256631158259E+02
 -0.256111595965E+02
 -0.256216323199E+02
 -0.262694951086E+02
 -0.263338894729E+02
 -0.264355623312E+02
 -0.266907615184E+02
 -0.270769720364E+02
 -0.272240345563E+02
 -0.271301748169E+02
 -0.271955947436E+02
 -0.273815587807E+02
 -0.274104214247E+02
 -0.282057144320E+02
 -0.283197530876E+02
 -0.281817807730E+02
 -0.283527357980E+02
 -0.285321437487E+02
 -0.285426155885E+02
 -0.290244620116E+02
 -0.290833938598E+02
 -0.291904770838E+02
 -0.300290291480E+02
 -0.301825011961E+02
 -0.303624173512E+02
 -0.304640897112E+02
 -0.308909545853E+02
 -0.309198164244E+02
 -0.310802926044E+02
 -0.314665204681E+02
 -0.316135827502E+02
 -0.315197087324E+02
 -0.315851290555E+02
 -0.320415433693E+02
 -0.320520143720E+02
 -0.325952507521E+02
 -0.327092899410E+02
 -0.326998710753E+02
 -0.327011678129E+02
 -0.328721230877E+02
 -0.330529936854E+02
 -0.331119249543E+02
 -0.344185695356E+02
 -0.345720421730E+02
 -0.347519714481E+02
 -0.348536435921E+02
 -0.349194881755E+02
 -0.349483493826E+02
 -0.351088019278E+02
 -0.355482211932E+02
 -0.356136421434E+02
 -0.359859113324E+02
 -0.361329737369E+02
 -0.360700769734E+02
 -0.360805473136E+02
 -0.366237641531E+02
 -0.367378041366E+02
 -0.367284057097E+02
 -0.370907122315E+02
 -0.372616681150E+02
 -0.374425496926E+02
 -0.375014806775E+02
 -0.384470834135E+02
 -0.386005569371E+02
 -0.386181747356E+02
 -0.390575953330E+02
 -0.391230170411E+02
 -0.392713680464E+02
 -0.393730403397E+02
 -0.393090480069E+02
 -0.393379088793E+02
 -0.401331394837E+02
 -0.402471804200E+02
 -0.403754597368E+02
 -0.405225226383E+02
 -0.404596406229E+02
 -0.404701106001E+02
 -0.411179680760E+02
 -0.411192341316E+02
 -0.412901909210E+02
 -0.415391396130E+02
 -0.419619539323E+02
 -0.420208849996E+02
 -0.419785614761E+02
 -0.420439839654E+02
 -0.419564631797E+02
 -0.421099377073E+02
 -0.430541068918E+02
 -0.431681487973E+02
 -0.436609203564E+02
 -0.437625931456E+02
 -0.438284522680E+02
 -0.438573131817E+02
 -0.438795369438E+02
 -0.443189599096E+02
 -0.443843831239E+02
 -0.444039857697E+02
 -0.445510494533E+02
 -0.446286182154E+02
 -0.447995760464E+02
 -0.448774350543E+02
 -0.450309106113E+02
 -0.449790448975E+02
 -0.449895148900E+02
 -0.453945103226E+02
 -0.455085531269E+02
 -0.456373728317E+02
 -0.456982180115E+02
 -0.461376418808E+02
 -0.462030657176E+02
 -0.463515100957E+02
 -0.464104416115E+02
 -0.470781434340E+02
 -0.472131933365E+02
 -0.473272369045E+02
 -0.472178391081E+02
 -0.473713156209E+02
 -0.475175680077E+02
 -0.475829923558E+02
 -0.475495906405E+02
 -0.477205495194E+02
 -0.476894503397E+02
 -0.477911238875E+02
 -0.479133740543E+02
 -0.480604386894E+02
 -0.481063173366E+02
 -0.482180122594E+02
 -0.482468735880E+02
 -0.485457424419E+02
 -0.486111671881E+02
 -0.485931241226E+02
 -0.487071683165E+02
 -0.488620767531E+02
 -0.490365226653E+02
 -0.491899999855E+02
 -0.493015033554E+02
 -0.493669286377E+02
 -0.493686049020E+02
 -0.493790752857E+02
 -0.494734247072E+02
 -0.495337088432E+02
 -0.496187281566E+02
 -0.496649910784E+02
 -0.496212954264E+02
 -0.497353401031E+02
 -0.497223650597E+02
 -0.497478317111E+02
 -0.497692879811E+02
 -0.498899952191E+02
 -0.500609550533E+02
 -0.500269387795E+02
 -0.503800401452E+02
 -0.504389723850E+02
 -0.503770612315E+02
 -0.504911064707E+02
 -0.504164538987E+02
 -0.505699318751E+02
 -0.506767403282E+02
 -0.507818236577E+02
 -0.508343506990E+02
 -0.509814162956E+02
 -0.509300251673E+02
 -0.510106676362E+02
 -0.511106784022E+02
 -0.511550701577E+02
 -0.511924746740E+02
 -0.511988426022E+02
 -0.513005170258E+02
 -0.514446293547E+02
 -0.515981078405E+02
 -0.517086830255E+02
 -0.518796436833E+02
 -0.522465461374E+02
 -0.522754081707E+02
 -0.522003918492E+02
 -0.523538708517E+02
 -0.526036961920E+02
 -0.527451143337E+02
 -0.529445589032E+02
 -0.530530852343E+02
 -0.530886146292E+02
 -0.532595759409E+02
 -0.531876790921E+02
 -0.532474202546E+02
 -0.531747594632E+02
 -0.533218259298E+02
 -0.532977562788E+02
 -0.533971425945E+02
 -0.534076136676E+02
 -0.538894362842E+02
 -0.539483693917E+02
 -0.540554798337E+02
 -0.541198232207E+02
 -0.542214984845E+02
 -0.541167903741E+02
 -0.542877521931E+02
 -0.548725569772E+02
 -0.550435193028E+02
 -0.549934476054E+02
 -0.551405147717E+02
 -0.553218041878E+02
 -0.554793316892E+02
 -0.557014958213E+02
 -0.558223847059E+02
 -0.557559461070E+02
 -0.557848090052E+02
 -0.559723144340E+02
 -0.560388608852E+02
 -0.560949316123E+02
 -0.563733832843E+02
 -0.565204509684E+02
 -0.564602321285E+02
 -0.565619081050E+02
 -0.568104207746E+02
 -0.568693547546E+02
 -0.569065425736E+02
 -0.569170145057E+02
 -0.574015592426E+02
 -0.575486272975E+02
 -0.575648837998E+02
 -0.581573260649E+02
 -0.583043944407E+02
 -0.582789241821E+02
 -0.583806006850E+02
 -0.585437860236E+02
 -0.586792971137E+02
 -0.586769306263E+02
 -0.587057944190E+02
 -0.588704160330E+02
 -0.589744090684E+02
 -0.591033841531E+02
 -0.591606296822E+02
 -0.591508335548E+02
 -0.592097682962E+02
 -0.592088619252E+02
 -0.596588599335E+02
 -0.597605367845E+02
 -0.598275271023E+02
 -0.598379999358E+02
 -0.604858723816E+02
 -0.606870397402E+02
 -0.607887168120E+02
 -0.609695256680E+02
 -0.610284609983E+02
 -0.610173434363E+02
 -0.610462080467E+02
 -0.614428066084E+02
 -0.615444838668E+02
 -0.617099939165E+02
 -0.618036809398E+02
 -0.619358127569E+02
 -0.620077094798E+02
 -0.620968766152E+02
 -0.621364540139E+02
 -0.621698028680E+02
 -0.621679437283E+02
 -0.621784174035E+02
 -0.623494614623E+02
 -0.624083972087E+02
 -0.628262927228E+02
 -0.628360393824E+02
 -0.628649046661E+02
 -0.633776412983E+02
 -0.634365773131E+02
 -0.639866396895E+02
 -0.639971140862E+02
 -0.641334119928E+02
 -0.641923482428E+02
 -0.642159752058E+02
 -0.642448409925E+02
 -0.642882817583E+02
 -0.643425866172E+02
 -0.644191766963E+02
 -0.644608509953E+02
 -0.645125425108E+02
 -0.645354832002E+02
 -0.645548098565E+02
 -0.646449918425E+02
 -0.652441550684E+02
 -0.652730212002E+02
 -0.653665793356E+02
 -0.653770543044E+02
 -0.659999257851E+02
 -0.660287922302E+02
 -0.660249340159E+02
 -0.660757774380E+02
 -0.661023755963E+02
 -0.661398937298E+02
 -0.661603055231E+02
 -0.661856251402E+02
 -0.661968613373E+02
 -0.662063298766E+02
 -0.663947592167E+02
 -0.664052346064E+02
 -0.670531158060E+02
 -0.671505223481E+02
 -0.671609981494E+02
 -0.671780562725E+02
 -0.671877091525E+02
 -0.672013254763E+02
 -0.672087332446E+02
 -0.672179171818E+02
 -0.672219950008E+02
 -0.672254339495E+02
 -0.678088840341E+02
 -0.197022767184E+02
 -0.189465086993E+02
 -0.207304561110E+02
 -0.221103907895E+02
 -0.239290830325E+02
 -0.262694954370E+02
 -0.291904774794E+02
 -0.326998715325E+02
 -0.367284062129E+02
 -0.411179686008E+02
 -0.456373733490E+02
 -0.500269392620E+02
 -0.540554802612E+02
 -0.575648841619E+02
 -0.604858726770E+02
 -0.628262929569E+02
 -0.646449920247E+02
 -0.660249341565E+02
 -0.670531159152E+02
SCALARS phi_mu float 1
LOOKUP_TABLE default
 -0.129880679971E-04
 -0.439427482969E+00
 -0.504850992870E+00
 -0.755772711081E+00
 -0.119519094868E+01
 -0.126061469111E+01
 -0.151496451945E+01
 -0.162900735566E+01
 -0.178395002111E+01
 -0.222336740278E+01
 -0.228879079205E+01
 -0.227072825863E+01
 -0.238477118717E+01
 -0.316388187387E+01
 -0.329890438245E+01
 -0.341294690023E+01
 -0.333826795860E+01
 -0.349174400772E+01
 -0.360329866916E+01
 -0.366872160520E+01
 -0.409403230043E+01
 -0.424750842992E+01
 -0.467883500618E+01
 -0.479287700542E+01
 -0.498257039867E+01
 -0.512220877139E+01
 -0.527568449951E+01
 -0.542198617823E+01
 -0.548740856757E+01
 -0.601038906081E+01
 -0.618134825393E+01
 -0.649752215643E+01
 -0.661156352578E+01
 -0.650213988075E+01
 -0.665561509622E+01
 -0.676615399058E+01
 -0.693711318371E+01
 -0.732297624239E+01
 -0.776239112401E+01
 -0.782781288625E+01
 -0.779433063986E+01
 -0.796528945143E+01
 -0.832082694005E+01
 -0.847430152701E+01
 -0.883792634839E+01
 -0.895196698818E+01
 -0.917426233028E+01
 -0.934522063138E+01
 -0.929510731440E+01
 -0.944217387983E+01
 -0.100508722683E+02
 -0.101979381164E+02
 -0.102439482329E+02
 -0.106833622286E+02
 -0.107487833344E+02
 -0.106612328546E+02
 -0.108147067177E+02
 -0.109929517884E+02
 -0.111639094628E+02
 -0.110790501478E+02
 -0.112261157529E+02
 -0.117588980452E+02
 -0.118729379296E+02
 -0.124589829959E+02
 -0.126060482819E+02
 -0.125805352250E+02
 -0.126822106070E+02
 -0.133363010715E+02
 -0.134379765895E+02
 -0.133333581107E+02
 -0.135043150979E+02
 -0.135822048034E+02
 -0.137356779225E+02
 -0.137533300910E+02
 -0.141927429295E+02
 -0.142581634291E+02
 -0.142776730800E+02
 -0.144247379253E+02
 -0.143644798693E+02
 -0.144661552486E+02
 -0.152710964460E+02
 -0.153300314255E+02
 -0.152682784483E+02
 -0.153823176472E+02
 -0.157444145738E+02
 -0.158460897089E+02
 -0.160268623640E+02
 -0.160857975005E+02
 -0.162543323436E+02
 -0.164252886042E+02
 -0.166180828399E+02
 -0.167651471359E+02
 -0.170550420998E+02
 -0.171139770347E+02
 -0.171375805204E+02
 -0.171664462106E+02
 -0.170915873916E+02
 -0.172450598454E+02
 -0.175631064834E+02
 -0.176647812167E+02
 -0.177818458551E+02
 -0.178933473776E+02
 -0.179222131209E+02
 -0.182212589013E+02
 -0.182866789433E+02
 -0.182881636360E+02
 -0.182986390241E+02
 -0.184349777311E+02
 -0.184939123179E+02
 -0.189215289989E+02
 -0.189503944223E+02
 -0.189465086000E+02
 -0.190439304602E+02
 -0.190544057288E+02
 -0.192967934177E+02
 -0.194108321162E+02
 -0.195390595351E+02
 -0.196861231856E+02
 -0.197022765958E+02
 -0.197637172436E+02
 -0.199346728553E+02
 -0.199035170881E+02
 -0.200051912646E+02
 -0.200721120644E+02
 -0.200825869064E+02
 -0.202536715072E+02
 -0.203126055613E+02
 -0.203014646089E+02
 -0.203303295441E+02
 -0.207304559516E+02
 -0.211201046786E+02
 -0.212735766562E+02
 -0.214520476648E+02
 -0.214625219330E+02
 -0.221103905830E+02
 -0.221201602702E+02
 -0.221490245488E+02
 -0.221713805341E+02
 -0.225940858803E+02
 -0.226530192449E+02
 -0.226107953064E+02
 -0.226762151394E+02
 -0.228244974576E+02
 -0.229261709699E+02
 -0.230484478695E+02
 -0.231955108862E+02
 -0.232707433233E+02
 -0.232812168768E+02
 -0.236863311509E+02
 -0.238003696460E+02
 -0.237922379015E+02
 -0.239631930533E+02
 -0.239290827688E+02
 -0.244605746369E+02
 -0.244894381298E+02
 -0.255150681181E+02
 -0.255740007108E+02
 -0.255096439919E+02
 -0.256631158259E+02
 -0.256111595965E+02
 -0.256216323199E+02
 -0.262694951086E+02
 -0.263338894729E+02
 -0.264355623312E+02
 -0.266907615184E+02
 -0.270769720364E+02
 -0.272240345563E+02
 -0.271301748169E+02
 -0.271955947436E+02
 -0.273815587807E+02
 -0.274104214247E+02
 -0.282057144320E+02
 -0.283197530876E+02
 -0.281817807730E+02
 -0.283527357980E+02
 -0.285321437487E+02
 -0.285426155885E+02
 -0.290244620116E+02
 -0.290833938598E+02
 -0.291904770838E+02
 -0.300290291480E+02
 -0.301825011961E+02
 -0.303624173512E+02
 -0.304640897112E+02
 -0.308909545853E+02
 -0.309198164244E+02
 -0.310802926044E+02
 -0.314665204681E+02
 -0.316135827502E+02
 -0.315197087324E+02
 -0.315851290555E+02
 -0.320415433693E+02
 -0.320520143720E+02
 -0.325952507521E+02
 -0.327092899410E+02
 -0.326998710753E+02
 -0.327011678129E+02
 -0.328721230877E+02
 -0.330529936854E+02
 -0.331119249543E+02
 -0.344185695356E+02
 -0.345720421730E+02
 -0.347519714481E+02
 -0.348536435921E+02
 -0.349194881755E+02
 -0.349483493826E+02
 -0.351088019278E+02
 -0.355482211932E+02
 -0.356136421434E+02
 -0.359859113324E+02
 -0.361329737369E+02
 -0.360700769734E+02
 -0.360805473136E+02
 -0.366237641531E+02
 -0.367378041366E+02
 -0.367284057097E+02
 -0.370907122315E+02
 -0.372616681150E+02
 -0.374425496926E+02
 -0.375014806775E+02
 -0.384470834135E+02
 -0.386005569371E+02
 -0.386181747356E+02
 -0.390575953330E+02
 -0.391230170411E+02
 -0.392713680464E+02
 -0.393730403397E+02
 -0.393090480069E+02
 -0.393379088793E+02
 -0.401331394837E+02
 -0.402471804200E+02
 -0.403754597368E+02
 -0.405225226383E+02
 -0.404596406229E+02
 -0.404701106001E+02
 -0.411179680760E+02
 -0.411192341316E+02
 -0.412901909210E+02
 -0.415391396130E+02
 -0.419619539323E+02
 -0.420208849996E+02
 -0.419785614761E+02
 -0.420439839654E+02
 -0.419564631797E+02
 -0.421099377073E+02
 -0.430541068918E+02
 -0.431681487973E+02
 -0.436609203564E+02
 -0.437625931456E+02
 -0.438284522680E+02
 -0.438573131817E+02
 -0.438795369438E+02
 -0.443189599096E+02
 -0.443843831239E+02
 -0.444039857697E+02
 -0.445510494533E+02
 -0.446286182154E+02
 -0.447995760464E+02
 -0.448774350543E+02
 -0.450309106113E+02
 -0.449790448975E+02
 -0.449895148900E+02
 -0.453945103226E+02
 -0.455085531269E+02
 -0.456373728317E+02
 -0.456982180115E+02
 -0.461376418808E+02
 -0.462030657176E+02
 -0.463515100957E+02
 -0.464104416115E+02
 -0.470781434340E+02
 -0.472131933365E+02
 -0.473272369045E+02
 -0.472178391081E+02
 -0.473713156209E+02
 -0.475175680077E+02
 -0.475829923558E+02
 -0.475495906405E+02
 -0.477205495194E+02
 -0.476894503397E+02
 -0.477911238875E+02
 -0.479133740543E+02
 -0.480604386894E+02
 -0.481063173366E+02
 -0.482180122594E+02
 -0.482468735880E+02
 -0.485457424419E+02
 -0.486111671881E+02
 -0.485931241226E+02
 -0.487071683165E+02
 -0.488620767531E+02
 -0.490365226653E+02
 -0.491899999855E+02
 -0.493015033554E+02
 -0.493669286377E+02
 -0.493686049020E+02
 -0.493790752857E+02
 -0.494734247072E+02
 -0.495337088432E+02
 -0.496187281566E+02
 -0.496649910784E+02
 -0.496212954264E+02
 -0.497353401031E+02
 -0.497223650597E+02
 -0.497478317111E+02
 -0.497692879811E+02
 -0.498899952191E+02
 -0.500609550533E+02
 -0.500269387795E+02
 -0.503800401452E+02
 -0.504389723850E+02
 -0.503770612315E+02
 -0.504911064707E+02
 -0.504164538987E+02
 -0.505699318751E+02
 -0.506767403282E+02
 -0.507818236577E+02
 -0.508343506990E+02
 -0.509814162956E+02
 -0.509300251673E+02
 -0.510106676362E+02
 -0.511106784022E+02
 -0.511550701577E+02
 -0.511924746740E+02
 -0.511988426022E+02
 -0.513005170258E+02
 -0.514446293547E+02
 -0.515981078405E+02
 -0.517086830255E+02
 -0.518796436833E+02
 -0.522465461374E+02
 -0.522754081707E+02
 -0.522003918492E+02
 -0.523538708517E+02
 -0.526036961920E+02
 -0.527451143337E+02
 -0.529445589032E+02
 -0.530530852343E+02
 -0.530886146292E+02
 -0.532595759409E+02
 -0.531876790921E+02
 -0.532474202546E+02
 -0.531747594632E+02
 -0.533218259298E+02
 -0.532977562788E+02
 -0.533971425945E+02
 -0.534076136676E+02
 -0.538894362842E+02
 -0.539483693917E+02
 -0.540554798337E+02
 -0.541198232207E+02
 -0.542214984845E+02
 -0.541167903741E+02
 -0.542877521931E+02
 -0.548725569772E+02
 -0.550435193028E+02
 -0.549934476054E+02
 -0.551405147717E+02
 -0.553218041878E+02
 -0.554793316892E+02
 -0.557014958213E+02
 -0.558223847059E+02
 -0.557559461070E+02
 -0.557848090052E+02
 -0.559723144340E+02
 -0.560388608852E+02
 -0.560949316123E+02
 -0.563733832843E+02
 -0.565204509684E+02
 -0.564602321285E+02
 -0.565619081050E+02
 -0.568104207746E+02
 -0.568693547546E+02
 -0.569065425736E+02
 -0.569170145057E+02
 -0.574015592426E+02
 -0.575486272975E+02
 -0.575648837998E+02
 -0.581573260649E+02
 -0.583043944407E+02
 -0.582789241821E+02
 -0.583806006850E+02
 -0.585437860236E+02
 -0.586792971137E+02
 -0.586769306263E+02
 -0.587057944190E+02
 -0.588704160330E+02
 -0.589744090684E+02
 -0.591033841531E+02
 -0.591606296822E+02
 -0.591508335548E+02
 -0.592097682962E+02
 -0.592088619252E+02
 -0.596588599335E+02
 -0.597605367845E+02
 -0.598275271023E+02
 -0.598379999358E+02
 -0.604858723816E+02
 -0.606870397402E+02
 -0.607887168120E+02
 -0.609695256680E+02
 -0.610284609983E+02
 -0.610173434363E+02
 -0.610462080467E+02
 -0.614428066084E+02
 -0.615444838668E+02
 -0.617099939165E+02
 -0.618036809398E+02
 -0.619358127569E+02
 -0.620077094798E+02
 -0.620968766152E+02
 -0.621364540139E+02
 -0.621698028680E+02
 -0.621679437283E+02
 -0.621784174035E+02
 -0.623494614623E+02
 -0.624083972087E+02
 -0.628262927228E+02
 -0.628360393824E+02
 -0.628649046661E+02
 -0.633776412983E+02
 -0.634365773131E+02
 -0.639866396895E+02
 -0.639971140862E+02
 -0.641334119928E+02
 -0.641923482428E+02
 -0.642159752058E+02
 -0.642448409925E+02
 -0.642882817583E+02
 -0.643425866172E+02
 -0.644191766963E+02
 -0.644608509953E+02
 -0.645125425108E+02
 -0.645354832002E+02
 -0.645548098565E+02
 -0.646449918425E+02
 -0.652441550684E+02
 -0.652730212002E+02
 -0.653665793356E+02
 -0.653770543044E+02
 -0.659999257851E+02
 -0.660287922302E+02
 -0.660249340159E+02
 -0.660757774380E+02
 -0.661023755963E+02
 -0.661398937298E+02
 -0.661603055231E+02
 -0.661856251402E+02
 -0.661968613373E+02
 -0.662063298766E+02
 -0.663947592167E+02
 -0.664052346064E+02
 -0.670531158060E+02
 -0.671505223481E+02
 -0.671609981494E+02
 -0.671780562725E+02
 -0.671877091525E+02
 -0.672013254763E+02
 -0.672087332446E+02
 -0.672179171818E+02
 -0.672219950008E+02
 -0.672254339495E+02
 -0.678088840341E+02
 -0.197022767184E+02