# vtk DataFile Version 5.1
vtk output
ASCII
DATASET POLYDATA
POINTS 1195 float
7.90093e-17 0 0.107527 7.90093e-17 0 0 0.0996827 0.0157882 0 
1.97523e-17 0 0.108172 0.0996827 0.0157882 0.107527 0.108791 0.0188986 0 
7.90093e-17 0 0.215053 0.0996827 0.0157882 0.215053 0.189608 0.0616073 0.107527 
0.189608 0.0616073 0 7.90093e-17 0 0.32258 7.90093e-17 0 0.430107 
0.0996827 0.0157882 0.32258 0.189608 0.0616073 0.215053 0.260973 0.132972 0.107527 
0.220073 0.0867289 0 0.260973 0.132972 0 7.90093e-17 0 0.537633 
0.0996827 0.0157882 0.430107 0.189608 0.0616073 0.32258 0.260973 0.132972 0.215053 
0.306792 0.222897 0.107527 0.289796 0.180889 0 0.306792 0.222897 0 
7.90093e-17 0 0.64516 0.0996827 0.0157882 0.537633 0.189608 0.0616073 0.430107 
0.260973 0.132972 0.32258 0.306792 0.222897 0.215053 0.32258 0.32258 0.107527 
0.3191 0.275325 0 0.32258 0.32258 0 1.97523e-17 0 0.649031 
0.0996827 0.0157882 0.64516 0.189608 0.0616073 0.537633 0.260973 0.132972 0.430107 
0.306792 0.222897 0.32258 0.32258 0.32258 0.215053 0.306792 0.422263 0.107527 
0.3191 0.369835 0 0.306792 0.422263 0 7.90093e-17 0 0.752687 
0.0996827 0.0157882 0.752687 0.189608 0.0616073 0.64516 0.260973 0.132972 0.537633 
0.306792 0.222897 0.430107 0.32258 0.32258 0.32258 0.306792 0.422263 0.215053 
0.260973 0.512188 0.107527 0.289796 0.464271 0 0.260973 0.512188 0 
1.97523e-17 0 0.757203 7.90093e-17 0 0.860213 0.0996827 0.0157882 0.860213 
0.189608 0.0616073 0.752687 0.260973 0.132972 0.64516 0.306792 0.222897 0.537633 
0.32258 0.32258 0.430107 0.306792 0.422263 0.32258 0.260973 0.512188 0.215053 
0.189608 0.583553 0.107527 0.220073 0.558431 0 0.218976 0.55945 0 
1.97523e-17 0 0.865375 7.90093e-17 0 0.96774 0.0996827 0.0157882 0.96774 
0.189608 0.0616073 0.860213 0.260973 0.132972 0.752687 0.306792 0.222897 0.64516 
0.32258 0.32258 0.537633 0.306792 0.422263 0.430107 0.260973 0.512188 0.32258 
0.189608 0.583553 0.215053 0.0996827 0.629372 0.107527 0.108791 0.626261 0 
0.0996827 0.629372 0 1.97523e-17 0 0.973546 7.90093e-17 0 1.07527 
0.0996827 0.0157882 1.07527 0.189608 0.0616073 0.96774 0.260973 0.132972 0.860213 
0.306792 0.222897 0.752687 0.32258 0.32258 0.64516 0.306792 0.422263 0.537633 
0.260973 0.512188 0.430107 0.189608 0.583553 0.32258 0.0996827 0.629372 0.215053 
1.97523e-17 0.64516 0.108172 0 0.64516 0.107527 1.97523e-17 0 1.08172 
7.90093e-17 0 1.18279 0.0996827 0.0157882 1.18279 0.189608 0.0616073 1.07527 
0.260973 0.132972 0.96774 0.306792 0.222897 0.860213 0.32258 0.32258 0.752687 
0.306792 0.422263 0.64516 0.260973 0.512188 0.537633 0.189608 0.583553 0.430107 
0.0996827 0.629372 0.32258 0 0.64516 0.215053 1.97523e-17 0 1.18989 
7.90093e-17 0 1.29032 0.0996827 0.0157882 1.29032 0.189608 0.0616073 1.18279 
0.260973 0.132972 1.07527 0.306792 0.222897 0.96774 0.32258 0.32258 0.904465 
0.32258 0.32258 0.860213 0.306792 0.422263 0.860213 0.306792 0.422263 0.752687 
0.260973 0.512188 0.752687 0.260973 0.512188 0.64516 0.189608 0.583553 0.64516 
0.189608 0.583553 0.537633 0.0996827 0.629372 0.537633 0.0996827 0.629372 0.430107 
0 0.64516 0.430107 0 0.64516 0.32258 1.97523e-17 0 1.29806 
7.90093e-17 0 1.39785 0.0996827 0.0157882 1.39785 0.189608 0.0616073 1.29032 
0.260973 0.132972 1.18279 0.306792 0.222897 1.07527 0.322485 0.314734 1.00906 
0.322543 0.31771 0.967715 1.97523e-17 0 1.40623 7.90093e-17 0 1.50537 
0.0996827 0.0157882 1.50537 0.189608 0.0616073 1.39785 0.260973 0.132972 1.29032 
0.306792 0.222897 1.18279 0.322247 0.30793 1.11377 0.322329 0.309854 1.08248 
1.97523e-17 0 1.51441 7.90093e-17 0 1.6129 0.0996827 0.0157882 1.6129 
0.189608 0.0616073 1.50537 0.260973 0.132972 1.39785 0.306792 0.222897 1.29032 
0.321933 0.302166 1.21862 0.322046 0.304021 1.18274 1.97523e-17 0 1.62258 
7.90093e-17 0 1.72043 0.0996827 0.0157882 1.72043 0.189608 0.0616073 1.6129 
0.260973 0.132972 1.50537 0.306792 0.222897 1.39785 0.321599 0.297445 1.3236 
0.321705 0.298831 1.29026 1.97523e-17 0 1.73075 7.90093e-17 0 1.82795 
0.0996827 0.0157882 1.82795 0.189608 0.0616073 1.72043 0.260973 0.132972 1.6129 
0.306792 0.222897 1.50537 0.321291 0.293769 1.42868 0.321313 0.294019 1.42045 
1.97523e-17 0 1.83892 7.90093e-17 0 1.93548 0.0996827 0.0157882 1.93548 
0.189608 0.0616073 1.82795 0.260973 0.132972 1.72043 0.306792 0.222897 1.6129 
0.321044 0.291141 1.5338 0.321103 0.291748 1.50536 1.97523e-17 0 1.94709 
7.90093e-17 0 2.04301 0.0996827 0.0157882 2.04301 0.189608 0.0616073 1.93548 
0.260973 0.132972 1.82795 0.306792 0.222897 1.72043 0.320886 0.289562 1.63892 
0.320916 0.289855 1.6129 1.97523e-17 0 2.05526 7.90093e-17 0 2.15053 
0.0996827 0.0157882 2.15053 0.189608 0.0616073 2.04301 0.260973 0.132972 1.93548 
0.306792 0.222897 1.82795 0.320831 0.289036 1.74395 0.320834 0.289062 1.72043 
1.97523e-17 0 2.16344 7.90093e-17 0 2.25806 0.0996827 0.0157882 2.25806 
0.189608 0.0616073 2.15053 0.260973 0.132972 2.04301 0.306792 0.222897 1.93548 
0.320886 0.289561 1.84897 0.320866 0.289371 1.82796 1.97523e-17 0 2.27161 
7.90093e-17 0 2.36559 0.0996827 0.0157882 2.36559 0.189608 0.0616073 2.25806 
0.260973 0.132972 2.15053 0.306792 0.222897 2.04301 0.321044 0.29114 1.95393 
0.32101 0.290795 1.93596 1.97523e-17 0 2.37978 7.90093e-17 0 2.47311 
0.0996827 0.0157882 2.47311 0.189608 0.0616073 2.36559 0.260973 0.132972 2.25806 
0.306792 0.222897 2.15053 0.321291 0.293767 2.05859 0.321249 0.29331 2.04304 
1.97523e-17 0 2.48795 7.90093e-17 0 2.58064 0.0996827 0.0157882 2.58064 
0.189608 0.0616073 2.47311 0.260973 0.132972 2.36559 0.306792 0.222897 2.25806 
0.321599 0.297443 2.16316 0.32156 0.296945 2.15057 1.97523e-17 0 2.59612 
7.90093e-17 0 2.68817 0.0996827 0.0157882 2.68817 0.189608 0.0616073 2.58064 
0.260973 0.132972 2.47311 0.306792 0.222897 2.36559 0.321934 0.302168 2.26764 
0.321903 0.301692 2.25807 1.97523e-17 0 2.7043 7.90093e-17 0 2.79569 
0.0996827 0.0157882 2.79569 0.189608 0.0616073 2.68817 0.260973 0.132972 2.58064 
0.306792 0.222897 2.47311 0.322248 0.307941 2.37209 0.32223 0.307556 2.36567 
1.97523e-17 0 2.81247 7.90093e-17 0 2.90322 0.0996827 0.0157882 2.90322 
0.189608 0.0616073 2.79569 0.260973 0.132972 2.68817 0.306792 0.222897 2.58064 
0.322485 0.314749 2.47642 0.322479 0.314523 2.47319 1.97523e-17 0 2.92064 
7.90093e-17 0 3.01075 0.0996827 0.0157882 3.01075 0.189608 0.0616073 2.90322 
0.260973 0.132972 2.79569 0.306792 0.222897 2.68817 0.32258 0.32258 2.58064 
1.97523e-17 0 3.02881 7.90093e-17 0 3.11827 0.0996827 0.0157882 3.11827 
0.189608 0.0616073 3.01075 0.260973 0.132972 2.90322 0.306792 0.222897 2.79569 
0.32258 0.32258 2.68817 0.306792 0.422263 2.58064 0.322485 0.330419 2.4763 
0.306792 0.422263 2.47311 0.322479 0.330641 2.47314 0.322327 0.335351 2.40236 
1.97523e-17 0 3.13698 7.90093e-17 0 3.2258 0.0996827 0.0157882 3.2258 
0.189608 0.0616073 3.11827 0.260973 0.132972 3.01075 0.306792 0.222897 2.90322 
0.32258 0.32258 2.79569 0.306792 0.422263 2.68817 0.260973 0.512188 2.58064 
0.260973 0.512188 2.47311 0.189608 0.583553 2.47311 0.189608 0.583553 2.36559 
0.0996827 0.629372 2.36559 0.0996827 0.629372 2.25806 1.97523e-17 0.64516 2.27161 
0 0.64516 2.25806 1.97523e-17 0 3.24515 7.90093e-17 0 3.33333 
0.0996827 0.0157882 3.33333 0.189608 0.0616073 3.2258 0.260973 0.132972 3.11827 
0.306792 0.222897 3.01075 0.32258 0.32258 2.90322 0.306792 0.422263 2.79569 
0.260973 0.512188 2.68817 0.189608 0.583553 2.58064 0.0996827 0.629372 2.47311 
1.97523e-17 0.64516 2.37978 0 0.64516 2.36559 1.97523e-17 0 3.35333 
7.90093e-17 0 3.44085 0.0996827 0.0157882 3.44085 0.189608 0.0616073 3.33333 
0.260973 0.132972 3.2258 0.306792 0.222897 3.11827 0.32258 0.32258 3.01075 
0.306792 0.422263 2.90322 0.260973 0.512188 2.79569 0.189608 0.583553 2.68817 
0.0996827 0.629372 2.58064 1.97523e-17 0.64516 2.48795 0 0.64516 2.47311 
1.97523e-17 0 3.4615 7.90093e-17 0 3.54838 0.0908813 0.0130668 3.54838 
0.0996827 0.0157882 3.54838 0.1744 0.0512084 3.54838 0 0.64516 0 
0.189608 0.583553 0 0.218976 0.0857104 0 1.97523e-17 0.64516 3.4615 
0 0.64516 3.54838 0.0908813 0.632093 3.54838 0 0.64516 3.44085 
0.0996827 0.629372 3.44085 0.0996827 0.629372 3.54838 1.97523e-17 0.64516 3.35333 
0 0.64516 3.33333 0.0996827 0.629372 3.33333 0.189608 0.583553 3.44085 
0.1744 0.593952 3.54838 0.189608 0.583553 3.54838 1.97523e-17 0.64516 3.24515 
0 0.64516 3.2258 0.0996827 0.629372 3.2258 0.189608 0.583553 3.33333 
0.260973 0.512188 3.44085 0.24379 0.533825 3.54838 0.260973 0.512188 3.54838 
1.97523e-17 0.64516 3.13698 0 0.64516 3.11827 0.0996827 0.629372 3.11827 
0.189608 0.583553 3.2258 0.260973 0.512188 3.33333 0.306792 0.422263 3.44085 
0.293429 0.456585 3.54838 0.306792 0.422263 3.54838 1.97523e-17 0.64516 3.02881 
0 0.64516 3.01075 0.0996827 0.629372 3.01075 0.189608 0.583553 3.11827 
0.260973 0.512188 3.2258 0.306792 0.422263 3.33333 0.32258 0.32258 3.44085 
0.319297 0.368488 3.54838 0.32258 0.32258 3.54838 1.97523e-17 0.64516 2.92064 
0 0.64516 2.90322 0.0996827 0.629372 2.90322 0.189608 0.583553 3.01075 
0.260973 0.512188 3.11827 0.306792 0.422263 3.2258 0.32258 0.32258 3.33333 
0.306792 0.222897 3.44085 0.319297 0.276672 3.54838 0.306792 0.222897 3.54838 
1.97523e-17 0.64516 2.81247 0 0.64516 2.79569 0.0996827 0.629372 2.79569 
0.189608 0.583553 2.90322 0.260973 0.512188 3.01075 0.306792 0.422263 3.11827 
0.32258 0.32258 3.2258 0.306792 0.222897 3.33333 0.260973 0.132972 3.44085 
0.293429 0.188575 3.54838 0.260973 0.132972 3.54838 1.97523e-17 0.64516 2.7043 
0 0.64516 2.68817 0.0996827 0.629372 2.68817 0.189608 0.583553 2.79569 
0.260973 0.512188 2.90322 0.306792 0.422263 3.01075 0.32258 0.32258 3.11827 
0.306792 0.222897 3.2258 0.260973 0.132972 3.33333 0.189608 0.0616073 3.44085 
0.24379 0.111335 3.54838 0.189608 0.0616073 3.54838 1.97523e-17 0.64516 2.59612 
0 0.64516 2.58064 1.97523e-17 0.64516 2.16344 0 0.64516 2.15053 
0.0996827 0.629372 2.15053 0.189608 0.583553 2.25806 0.260973 0.512188 2.36559 
1.97523e-17 0.64516 2.05526 0 0.64516 2.04301 0.0996827 0.629372 2.04301 
0.189608 0.583553 2.15053 0.260973 0.512188 2.25806 0.306792 0.422263 2.36559 
[...]
CELL_DATA 2168
SCALARS STLSolidLabeling float
LOOKUP_TABLE default
0 0 0 0 0 0 0 0 0 
0 0 0 0 0 0 0 0 0 
0 0 0 0 0 0 0 0 0 
0 0 0 0 0 0 0 0 0 
0 0 0 0 0 0 0 0 0 
0 0 0 0 0 0 0 0 0 
0 0 0 0 0 0 0 0 0 
0 0 0 0 0 0 0 0 0 
0 0 0 0 0 0 0 0 0 
0 0 0 0 0 0 0 0 0 
0 0 0 0 0 0 0 0 0 
0 0 0 0 0 0 0 0 0 
0 0 0 0 0 0 0 0 0 
0 0 0 0 0 0 0 0 0 
0 0 0 0 0 0 0 0 0 
0 0 0 0 0 0 0 0 0 
0 0 0 0 0 0 0 0 0 
0 0 0 0 0 0 0 0 0 
0 0 0 0 0 0 0 0 0 
0 0 0 0 0 0 0 0 0 
0 0 0 0 0 0 0 0 0 
0 0 0 0 0 0 0 0 0 
0 0 0 0 0 0 0 0 0 
0 0 0 0 0 0 0 0 0 
0 0 0 0 0 0 0 0 0 
0 0 0 0 0 0 0 0 0 
0 0 0 0 0 0 0 0 0 
0 0 0 0 0 0 0 0 0 
0 0 0 0 0 0 0 0 0 
0 0 0 0 0 0 0 0 0 
0 0 0 0 0 0 0 0 0 
0 0 0 0 0 0 0 0 0 
0 0 0 0 0 0 0 0 0 
0 0 0 0 0 0 0 0 0 
0 0 0 0 0 0 0 0 0 
0 0 0 0 0 0 0 0 0 
0 0 0 0 0 0 0 0 0 
0 0 0 0 0 0 0 0 0 
0 0 0 0 0 0 0 0 0 
0 0 0 0 0 0 0 0 0 
0 0 0 0 0 0 0 0 0 
0 0 0 0 0 0 0 0 0 
0 0 0 0 0 0 0 0 0 
0 0 0 0 0 0 0 0 0 
0 0 0 0 0 0 0 0 0 
0 0 0 0 0 0 0 0 0 
0 0 0 0 0 0 0 0 0 
0 0 0 0 0 0 0 0 0 
0 0 0 0 0 0 0 0 0 
0 0 0 0 0 0 0 0 0 
0 0 0 0 0 0 0 0 0 
0 0 0 0 0 0 0 0 0 
0 0 0 0 0 0 0 0 0 
0 0 0 0 0 0 0 0 0 
0 0 0 0 0 0 0 0 0 
0 0 0 0 0 0 0 0 0 
0 0 0 0 0 0 0 0 0 
0 0 0 0 0 0 0 0 0 
0 0 0 0 0 0 0 0 0 
0 0 0 0 0 0 0 0 0 
0 0 0 0 0 0 0 0 0 
0 0 0 0 0 0 0 0 0 
0 0 0 0 0 0 0 0 0 
0 0 0 0 0 0 0 0 0 
0 0 0 0 0 0 0 0 0 
0 0 0 0 0 0 0 0 0 
0 0 0 0 0 0 0 0 0 
0 0 0 0 0 0 0 0 0 
0 0 0 0 0 0 0 0 0 
0 0 0 0 0 0 0 0 0 
0 0 0 0 0 0 0 0 0 
0 0 0 0 0 0 0 0 0 
0 0 0 0 0 0 0 0 0 
0 0 0 0 0 0 0 0 0 
0 0 0 0 0 0 0 0 0 
0 0 0 0 0 0 0 0 0 
0 0 0 0 0 0 0 0 0 
0 0 0 0 0 0 0 0 0 
0 0 0 0 0 0 0 0 0 
0 0 0 0 0 0 0 0 0 
0 0 0 0 0 0 0 0 0 
0 0 0 0 0 0 0 0 0 
0 0 0 0 0 0 0 0 0 
0 0 0 0 0 0 0 0 0 
0 0 0 0 0 0 0 0 0 
0 0 0 0 0 0 0 0 0 
0 0 0 0 0 0 0 0 0 
0 0 0 0 0 0 0 0 0 
0 0 0 0 0 0 0 0 0 
0 0 0 0 0 0 0 0 0 
0 0 0 0 0 0 0 0 0 
0 0 0 0 0 0 0 0 0 
0 0 0 0 0 0 0 0 0 
0 0 0 0 0 0 0 0 0 
0 0 0 0 0 0 0 0 0 
0 0 0 0 0 0 0 0 0 
0 0 0 0 0 0 0 0 0 
0 0 0 0 0 0 0 0 0 
0 0 0 0 0 0 0 0 0 
0 0 0 0 0 0 0 0 0 
0 0 0 0 0 0 0 0 0 
0 0 0 0 0 0 0 0 0 
0 0 0 0 0 0 0 0 0 
0 0 0 0 0 0 0 0 0 
0 0 0 0 0 0 0 0 0 
0 0 0 0 0 0 0 0 0 
0 0 0 0 0 0 0 0 0 
0 0 0 0 0 0 0 0 0 
0 0 0 0 0 0 0 0 0 
0 0 0 0 0 0 0 0 0 
0 0 0 0 0 0 0 0 0 
0 0 0 0 0 0 0 0 0 
0 0 0 0 0 0 0 0 0 
0 0 0 0 0 0 0 0 0 
0 0 0 0 0 0 0 0 0 
0 0 0 0 0 0 0 0 0 
0 0 0 0 0 0 0 0 0 
0 0 0 0 0 0 0 0 0 
0 0 0 0 0 0 0 0 0 
0 0 0 0 0 0 0 0 0 
0 0 0 0 0 0 0 0 0 
0 0 0 0 0 0 0 0 0 
0 0 0 0 0 0 0 0 0 
0 0 0 0 0 0 0 0 0 
0 0 0 0 0 0 0 0 0 
0 0 0 0 0 0 0 0 0 
0 0 0 0 0 0 0 0 0 
0 0 0 0 0 0 0 0 0 
0 0 0 0 0 0 0 0 0 
0 0 0 0 0 0 0 0 0 
0 0 0 0 0 0 0 0 0 
0 0 0 0 0 0 0 0 0 
0 0 0 0 0 0 0 0 0 
0 0 0 0 0 0 0 0 0 
0 0 0 0 0 0 0 0 0 
0 0 0 0 0 0 0 0 0 
0 0 0 0 0 0 0 0 0 
0 0 0 0 0 0 0 0 0 
0 0 0 0 0 0 0 0 0 
0 0 0 0 0 0 0 0 0 
0 0 0 0 0 0 0 0 0 
0 0 0 0 0 0 0 0 0 
0 0 0 0 0 0 0 0 0 
0 0 0 0 0 0 0 0 0 
0 0 0 0 0 0 0 0 0 
0 0 0 0 0 0 0 0 0 
0 0 0 0 0 0 0 0 0 
0 0 0 0 0 0 0 0 0 
0 0 0 0 0 0 0 0 0 
0 0 0 0 0 0 0 0 0 
0 0 0 0 0 0 0 0 0 
0 0 0 0 0 0 0 0 0 
0 0 0 0 0 0 0 0 0 
0 0 0 0 0 0 0 0 0 
0 0 0 0 0 0 0 0 0 
0 0 0 0 0 0 0 0 0 
0 0 0 0 0 0 0 0 0 
0 0 0 0 0 0 0 0 0 
0 0 0 0 0 0 0 0 0 
0 0 0 0 0 0 0 0 0 
0 0 0 0 0 0 0 0 0 
0 0 0 0 0 0 0 0 0 
0 0 0 0 0 0 0 0 0 
0 0 0 0 0 0 0 0 0 
0 0 0 0 0 0 0 0 0 
0 0 0 0 0 0 0 0 0 
0 0 0 0 0 0 0 0 0 
0 0 0 0 0 0 0 0 0 
0 0 0 0 0 0 0 0 0 
0 0 0 0 0 0 0 0 0 
0 0 0 0 0 0 0 0 0 
0 0 0 0 0 0 0 0 0 
0 0 0 0 0 0 0 0 0 
0 0 0 0 0 0 0 0 0 
0 0 0 0 0 0 0 0 0 
0 0 0 0 0 0 0 0 0 
0 0 0 0 0 0 0 0 0 
0 0 0 0 0 0 0 0 0 
0 0 0 0 0 0 0 0 0 
0 0 0 0 0 0 0 0 0 
0 0 0 0 0 0 0 0 0 
0 0 0 0 0 0 0 0 0 
0 0 0 0 0 0 0 0 0 
0 0 0 0 0 0 0 0 0 
0 0 0 0 0 0 0 0 0 
0 0 0 0 0 0 0 0 0 
0 0 0 0 0 0 0 0 0 
0 0 0 0 0 0 0 0 0 
0 0 0 0 0 0 0 0 0 
0 0 0 0 0 0 0 0 0 
0 0 0 0 0 0 0 0 0 
0 0 0 0 0 0 0 0 0 
0 0 0 0 0 0 0 0 0 
0 0 0 0 0 0 0 0 0 
0 0 0 0 0 0 0 0 0 
0 0 0 0 0 0 0 0 0 
0 0 0 0 0 0 0 0 0 
0 0 0 0 0 0 0 0 0 
0 0 0 0 0 0 0 0 0 
0 0 0 0 0 0 0 0 0 
0 0 0 0 0 0 0 0 0 
0 0 0 0 0 0 0 0 0 
0 0 0 0 0 0 0 0 0 
0 0 0 0 0 0 0 0 0 
0 0 0 0 0 0 0 0 0 
0 0 0 0 0 0 0 0 0 
0 0 0 0 0 0 0 0 0 
0 0 0 0 0 0 0 0 0 
0 0 0 0 0 0 0 0 0 
0 0 0 0 0 0 0 0 0 
0 0 0 0 0 0 0 0 0 
0 0 0 0 0 0 0 0 0 
0 0 0 0 0 0 0 0 0 
0 0 0 0 0 0 0 0 0 
0 0 0 0 0 0 0 0 0 
0 0 0 0 0 0 0 0 0 
0 0 0 0 0 0 0 0 0 
0 0 0 0 0 0 0 0 0 
0 0 0 0 0 0 0 0 0 
0 0 0 0 0 0 0 0 0 
0 0 0 0 0 0 0 0 0 
0 0 0 0 0 0 0 0 0 
0 0 0 0 0 0 0 0 0 
0 0 0 0 0 0 0 0 0 
0 0 0 0 0 0 0 0 0 
0 0 0 0 0 0 0 0 0 
0 0 0 0 0 0 0 0 0 
0 0 0 0 0 0 0 0 0 
0 0 0 0 0 0 0 0 0 
0 0 0 0 0 0 0 0 0 
0 0 0 0 0 0 0 0 0 
0 0 0 0 0 0 0 0 0 
0 0 0 0 0 0 0 0 0 
0 0 0 0 0 0 0 0 0 
0 0 0 0 0 0 0 0 0 
0 0 0 0 0 0 0 0 0 
0 0 0 0 0 0 0 0 0 
0 0 0 0 0 0 0 0 0 
0 0 0 0 0 0 0 0 0 
0 0 0 0 0 0 0 0 0 
0 0 0 0 0 0 0 0 
METADATA
INFORMATION 0

