# vtk DataFile Version 5.1
vtk output
ASCII
DATASET POLYDATA
POINTS 1596 float
0.344597 0.323855 2.52642 0.322578 0.323855 2.56456 0.32291 0.32373 2.56475 
0.322578 0.323773 2.56514 0.322578 0.323734 2.56532 0.374059 0.323855 2.47538 
0.374392 0.32373 2.47558 0.374675 0.323493 2.47574 0.323194 0.323493 2.56492 
0.374881 0.323166 2.47586 0.3234 0.323166 2.56504 0.374989 0.322782 2.47592 
0.323508 0.322782 2.5651 0.374989 0.322378 2.47592 0.323508 0.322378 2.5651 
0.374881 0.321994 2.47586 0.3234 0.321994 2.56504 0.374675 0.321667 2.47574 
0.323194 0.321667 2.56492 0.374392 0.32143 2.47558 0.32291 0.32143 2.56475 
0.344595 0.321305 2.52642 0.322578 0.321305 2.56456 0.403571 0.323855 2.42426 
0.42554 0.323855 2.38621 0.425873 0.32373 2.3864 0.426156 0.323493 2.38656 
0.426362 0.323166 2.38668 0.42647 0.322782 2.38674 0.42647 0.322378 2.38674 
0.426362 0.321994 2.38668 0.426156 0.321667 2.38656 0.425873 0.32143 2.3864 
0.403569 0.321305 2.42427 0.374059 0.321305 2.47538 0.433054 0.323855 2.37319 
0.462543 0.323855 2.32211 0.47702 0.323855 2.29703 0.477353 0.323731 2.29722 
0.477637 0.323493 2.29738 0.477843 0.323167 2.2975 0.477951 0.322782 2.29757 
0.477951 0.322378 2.29757 0.477843 0.321993 2.2975 0.477637 0.321667 2.29738 
0.477353 0.321429 2.29722 0.462541 0.321305 2.32211 0.433053 0.321305 2.37319 
0.49203 0.323855 2.27103 0.521513 0.323855 2.21995 0.528833 0.323731 2.20804 
0.529116 0.323494 2.20821 0.529322 0.323167 2.20832 0.529431 0.322782 2.20839 
0.529431 0.322378 2.20839 0.529322 0.321993 2.20832 0.529116 0.321666 2.20821 
0.528833 0.321429 2.20804 0.492028 0.321305 2.27103 0.47702 0.321305 2.29703 
0.5285 0.323855 2.20785 0.551005 0.323855 2.16886 0.579978 0.323855 2.11867 
0.580312 0.323731 2.11886 0.580595 0.323494 2.11903 0.580801 0.323167 2.11915 
0.58091 0.322782 2.11921 0.58091 0.322378 2.11921 0.580801 0.321993 2.11915 
0.580595 0.321666 2.11903 0.580312 0.321429 2.11886 0.551003 0.321305 2.16887 
0.5285 0.321305 2.20785 0.609979 0.323855 2.0667 0.631456 0.323855 2.02949 
0.631789 0.323731 2.02968 0.632073 0.323494 2.02985 0.632279 0.323167 2.02997 
0.632388 0.322782 2.03003 0.632388 0.322378 2.03003 0.632279 0.321993 2.02997 
0.632073 0.321666 2.02985 0.631789 0.321429 2.02968 0.609977 0.321305 2.0667 
0.579978 0.321305 2.11867 0.639461 0.323855 2.01562 0.668951 0.323855 1.96453 
0.682932 0.323855 1.94031 0.683266 0.323731 1.9405 0.68355 0.323494 1.94067 
0.683756 0.323167 1.94079 0.683864 0.322782 1.94085 0.683864 0.322378 1.94085 
0.683756 0.321993 1.94079 0.68355 0.321666 1.94067 0.683266 0.321429 1.9405 
0.668949 0.321305 1.96453 0.63946 0.321305 2.01562 0.69844 0.323855 1.91344 
0.72792 0.323855 1.86237 0.73474 0.323731 1.85132 0.735024 0.323494 1.85148 
0.735231 0.323167 1.8516 0.735339 0.322782 1.85167 0.735339 0.322378 1.85167 
0.735231 0.321993 1.8516 0.735024 0.321666 1.85148 0.73474 0.321429 1.85132 
0.698438 0.321305 1.91344 0.682932 0.321305 1.94031 0.734407 0.323855 1.85113 
0.757417 0.323855 1.81126 0.785879 0.323855 1.76195 0.786213 0.323732 1.76214 
0.786497 0.323494 1.7623 0.786704 0.323167 1.76242 0.786812 0.322782 1.76248 
0.786812 0.322378 1.76248 0.786704 0.321993 1.76242 0.786497 0.321665 1.7623 
0.786213 0.321428 1.76214 0.757416 0.321305 1.81126 0.734407 0.321305 1.85113 
0.786887 0.323855 1.7602 0.810688 0.323855 1.71896 0.811022 0.323732 1.71915 
0.811307 0.323495 1.71931 0.811513 0.323168 1.71943 0.811622 0.322782 1.7195 
0.811622 0.322378 1.7195 0.811513 0.321992 1.71943 0.811307 0.321665 1.71931 
0.811022 0.321428 1.71915 0.786886 0.321305 1.7602 0.785879 0.321305 1.76195 
0.816382 0.323855 1.70909 0.84588 0.323855 1.65798 0.862155 0.323855 1.62977 
0.86249 0.323732 1.62996 0.862774 0.323495 1.63013 0.862981 0.323168 1.63025 
0.86309 0.322783 1.63031 0.86309 0.322377 1.63031 0.862981 0.321992 1.63025 
0.862774 0.321665 1.63013 0.86249 0.321428 1.62996 0.845879 0.321305 1.65798 
0.816381 0.321305 1.70909 0.875368 0.323855 1.60687 0.904849 0.323856 1.55578 
0.913952 0.323732 1.54078 0.914237 0.323496 1.54094 0.914444 0.323168 1.54106 
0.914553 0.322783 1.54112 0.914553 0.322377 1.54112 0.914444 0.321992 1.54106 
0.914237 0.321664 1.54094 0.913952 0.321428 1.54078 0.875368 0.321305 1.60687 
0.862155 0.321305 1.62977 0.913617 0.323856 1.54058 0.934357 0.323856 1.50463 
0.965071 0.323856 1.45139 0.965406 0.323733 1.45158 0.965692 0.323496 1.45175 
0.965899 0.323169 1.45187 0.966008 0.322783 1.45193 0.966008 0.322377 1.45193 
0.965899 0.321991 1.45187 0.965692 0.321664 1.45175 0.965406 0.321427 1.45158 
0.934356 0.321304 1.50463 0.913617 0.321304 1.54058 0.993347 0.323856 1.40236 
1.01651 0.323856 1.36219 1.01685 0.323734 1.36238 1.01713 0.323497 1.36255 
1.01734 0.323169 1.36267 1.01745 0.322783 1.36273 1.01745 0.322377 1.36273 
1.01734 0.321991 1.36267 1.01713 0.321663 1.36255 1.01685 0.321426 1.36238 
0.993346 0.321304 1.40236 0.965071 0.321304 1.45139 1.0228 0.323856 1.35128 
1.05227 0.323857 1.30015 1.05495 0.323735 1.29628 1.05524 0.323498 1.29644 
1.05545 0.32317 1.29656 1.05556 0.322783 1.29662 1.05556 0.322377 1.29662 
1.05545 0.32199 1.29656 1.05524 0.321662 1.29644 1.05495 0.321425 1.29628 
1.0228 0.321304 1.35128 1.01651 0.321304 1.36219 1.05462 0.323857 1.29608 
1.08187 0.323857 1.24877 1.10601 0.323857 1.20685 1.10634 0.323736 1.20705 
1.10663 0.3235 1.20721 1.10684 0.323171 1.20733 1.10695 0.322784 1.20739 
1.10695 0.322376 1.20739 1.10684 0.321989 1.20733 1.10663 0.32166 1.20721 
1.10634 0.321424 1.20705 1.08187 0.321303 1.24877 1.05462 0.321303 1.29608 
1.11132 0.323857 1.19762 1.14092 0.323858 1.14612 1.15731 0.323858 1.11757 
1.15765 0.323739 1.11776 1.15794 0.323503 1.11793 1.15815 0.323174 1.11805 
1.15826 0.322785 1.11812 1.15826 0.322375 1.11812 1.15815 0.321986 1.11805 
1.15794 0.321657 1.11793 1.15765 0.321421 1.11776 1.14092 0.321302 1.14612 
1.11132 0.321303 1.19762 1.17026 0.323859 1.09497 1.17627 0.323859 1.08446 
1.17661 0.323741 1.08466 1.1769 0.323505 1.08482 1.17711 0.323175 1.08495 
1.17723 0.322785 1.08501 1.17723 0.322375 1.08501 1.17711 0.321984 1.08495 
1.1769 0.321655 1.08482 1.17661 0.321419 1.08466 1.17026 0.321301 1.09497 
1.15731 0.321302 1.11757 1.20068 0.32386 1.0416 1.2269 0.323863 0.994797 
1.22725 0.323752 0.994991 1.22756 0.323518 0.995159 1.22778 0.323185 0.995281 
1.2279 0.322789 0.995345 1.2279 0.322371 0.995345 1.22778 0.321975 0.995281 
1.22756 0.321642 0.995159 1.22725 0.321408 0.994991 1.20068 0.321299 1.0416 
1.19935 0.3213 1.04394 1.22925 0.323863 0.990506 1.23599 0.323864 0.978016 
1.23635 0.323756 0.978207 1.23666 0.323523 0.978372 1.23688 0.323189 0.978492 
1.237 0.322791 0.978556 1.237 0.322369 0.978556 1.23688 0.321971 0.978492 
1.23666 0.321637 0.978372 1.23635 0.321404 0.978207 1.23599 0.321296 0.978016 
1.2269 0.321297 0.994797 1.23982 0.323865 0.970697 1.2494 0.323868 0.950579 
1.24978 0.323769 0.950739 1.25012 0.323539 0.950876 1.25037 0.323201 0.950978 
1.2505 0.322795 0.951032 1.2505 0.322365 0.951032 1.25037 0.321959 0.950978 
1.25012 0.321621 0.950876 1.24978 0.321391 0.950739 1.23982 0.321295 0.970697 
1.2527 0.323869 0.94023 1.25305 0.32387 0.936772 1.25312 0.323777 0.940309 
1.25349 0.323549 0.940377 1.25376 0.323209 0.940427 1.2539 0.322798 0.940454 
1.2539 0.322362 0.940454 1.25376 0.321951 0.940427 1.25349 0.321611 0.940377 
1.25312 0.321383 0.940309 1.25046 0.321292 0.947852 1.2494 0.321292 0.950579 
1.25305 0.32387 0.936498 1.25348 0.32378 0.93649 1.25385 0.323553 0.936484 
1.25413 0.323212 0.936479 1.25427 0.322799 0.936476 1.25427 0.322361 0.936476 
1.25413 0.321948 0.936479 1.25385 0.321607 0.936484 1.25348 0.32138 0.93649 
1.25305 0.32129 0.936498 1.2527 0.321291 0.94023 1.25257 0.32387 0.933493 
1.25229 0.32387 0.932774 1.25269 0.323783 0.932601 1.25298 0.323782 0.933359 
1.25303 0.323555 0.93245 1.25334 0.323555 0.933241 1.25329 0.323215 0.932338 
1.2536 0.323214 0.933154 1.25343 0.3228 0.932278 1.25374 0.3228 0.933108 
1.25343 0.32236 0.932278 1.25374 0.32236 0.933108 1.25329 0.321945 0.932338 
1.2536 0.321946 0.933154 1.25303 0.321605 0.93245 1.25334 0.321605 0.933241 
1.25269 0.321377 0.932601 1.25298 0.321378 0.933359 1.25257 0.32129 0.933493 
1.2508 0.32387 0.930537 1.25112 0.323783 0.93024 1.25139 0.323556 0.929981 
1.25159 0.323215 0.929789 1.2517 0.3228 0.929688 1.2517 0.32236 0.929688 
1.25159 0.321945 0.929789 1.25139 0.321604 0.929981 1.25112 0.321377 0.93024 
1.25229 0.32129 0.932774 1.24804 0.32387 0.928472 1.24824 0.323781 0.928093 
1.24842 0.323554 0.927763 1.24855 0.323213 0.927519 1.24862 0.3228 0.927389 
1.24862 0.32236 0.927389 1.24855 0.321947 0.927519 1.24842 0.321606 0.927763 
1.24824 0.321379 0.928093 1.2508 0.32129 0.930537 1.24063 0.323869 0.925963 
1.23971 0.323869 0.925771 1.2398 0.323777 0.925353 1.23987 0.323549 0.924989 
1.23992 0.32321 0.92472 1.23995 0.322798 0.924577 1.23995 0.322362 0.924577 
1.23992 0.32195 0.92472 1.23987 0.321611 0.924989 1.2398 0.321382 0.925353 
1.24063 0.321291 0.925963 1.24804 0.32129 0.928472 1.20405 0.323868 0.922825 
1.20099 0.323868 0.922723 1.201 0.32377 0.922303 1.20101 0.32354 0.921939 
1.20102 0.323202 0.921671 1.20103 0.322795 0.92153 1.20103 0.322365 0.92153 
1.20102 0.321958 0.921671 1.20101 0.32162 0.921939 1.201 0.32139 0.922303 
1.23971 0.321291 0.925771 1.1997 0.323868 0.922682 1.14076 0.323867 0.921702 
1.09802 0.323867 0.921414 1.09803 0.323766 0.920998 1.09803 0.323535 0.920638 
1.09803 0.323198 0.920373 1.09803 0.322794 0.920234 1.09803 0.322366 0.920234 
1.09803 0.321962 0.920373 1.09803 0.321625 0.920638 1.09803 0.321394 0.920998 
1.14076 0.321293 0.921702 1.1997 0.321292 0.922682 1.08175 0.323867 0.921338 
1.04673 0.323867 0.921213 1.04673 0.323765 0.920798 1.04673 0.323534 0.920438 
1.04673 0.323198 0.920175 1.04673 0.322794 0.920035 1.04673 0.322366 0.920035 
1.04673 0.321962 0.920175 1.04673 0.321626 0.920438 1.04673 0.321395 0.920798 
1.08175 0.321293 0.921338 1.09802 0.321293 0.921414 1.02278 0.323867 0.921147 
0.963805 0.323867 0.92103 0.943756 0.323765 0.920585 0.943757 0.323533 0.920227 
[...]
CELL_DATA 2972
SCALARS STLSolidLabeling float
LOOKUP_TABLE default
0 0 0 0 0 0 0 0 0 
0 0 0 0 0 0 0 0 0 
0 0 0 0 0 0 0 0 0 
0 0 0 0 0 0 0 0 0 
0 0 0 0 0 0 0 0 0 
0 0 0 0 0 0 0 0 0 
0 0 0 0 0 0 0 0 0 
0 0 0 0 0 0 0 0 0 
0 0 0 0 0 0 0 0 0 
0 0 0 0 0 0 0 0 0 
0 0 0 0 0 0 0 0 0 
0 0 0 0 0 0 0 0 0 
0 0 0 0 0 0 0 0 0 
0 0 0 0 0 0 0 0 0 
0 0 0 0 0 0 0 0 0 
0 0 0 0 0 0 0 0 0 
0 0 0 0 0 0 0 0 0 
0 0 0 0 0 0 0 0 0 
0 0 0 0 0 0 0 0 0 
0 0 0 0 0 0 0 0 0 
0 0 0 0 0 0 0 0 0 
0 0 0 0 0 0 0 0 0 
0 0 0 0 0 0 0 0 0 
0 0 0 0 0 0 0 0 0 
0 0 0 0 0 0 0 0 0 
0 0 0 0 0 0 0 0 0 
0 0 0 0 0 0 0 0 0 
0 0 0 0 0 0 0 0 0 
0 0 0 0 0 0 0 0 0 
0 0 0 0 0 0 0 0 0 
0 0 0 0 0 0 0 0 0 
0 0 0 0 0 0 0 0 0 
0 0 0 0 0 0 0 0 0 
0 0 0 0 0 0 0 0 0 
0 0 0 0 0 0 0 0 0 
0 0 0 0 0 0 0 0 0 
0 0 0 0 0 0 0 0 0 
0 0 0 0 0 0 0 0 0 
0 0 0 0 0 0 0 0 0 
0 0 0 0 0 0 0 0 0 
0 0 0 0 0 0 0 0 0 
0 0 0 0 0 0 0 0 0 
0 0 0 0 0 0 0 0 0 
0 0 0 0 0 0 0 0 0 
0 0 0 0 0 0 0 0 0 
0 0 0 0 0 0 0 0 0 
0 0 0 0 0 0 0 0 0 
0 0 0 0 0 0 0 0 0 
0 0 0 0 0 0 0 0 0 
0 0 0 0 0 0 0 0 0 
0 0 0 0 0 0 0 0 0 
0 0 0 0 0 0 0 0 0 
0 0 0 0 0 0 0 0 0 
0 0 0 0 0 0 0 0 0 
0 0 0 0 0 0 0 0 0 
0 0 0 0 0 0 0 0 0 
0 0 0 0 0 0 0 0 0 
0 0 0 0 0 0 0 0 0 
0 0 0 0 0 0 0 0 0 
0 0 0 0 0 0 0 0 0 
0 0 0 0 0 0 0 0 0 
0 0 0 0 0 0 0 0 0 
0 0 0 0 0 0 0 0 0 
0 0 0 0 0 0 0 0 0 
0 0 0 0 0 0 0 0 0 
0 0 0 0 0 0 0 0 0 
0 0 0 0 0 0 0 0 0 
0 0 0 0 0 0 0 0 0 
0 0 0 0 0 0 0 0 0 
0 0 0 0 0 0 0 0 0 
0 0 0 0 0 0 0 0 0 
0 0 0 0 0 0 0 0 0 
0 0 0 0 0 0 0 0 0 
0 0 0 0 0 0 0 0 0 
0 0 0 0 0 0 0 0 0 
0 0 0 0 0 0 0 0 0 
0 0 0 0 0 0 0 0 0 
0 0 0 0 0 0 0 0 0 
0 0 0 0 0 0 0 0 0 
0 0 0 0 0 0 0 0 0 
0 0 0 0 0 0 0 0 0 
0 0 0 0 0 0 0 0 0 
0 0 0 0 0 0 0 0 0 
0 0 0 0 0 0 0 0 0 
0 0 0 0 0 0 0 0 0 
0 0 0 0 0 0 0 0 0 
0 0 0 0 0 0 0 0 0 
0 0 0 0 0 0 0 0 0 
0 0 0 0 0 0 0 0 0 
0 0 0 0 0 0 0 0 0 
0 0 0 0 0 0 0 0 0 
0 0 0 0 0 0 0 0 0 
0 0 0 0 0 0 0 0 0 
0 0 0 0 0 0 0 0 0 
0 0 0 0 0 0 0 0 0 
0 0 0 0 0 0 0 0 0 
0 0 0 0 0 0 0 0 0 
0 0 0 0 0 0 0 0 0 
0 0 0 0 0 0 0 0 0 
0 0 0 0 0 0 0 0 0 
0 0 0 0 0 0 0 0 0 
0 0 0 0 0 0 0 0 0 
0 0 0 0 0 0 0 0 0 
0 0 0 0 0 0 0 0 0 
0 0 0 0 0 0 0 0 0 
0 0 0 0 0 0 0 0 0 
0 0 0 0 0 0 0 0 0 
0 0 0 0 0 0 0 0 0 
0 0 0 0 0 0 0 0 0 
0 0 0 0 0 0 0 0 0 
0 0 0 0 0 0 0 0 0 
0 0 0 0 0 0 0 0 0 
0 0 0 0 0 0 0 0 0 
0 0 0 0 0 0 0 0 0 
0 0 0 0 0 0 0 0 0 
0 0 0 0 0 0 0 0 0 
0 0 0 0 0 0 0 0 0 
0 0 0 0 0 0 0 0 0 
0 0 0 0 0 0 0 0 0 
0 0 0 0 0 0 0 0 0 
0 0 0 0 0 0 0 0 0 
0 0 0 0 0 0 0 0 0 
0 0 0 0 0 0 0 0 0 
0 0 0 0 0 0 0 0 0 
0 0 0 0 0 0 0 0 0 
0 0 0 0 0 0 0 0 0 
0 0 0 0 0 0 0 0 0 
0 0 0 0 0 0 0 0 0 
0 0 0 0 0 0 0 0 0 
0 0 0 0 0 0 0 0 0 
0 0 0 0 0 0 0 0 0 
0 0 0 0 0 0 0 0 0 
0 0 0 0 0 0 0 0 0 
0 0 0 0 0 0 0 0 0 
0 0 0 0 0 0 0 0 0 
0 0 0 0 0 0 0 0 0 
0 0 0 0 0 0 0 0 0 
0 0 0 0 0 0 0 0 0 
0 0 0 0 0 0 0 0 0 
0 0 0 0 0 0 0 0 0 
0 0 0 0 0 0 0 0 0 
0 0 0 0 0 0 0 0 0 
0 0 0 0 0 0 0 0 0 
0 0 0 0 0 0 0 0 0 
0 0 0 0 0 0 0 0 0 
0 0 0 0 0 0 0 0 0 
0 0 0 0 0 0 0 0 0 
0 0 0 0 0 0 0 0 0 
0 0 0 0 0 0 0 0 0 
0 0 0 0 0 0 0 0 0 
0 0 0 0 0 0 0 0 0 
0 0 0 0 0 0 0 0 0 
0 0 0 0 0 0 0 0 0 
0 0 0 0 0 0 0 0 0 
0 0 0 0 0 0 0 0 0 
0 0 0 0 0 0 0 0 0 
0 0 0 0 0 0 0 0 0 
0 0 0 0 0 0 0 0 0 
0 0 0 0 0 0 0 0 0 
0 0 0 0 0 0 0 0 0 
0 0 0 0 0 0 0 0 0 
0 0 0 0 0 0 0 0 0 
0 0 0 0 0 0 0 0 0 
0 0 0 0 0 0 0 0 0 
0 0 0 0 0 0 0 0 0 
0 0 0 0 0 0 0 0 0 
0 0 0 0 0 0 0 0 0 
0 0 0 0 0 0 0 0 0 
0 0 0 0 0 0 0 0 0 
0 0 0 0 0 0 0 0 0 
0 0 0 0 0 0 0 0 0 
0 0 0 0 0 0 0 0 0 
0 0 0 0 0 0 0 0 0 
0 0 0 0 0 0 0 0 0 
0 0 0 0 0 0 0 0 0 
0 0 0 0 0 0 0 0 0 
0 0 0 0 0 0 0 0 0 
0 0 0 0 0 0 0 0 0 
0 0 0 0 0 0 0 0 0 
0 0 0 0 0 0 0 0 0 
0 0 0 0 0 0 0 0 0 
0 0 0 0 0 0 0 0 0 
0 0 0 0 0 0 0 0 0 
0 0 0 0 0 0 0 0 0 
0 0 0 0 0 0 0 0 0 
0 0 0 0 0 0 0 0 0 
0 0 0 0 0 0 0 0 0 
0 0 0 0 0 0 0 0 0 
0 0 0 0 0 0 0 0 0 
0 0 0 0 0 0 0 0 0 
0 0 0 0 0 0 0 0 0 
0 0 0 0 0 0 0 0 0 
0 0 0 0 0 0 0 0 0 
0 0 0 0 0 0 0 0 0 
0 0 0 0 0 0 0 0 0 
0 0 0 0 0 0 0 0 0 
0 0 0 0 0 0 0 0 0 
0 0 0 0 0 0 0 0 0 
0 0 0 0 0 0 0 0 0 
0 0 0 0 0 0 0 0 0 
0 0 0 0 0 0 0 0 0 
0 0 0 0 0 0 0 0 0 
0 0 0 0 0 0 0 0 0 
0 0 0 0 0 0 0 0 0 
0 0 0 0 0 0 0 0 0 
0 0 0 0 0 0 0 0 0 
0 0 0 0 0 0 0 0 0 
0 0 0 0 0 0 0 0 0 
0 0 0 0 0 0 0 0 0 
0 0 0 0 0 0 0 0 0 
0 0 0 0 0 0 0 0 0 
0 0 0 0 0 0 0 0 0 
0 0 0 0 0 0 0 0 0 
0 0 0 0 0 0 0 0 0 
0 0 0 0 0 0 0 0 0 
0 0 0 0 0 0 0 0 0 
0 0 0 0 0 0 0 0 0 
0 0 0 0 0 0 0 0 0 
0 0 0 0 0 0 0 0 0 
0 0 0 0 0 0 0 0 0 
0 0 0 0 0 0 0 0 0 
0 0 0 0 0 0 0 0 0 
0 0 0 0 0 0 0 0 0 
0 0 0 0 0 0 0 0 0 
0 0 0 0 0 0 0 0 0 
0 0 0 0 0 0 0 0 0 
0 0 0 0 0 0 0 0 0 
0 0 0 0 0 0 0 0 0 
0 0 0 0 0 0 0 0 0 
0 0 0 0 0 0 0 0 0 
0 0 0 0 0 0 0 0 0 
0 0 0 0 0 0 0 0 0 
0 0 0 0 0 0 0 0 0 
0 0 0 0 0 0 0 0 0 
0 0 0 0 0 0 0 0 0 
0 0 0 0 0 0 0 0 0 
0 0 0 0 0 0 0 0 0 
0 0 0 0 0 0 0 0 0 
0 0 0 0 0 0 0 0 0 
0 0 0 0 0 0 0 0 0 
0 0 0 0 0 0 0 0 0 
0 0 0 0 0 0 0 0 0 
0 0 0 0 0 0 0 0 0 
0 0 0 0 0 0 0 0 0 
0 0 0 0 0 0 0 0 0 
0 0 0 0 0 0 0 0 0 
0 0 0 0 0 0 0 0 0 
0 0 0 0 0 0 0 0 0 
0 0 0 0 0 0 0 0 0 
0 0 0 0 0 0 0 0 0 
0 0 0 0 0 0 0 0 0 
0 0 0 0 0 0 0 0 0 
0 0 0 0 0 0 0 0 0 
0 0 0 0 0 0 0 0 0 
0 0 0 0 0 0 0 0 0 
0 0 0 0 0 0 0 0 0 
0 0 0 0 0 0 0 0 0 
0 0 0 0 0 0 0 0 0 
0 0 0 0 0 0 0 0 0 
0 0 0 0 0 0 0 0 0 
0 0 0 0 0 0 0 0 0 
0 0 0 0 0 0 0 0 0 
0 0 0 0 0 0 0 0 0 
0 0 0 0 0 0 0 0 0 
0 0 0 0 0 0 0 0 0 
0 0 0 0 0 0 0 0 0 
0 0 0 0 0 0 0 0 0 
0 0 0 0 0 0 0 0 0 
0 0 0 0 0 0 0 0 0 
0 0 0 0 0 0 0 0 0 
0 0 0 0 0 0 0 0 0 
0 0 0 0 0 0 0 0 0 
0 0 0 0 0 0 0 0 0 
0 0 0 0 0 0 0 0 0 
0 0 0 0 0 0 0 0 0 
0 0 0 0 0 0 0 0 0 
0 0 0 0 0 0 0 0 0 
0 0 0 0 0 0 0 0 0 
0 0 0 0 0 0 0 0 0 
0 0 0 0 0 0 0 0 0 
0 0 0 0 0 0 0 0 0 
0 0 0 0 0 0 0 0 0 
0 0 0 0 0 0 0 0 0 
0 0 0 0 0 0 0 0 0 
0 0 0 0 0 0 0 0 0 
0 0 0 0 0 0 0 0 0 
0 0 0 0 0 0 0 0 0 
0 0 0 0 0 0 0 0 0 
0 0 0 0 0 0 0 0 0 
0 0 0 0 0 0 0 0 0 
0 0 0 0 0 0 0 0 0 
0 0 0 0 0 0 0 0 0 
0 0 0 0 0 0 0 0 0 
0 0 0 0 0 0 0 0 0 
0 0 0 0 0 0 0 0 0 
0 0 0 0 0 0 0 0 0 
0 0 0 0 0 0 0 0 0 
0 0 0 0 0 0 0 0 0 
0 0 0 0 0 0 0 0 0 
0 0 0 0 0 0 0 0 0 
0 0 0 0 0 0 0 0 0 
0 0 0 0 0 0 0 0 0 
0 0 0 0 0 0 0 0 0 
0 0 0 0 0 0 0 0 0 
0 0 0 0 0 0 0 0 0 
0 0 0 0 0 0 0 0 0 
0 0 0 0 0 0 0 0 0 
0 0 0 0 0 0 0 0 0 
0 0 0 0 0 0 0 0 0 
0 0 0 0 0 0 0 0 0 
0 0 0 0 0 0 0 0 0 
0 0 0 0 0 0 0 0 0 
0 0 0 0 0 0 0 0 0 
0 0 0 0 0 0 0 0 0 
0 0 0 0 0 0 0 0 0 
0 0 0 0 0 0 0 0 0 
0 0 0 0 0 0 0 0 0 
0 0 0 0 0 0 0 0 0 
0 0 0 0 0 0 0 0 0 
0 0 0 0 0 0 0 0 0 
0 0 0 0 0 0 0 0 0 
0 0 0 0 0 0 0 0 0 
0 0 0 0 0 0 0 0 0 
0 0 0 0 0 0 0 0 0 
0 0 0 0 0 0 0 0 0 
0 0 0 0 0 0 0 0 0 
0 0 0 0 0 0 0 0 0 
0 0 0 0 0 0 0 0 0 
0 0 0 0 0 0 0 0 0 
0 0 0 0 0 0 0 0 0 
0 0 
METADATA
INFORMATION 0

