# vtk DataFile Version 3.0
MachLine results file. Generated by MachLine, USU AeroLab (c) 2022.
ASCII
DATASET POLYDATA
POINTS                 704 float
  0.102410356860E-04  0.000000000000E+00  0.000000000000E+00
  0.158569833933E-04  0.995846629143E+00  0.000000000000E+00
  0.301561625428E-04  0.317612481117E+01 -0.737904836775E-21
  0.518103325975E-04  0.758029556274E+01  0.000000000000E+00
  0.717461722371E-04  0.151882019043E+02  0.000000000000E+00
  0.742466467326E-04  0.253556423187E+02  0.000000000000E+00
  0.573317036201E-04  0.351242027283E+02 -0.140287549325E-20
  0.352207221702E-04  0.419466094971E+02  0.000000000000E+00
  0.190284384380E-04  0.457211151123E+02 -0.465615501964E-21
  0.102162159788E-04  0.475446701050E+02  0.000000000000E+00
  0.626117164597E-05  0.483679389954E+02  0.000000000000E+00
  0.469708608213E-05  0.487282104492E+02 -0.114935132540E-21
  0.408850166439E-05  0.488837165833E+02 -0.100043404032E-21
  0.384248469761E-05  0.489504356384E+02  0.000000000000E+00
  0.374010415538E-05  0.489789886475E+02 -0.915183071581E-22
  0.369687756567E-05  0.489911956787E+02 -0.904605761030E-22
  0.367850058352E-05  0.489964141846E+02  0.000000000000E+00
  0.367065983506E-05  0.489986419678E+02 -0.898190425457E-22
  0.366732118364E-05  0.489995918274E+02  0.000000000000E+00
  0.424958506163E-05  0.489999982872E+02  0.175653083435E-20
  0.327014352557E+00  0.000000000000E+00 -0.377898218536E+00
  0.327014352557E+00  0.000000000000E+00  0.377898218536E+00
  0.327017057331E+00  0.995846629143E+00 -0.377896180725E+00
  0.327017057331E+00  0.995846629143E+00  0.377896180725E+00
  0.327023825821E+00  0.317612481117E+01 -0.377886112857E+00
  0.327023825821E+00  0.317612481117E+01  0.377886112857E+00
  0.327034837394E+00  0.758029556274E+01 -0.377869733566E+00
  0.327034837394E+00  0.758029556274E+01  0.377869733566E+00
  0.327046593121E+00  0.151882019043E+02 -0.377852247375E+00
  0.327046593121E+00  0.151882019043E+02  0.377852247375E+00
  0.327051011709E+00  0.253556423187E+02 -0.377845674895E+00
  0.327051011709E+00  0.253556423187E+02  0.377845674895E+00
  0.327044198788E+00  0.351242027283E+02 -0.377855808853E+00
  0.327044198788E+00  0.351242027283E+02  0.377855808853E+00
  0.327032019361E+00  0.419466094971E+02 -0.377873925281E+00
  0.327032019361E+00  0.419466094971E+02  0.377873925281E+00
  0.327021973480E+00  0.457211151123E+02 -0.377888868144E+00
  0.327021973480E+00  0.457211151123E+02  0.377888868144E+00
  0.327016236555E+00  0.475446701050E+02 -0.377897401598E+00
  0.327016236555E+00  0.475446701050E+02  0.377897401598E+00
  0.327013577309E+00  0.483679389954E+02 -0.377901357124E+00
  0.327013577309E+00  0.483679389954E+02  0.377901357124E+00
  0.327012493777E+00  0.487282104492E+02 -0.377902968837E+00
  0.327012493777E+00  0.487282104492E+02  0.377902968837E+00
  0.327012090000E+00  0.488837165833E+02 -0.377903569440E+00
  0.327012090000E+00  0.488837165833E+02  0.377903569440E+00
  0.327011938892E+00  0.489504356384E+02 -0.377903794206E+00
  0.327011938892E+00  0.489504356384E+02  0.377903794206E+00
  0.327011879137E+00  0.489789886475E+02 -0.377903883090E+00
  0.327011879137E+00  0.489789886475E+02  0.377903883090E+00
  0.327011854533E+00  0.489911956787E+02 -0.377903919687E+00
  0.327011854533E+00  0.489911956787E+02  0.377903919687E+00
  0.327011844191E+00  0.489964141846E+02 -0.377903935070E+00
  0.327011844191E+00  0.489964141846E+02  0.377903935070E+00
  0.327011839801E+00  0.489986419678E+02 -0.377903941601E+00
  0.327011839801E+00  0.489986419678E+02  0.377903941601E+00
  0.327011837935E+00  0.489995918274E+02 -0.377903944376E+00
  0.327011837935E+00  0.489995918274E+02  0.377903944376E+00
  0.327012173500E+00  0.489999988327E+02 -0.377903502448E+00
  0.327012173500E+00  0.489999988327E+02  0.377903502448E+00
  0.327012364299E+00  0.492672183427E+02 -0.267217829015E+00
  0.327012364299E+00  0.492672183427E+02  0.267217829015E+00
  0.327011903953E+00  0.493779055394E+02 -0.118643100665E-14
  0.141894035737E+01  0.000000000000E+00 -0.747375980145E+00
  0.141894035737E+01  0.000000000000E+00  0.747375980145E+00
  0.141894127237E+01  0.995846629143E+00 -0.747374681892E+00
  0.141894127237E+01  0.995846629143E+00  0.747374681892E+00
  0.141894390508E+01  0.317612481117E+01 -0.747363745796E+00
  0.141894390508E+01  0.317612481117E+01  0.747363745796E+00
  0.141894840332E+01  0.758029556274E+01 -0.747345060329E+00
  0.141894840332E+01  0.758029556274E+01  0.747345060329E+00
  0.141895328544E+01  0.151882019043E+02 -0.747324780300E+00
  0.141895328544E+01  0.151882019043E+02  0.747324780300E+00
  0.141895513495E+01  0.253556423187E+02 -0.747317097528E+00
  0.141895513495E+01  0.253556423187E+02  0.747317097528E+00
  0.141895231496E+01  0.351242027283E+02 -0.747328811604E+00
  0.141895231496E+01  0.351242027283E+02  0.747328811604E+00
  0.141894730351E+01  0.419466094971E+02 -0.747349628896E+00
  0.141894730351E+01  0.419466094971E+02  0.747349628896E+00
  0.141894325242E+01  0.457211151123E+02 -0.747366456883E+00
  0.141894325242E+01  0.457211151123E+02  0.747366456883E+00
  0.141894101093E+01  0.475446701050E+02 -0.747375767913E+00
  0.141894101093E+01  0.475446701050E+02  0.747375767913E+00
  0.141894001702E+01  0.483679389954E+02 -0.747379896582E+00
  0.141894001702E+01  0.483679389954E+02  0.747379896582E+00
  0.141893963134E+01  0.487282104492E+02 -0.747381498648E+00
  0.141893963134E+01  0.487282104492E+02  0.747381498648E+00
  0.141893948448E+01  0.488837165833E+02 -0.747382108726E+00
  0.141893948448E+01  0.488837165833E+02  0.747382108726E+00
  0.141893942602E+01  0.489504356384E+02 -0.747382351556E+00
  0.141893942602E+01  0.489504356384E+02  0.747382351556E+00
  0.141893940189E+01  0.489789886475E+02 -0.747382451779E+00
  0.141893940189E+01  0.489789886475E+02  0.747382451779E+00
  0.141893939174E+01  0.489911956787E+02 -0.747382493932E+00
  0.141893939174E+01  0.489911956787E+02  0.747382493932E+00
  0.141893938744E+01  0.489964141846E+02 -0.747382511821E+00
  0.141893938744E+01  0.489964141846E+02  0.747382511821E+00
  0.141893938560E+01  0.489986419678E+02 -0.747382519449E+00
  0.141893938560E+01  0.489986419678E+02  0.747382519449E+00
  0.141893938482E+01  0.489995918274E+02 -0.747382522695E+00
  0.141893938482E+01  0.489995918274E+02  0.747382522695E+00
  0.141893962819E+01  0.489999972990E+02 -0.747381585866E+00
  0.141893962819E+01  0.489999972990E+02  0.747381585866E+00
  0.141893995162E+01  0.495284776296E+02 -0.528477624323E+00
  0.141893995162E+01  0.495284776296E+02  0.528477624323E+00
  0.141893980026E+01  0.497473820064E+02 -0.643251964087E-15
  0.375130980686E+01  0.000000000000E+00 -0.109079539714E+01
  0.375130980686E+01  0.000000000000E+00  0.109079539714E+01
  0.375131046135E+01  0.995846629143E+00 -0.109079513960E+01
  0.375131046135E+01  0.995846629143E+00  0.109079513960E+01
  0.375131129240E+01  0.317612481117E+01 -0.109078513506E+01
  0.375131129240E+01  0.317612481117E+01  0.109078513506E+01
  0.375131279175E+01  0.758029556274E+01 -0.109076708512E+01
  0.375131279175E+01  0.758029556274E+01  0.109076708512E+01
  0.375131447234E+01  0.151882019043E+02 -0.109074685338E+01
  0.375131447234E+01  0.151882019043E+02  0.109074685338E+01
  0.375131511910E+01  0.253556423187E+02 -0.109073906740E+01
  0.375131511910E+01  0.253556423187E+02  0.109073906740E+01
  0.375131414877E+01  0.351242027283E+02 -0.109075074874E+01
  0.375131414877E+01  0.351242027283E+02  0.109075074874E+01
  0.375131244036E+01  0.419466094971E+02 -0.109077131533E+01
  0.375131244036E+01  0.419466094971E+02  0.109077131533E+01
  0.375131109119E+01  0.457211151123E+02 -0.109078755731E+01
  0.375131109119E+01  0.457211151123E+02  0.109078755731E+01
  0.375131037172E+01  0.475446701050E+02 -0.109079621866E+01
  0.375131037172E+01  0.475446701050E+02  0.109079621866E+01
  0.375131006575E+01  0.483679389954E+02 -0.109079990206E+01
  0.375131006575E+01  0.483679389954E+02  0.109079990206E+01
  0.375130994532E+01  0.487282104492E+02 -0.109080135186E+01
  0.375130994532E+01  0.487282104492E+02  0.109080135186E+01
  0.375130989701E+01  0.488837165833E+02 -0.109080193346E+01
  0.375130989701E+01  0.488837165833E+02  0.109080193346E+01
  0.375130987704E+01  0.489504356384E+02 -0.109080217390E+01
  0.375130987704E+01  0.489504356384E+02  0.109080217390E+01
  0.375130986863E+01  0.489789886475E+02 -0.109080227506E+01
  0.375130986863E+01  0.489789886475E+02  0.109080227506E+01
  0.375130986507E+01  0.489911956787E+02 -0.109080231798E+01
  0.375130986507E+01  0.489911956787E+02  0.109080231798E+01
  0.375130986355E+01  0.489964141846E+02 -0.109080233627E+01
  0.375130986355E+01  0.489964141846E+02  0.109080233627E+01
  0.375130986290E+01  0.489986419678E+02 -0.109080234407E+01
  0.375130986290E+01  0.489986419678E+02  0.109080234407E+01
  0.375130986262E+01  0.489995918274E+02 -0.109080234740E+01
  0.375130986262E+01  0.489995918274E+02  0.109080234740E+01
  0.375130998496E+01  0.489999952007E+02 -0.109080112314E+01
  0.375130998496E+01  0.489999952007E+02  0.109080112314E+01
  0.375131014651E+01  0.497713093959E+02 -0.771311326342E+00
  0.375131014651E+01  0.497713093959E+02  0.771311326342E+00
  0.375131040860E+01  0.500908007208E+02 -0.190840328127E-15
  0.764637724720E+01  0.000000000000E+00 -0.116698927685E+01
  0.764637724720E+01  0.000000000000E+00  0.116698927685E+01
  0.764637701180E+01  0.995846629143E+00 -0.116698069969E+01
  0.764637701180E+01  0.995846629143E+00  0.116698069969E+01
  0.764637679886E+01  0.317612481117E+01 -0.116697294062E+01
  0.764637679886E+01  0.317612481117E+01  0.116697294062E+01
  0.764637639062E+01  0.758029556274E+01 -0.116695806587E+01
  0.764637639062E+01  0.758029556274E+01  0.116695806587E+01
  0.764637583999E+01  0.151882019043E+02 -0.116693800281E+01
  0.764637583999E+01  0.151882019043E+02  0.116693800281E+01
  0.764637549958E+01  0.253556423187E+02 -0.116692559935E+01
  0.764637549958E+01  0.253556423187E+02  0.116692559935E+01
[...]
POINT_DATA                 704
SCALARS phi float 1
LOOKUP_TABLE default
 -0.101811354990E-04
 -0.157642353261E-04
 -0.299797780611E-04
 -0.515072920949E-04
 -0.713265262912E-04
 -0.738123754204E-04
 -0.569963684194E-04
 -0.350147148967E-04
 -0.189171404168E-04
 -0.101564609629E-04
 -0.622454982699E-05
 -0.466961265507E-05
 -0.406458787077E-05
 -0.382000986524E-05
 -0.371822815039E-05
 -0.367525439565E-05
 -0.365698490105E-05
 -0.364919001252E-05
 -0.364587088923E-05
 -0.422472908607E-05
 -0.284288869703E+00
 -0.365914397952E+00
 -0.284291778739E+00
 -0.365916866823E+00
 -0.284299594963E+00
 -0.365922508401E+00
 -0.284312311082E+00
 -0.365931686613E+00
 -0.284325886546E+00
 -0.365941485083E+00
 -0.284330989113E+00
 -0.365945168003E+00
 -0.284323121580E+00
 -0.365939489392E+00
 -0.284309056829E+00
 -0.365929337766E+00
 -0.284297455887E+00
 -0.365920964463E+00
 -0.284290830910E+00
 -0.365916182701E+00
 -0.284287760024E+00
 -0.365913966204E+00
 -0.284286508765E+00
 -0.365913063073E+00
 -0.284286042485E+00
 -0.365912726522E+00
 -0.284285867987E+00
 -0.365912600573E+00
 -0.284285798981E+00
 -0.365912550767E+00
 -0.284285770570E+00
 -0.365912530260E+00
 -0.284285758627E+00
 -0.365912521640E+00
 -0.284285753556E+00
 -0.365912517980E+00
 -0.284285751402E+00
 -0.365912516425E+00
 -0.284286132732E+00
 -0.365912802299E+00
 -0.296240303832E+00
 -0.353959010565E+00
 -0.325099199546E+00
 -0.132992479977E+01
 -0.149135704842E+01
 -0.132992584964E+01
 -0.149135781787E+01
 -0.132992964803E+01
 -0.149135925408E+01
 -0.132993613798E+01
 -0.149136170800E+01
 -0.132994318177E+01
 -0.149136437132E+01
 -0.132994585020E+01
 -0.149136538028E+01
 -0.132994178160E+01
 -0.149136384190E+01
 -0.132993455120E+01
 -0.149136110802E+01
 -0.132992870640E+01
 -0.149135889804E+01
 -0.132992547243E+01
 -0.149135767524E+01
 -0.132992403844E+01
 -0.149135713303E+01
 -0.132992348200E+01
 -0.149135692264E+01
 -0.132992327010E+01
 -0.149135684252E+01
 -0.132992318576E+01
 -0.149135681063E+01
 -0.132992315095E+01
 -0.149135679747E+01
 -0.132992313631E+01
 -0.149135679193E+01
 -0.132992313010E+01
 -0.149135678958E+01
 -0.132992312745E+01
 -0.149135678858E+01
 -0.132992312632E+01
 -0.149135678815E+01
 -0.132992346945E+01
 -0.149135692893E+01
 -0.135356527779E+01
 -0.146771576365E+01
 -0.141064037025E+01
 -0.361156306056E+01
 -0.384717346075E+01
 -0.361156373903E+01
 -0.384717408360E+01
 -0.361156564570E+01
 -0.384717382930E+01
 -0.361156908567E+01
 -0.384717337050E+01
 -0.361157294144E+01
 -0.384717285625E+01
 -0.361157442530E+01
 -0.384717265834E+01
 -0.361157219906E+01
 -0.384717295526E+01
 -0.361156827947E+01
 -0.384717347803E+01
 -0.361156518407E+01
 -0.384717389087E+01
 -0.361156353338E+01
 -0.384717411103E+01
 -0.361156283140E+01
 -0.384717420465E+01
 -0.361156255509E+01
 -0.384717424150E+01
 -0.361156244425E+01
 -0.384717425629E+01
 -0.361156239843E+01
 -0.384717426240E+01
 -0.361156237915E+01
 -0.384717426497E+01
 -0.361156237097E+01
 -0.384717426606E+01
 -0.361156236749E+01
 -0.384717426652E+01
 -0.361156236600E+01
 -0.384717426672E+01
 -0.361156236536E+01
 -0.384717426681E+01
 -0.361156261920E+01
 -0.384717425621E+01
 -0.364606747202E+01
 -0.381266972460E+01
 -0.372936885887E+01
 -0.747561922119E+01
 -0.772768740122E+01
 -0.747561991349E+01
 -0.772768624087E+01
 -0.747562053976E+01
 -0.772768519119E+01
 -0.747562174038E+01
 -0.772768317888E+01
 -0.747562335977E+01
 -0.772768046467E+01
 -0.747562436092E+01
 -0.772767878669E+01
 -0.747562375764E+01
 -0.772767979782E+01
 -0.747562209792E+01
 -0.772768257962E+01
 -0.747562066257E+01
 -0.772768498536E+01
 -0.747561991225E+01
 -0.772768624294E+01
 -0.747561960802E+01
 -0.772768675286E+01
 -0.747561949029E+01
 -0.772768695018E+01
 -0.747561944318E+01
 -0.772768702914E+01
 -0.747561942371E+01
 -0.772768706177E+01
 -0.747561941552E+01
 -0.772768707550E+01
 -0.747561941205E+01
 -0.772768708132E+01
 -0.747561941057E+01
 -0.772768708380E+01
 -0.747561940993E+01
 -0.772768708486E+01
 -0.747561940966E+01
 -0.772768708531E+01
 -0.747561951913E+01
 -0.772768690160E+01
 -0.751253438195E+01
 -0.769077193624E+01
 -0.760165306209E+01
 -0.120978940851E+02
 -0.122756707539E+02
 -0.120978939263E+02
 -0.122756703186E+02
 -0.120978941022E+02
 -0.122756684672E+02
 -0.120978944235E+02
 -0.122756650840E+02
 -0.120978947906E+02
 -0.122756612196E+02
 -0.120978949327E+02
 -0.122756597232E+02
 -0.120978947177E+02
 -0.122756619868E+02
 -0.120978943432E+02
 -0.122756659295E+02
 -0.120978940537E+02
 -0.122756689778E+02
 -0.120978939039E+02
 -0.122756705543E+02
 -0.120978938405E+02
 -0.122756712218E+02
 -0.120978938148E+02
 -0.122756714924E+02
 -0.120978938042E+02
 -0.122756716040E+02
 -0.120978937998E+02
 -0.122756716508E+02
 -0.120978937979E+02
 -0.122756716706E+02
 -0.120978937971E+02
 -0.122756716791E+02
 -0.120978937967E+02
 -0.122756716827E+02
 -0.120978937966E+02
 -0.122756716842E+02
 -0.120978937965E+02
 -0.122756716849E+02
 -0.120978938025E+02
 -0.122756715503E+02
 -0.121239287335E+02
 -0.122496363087E+02
 -0.121867825130E+02
 -0.158418469506E+02
 -0.159351417272E+02
 -0.158418469375E+02
 -0.159351416419E+02
 -0.158418469589E+02
 -0.159351394824E+02
 -0.158418469974E+02
 -0.159351356021E+02
 -0.158418470404E+02
 -0.159351312681E+02
 -0.158418470569E+02
 -0.159351296031E+02
 -0.158418470321E+02
 -0.159351321039E+02
 -0.158418469884E+02
 -0.159351365116E+02
 -0.158418469538E+02
 -0.159351400014E+02
 -0.158418469353E+02
 -0.159351418704E+02
 -0.158418469274E+02
 -0.159351426673E+02
 -0.158418469243E+02
 -0.159351429798E+02
 -0.158418469230E+02
 -0.159351431045E+02
 -0.158418469225E+02
 -0.159351431560E+02
 -0.158418469223E+02
 -0.159351431776E+02
 -0.158418469222E+02
 -0.159351431867E+02
 -0.158418469222E+02
 -0.159351431906E+02
 -0.158418469222E+02
 -0.159351431923E+02
 -0.158418469222E+02
 -0.159351431930E+02
 -0.158418469222E+02
 -0.159351431441E+02
 -0.158555098083E+02
 -0.159214800372E+02
 -0.158884952142E+02
 -0.180424557837E+02
 -0.180847323739E+02
 -0.180424557879E+02
 -0.180847320218E+02
 -0.180424558001E+02
 -0.180847295912E+02
 -0.180424558207E+02
 -0.180847254659E+02
 -0.180424558430E+02
 -0.180847210005E+02
 -0.180424558514E+02
 -0.180847193110E+02
 -0.180424558385E+02
 -0.180847218915E+02
 -0.180424558156E+02
 -0.180847264811E+02
 -0.180424557970E+02
 -0.180847302005E+02
 -0.180424557867E+02
 -0.180847322657E+02
 -0.180424557821E+02
 -0.180847331865E+02
 -0.180424557803E+02
 -0.180847335447E+02
 -0.180424557797E+02
 -0.180847336804E+02
 -0.180424557794E+02
 -0.180847337340E+02
 -0.180424557793E+02
 -0.180847337561E+02
 -0.180424557792E+02
 -0.180847337654E+02
 -0.180424557792E+02
 -0.180847337693E+02
 -0.180424557792E+02
 -0.180847337710E+02
 -0.180424557792E+02
 -0.180847337717E+02
 -0.180424557793E+02
 -0.180847337588E+02
 -0.180486472299E+02
 -0.180785421986E+02
 -0.180635949395E+02
 -0.191012266234E+02
 -0.191191395214E+02
 -0.191012266296E+02
 -0.191191388195E+02
 -0.191012266497E+02
 -0.191191362230E+02
 -0.191012266824E+02
 -0.191191320114E+02
 -0.191012267172E+02
 -0.191191275188E+02
 -0.191012267303E+02
 -0.191191258309E+02
 -0.191012267101E+02
 -0.191191284351E+02
 -0.191012266740E+02
 -0.191191330923E+02
 -0.191012266442E+02
 -0.191191369393E+02
 -0.191012266271E+02
 -0.191191391431E+02
 -0.191012266191E+02
 -0.191191401682E+02
 -0.191012266159E+02
 -0.191191405881E+02
 -0.191012266146E+02
 -0.191191407450E+02
 -0.191012266142E+02
 -0.191191408033E+02
 -0.191012266140E+02
 -0.191191408263E+02
 -0.191012266139E+02
 -0.191191408357E+02
 -0.191012266139E+02
 -0.191191408397E+02
 -0.191012266139E+02
 -0.191191408413E+02
 -0.191012266139E+02
 -0.191191408421E+02
 -0.191012266139E+02
 -0.191191408390E+02
 -0.191038500845E+02
 -0.191165173203E+02
 -0.191101838192E+02
 -0.195615378451E+02
 -0.195688951226E+02
 -0.195615378531E+02
 -0.195688942515E+02
 -0.195615378770E+02
 -0.195688916046E+02
 -0.195615379152E+02
 -0.195688873740E+02
 -0.195615379557E+02
 -0.195688828779E+02
 -0.195615379709E+02
 -0.195688811916E+02
 -0.195615379474E+02
 -0.195688838005E+02
 -0.195615379053E+02
 -0.195688884736E+02
 -0.195615378702E+02
 -0.195688923629E+02
 -0.195615378496E+02
 -0.195688946398E+02
 -0.195615378398E+02
 -0.195688957365E+02
 -0.195615378355E+02
 -0.195688962063E+02
 -0.195615378338E+02
 -0.195688963919E+02
 -0.195615378332E+02
 -0.195688964601E+02
 -0.195615378330E+02
 -0.195688964853E+02
 -0.195615378329E+02
 -0.195688964951E+02
 -0.195615378329E+02
 -0.195688964991E+02
 -0.195615378329E+02
 -0.195688965008E+02
 -0.195615378329E+02
 -0.195688965015E+02
 -0.195615378329E+02
 -0.195688965009E+02
 -0.195626154820E+02
 -0.195678188318E+02
 -0.195652172092E+02
 -0.197527969478E+02
 -0.197557749388E+02
 -0.197527969566E+02
 -0.197557740246E+02
 -0.197527969820E+02
 -0.197557713681E+02
 -0.197527970225E+02
 -0.197557671351E+02
 -0.197527970654E+02
 -0.197557626396E+02
 -0.197527970815E+02
 -0.197557609541E+02
 -0.197527970566E+02
 -0.197557635632E+02
 -0.197527970119E+02
 -0.197557682382E+02
 -0.197527969747E+02
 -0.197557721356E+02
 -0.197527969527E+02
 -0.197557744328E+02
 -0.197527969419E+02
 -0.197557755635E+02
 -0.197527969371E+02
 -0.197557760656E+02
 -0.197527969352E+02
 -0.197557762732E+02
 -0.197527969344E+02
 -0.197557763541E+02
 -0.197527969341E+02
 -0.197557763837E+02
 -0.197527969340E+02
 -0.197557763945E+02
 -0.197527969340E+02
 -0.197557763987E+02
 -0.197527969339E+02
 -0.197557764005E+02
 -0.197527969339E+02
 -0.197557764012E+02
 -0.197527969339E+02
 -0.197557764012E+02
 -0.197532332658E+02
 -0.197553400613E+02
 -0.197542866855E+02
 -0.198307616702E+02
 -0.198319555697E+02
 -0.198307616793E+02
 -0.198319546476E+02
 -0.198307617053E+02
 -0.198319519898E+02
 -0.198307617466E+02
 -0.198319477569E+02
 -0.198307617905E+02
 -0.198319432620E+02
 -0.198307618070E+02
 -0.198319415769E+02
 -0.198307617815E+02
 -0.198319441857E+02
 -0.198307617358E+02
 -0.198319488604E+02
 -0.198307616977E+02
 -0.198319527588E+02
 -0.198307616753E+02
 -0.198319550596E+02
 -0.198307616641E+02
 -0.198319561989E+02
 -0.198307616591E+02
 -0.198319567155E+02
 -0.198307616569E+02
 -0.198319569369E+02
 -0.198307616560E+02
 -0.198319570272E+02
 -0.198307616557E+02
 -0.198319570622E+02
 -0.198307616556E+02
 -0.198319570750E+02
 -0.198307616555E+02
 -0.198319570797E+02
 -0.198307616555E+02
 -0.198319570815E+02
 -0.198307616555E+02
 -0.198319570823E+02
 -0.198307616555E+02
 -0.198319570825E+02
 -0.198309367213E+02
 -0.198317820135E+02
 -0.198313593764E+02
 -0.198622958014E+02
 -0.198627682749E+02
 -0.198622958105E+02
 -0.198627673515E+02
 -0.198622958367E+02
 -0.198627646936E+02
 -0.198622958784E+02
 -0.198627604608E+02
 -0.198622959226E+02
 -0.198627559663E+02
 -0.198622959392E+02
 -0.198627542813E+02
 -0.198622959135E+02
 -0.198627568899E+02
 -0.198622958675E+02
 -0.198627615644E+02
 -0.198622958291E+02
 -0.198627654628E+02
 -0.198622958065E+02
 -0.198627677642E+02
 -0.198622957952E+02
 -0.198627689050E+02
 -0.198622957901E+02
 -0.198627694250E+02
 -0.198622957879E+02
 -0.198627696523E+02
 -0.198622957869E+02
 -0.198627697484E+02
 -0.198622957865E+02
 -0.198627697873E+02
 -0.198622957864E+02
 -0.198627698025E+02
 -0.198622957863E+02
 -0.198627698080E+02
 -0.198622957863E+02
 -0.198627698100E+02
 -0.198622957863E+02
 -0.198627698108E+02
 -0.198622957863E+02
 -0.198627698111E+02
 -0.198623652055E+02
 -0.198627003908E+02
 -0.198625328018E+02
 -0.198750091904E+02
 -0.198751908242E+02
 -0.198750091997E+02
 -0.198751899008E+02
 -0.198750092262E+02
 -0.198751872431E+02
 -0.198750092684E+02
 -0.198751830108E+02
 -0.198750093132E+02
 -0.198751785168E+02
 -0.198750093300E+02
 -0.198751768320E+02
 -0.198750093040E+02
 -0.198751794403E+02
 -0.198750092574E+02
 -0.198751841143E+02
 -0.198750092185E+02
 -0.198751880122E+02
 -0.198750091955E+02
 -0.198751903135E+02
 -0.198750091842E+02
 -0.198751914544E+02
 -0.198750091790E+02
 -0.198751919750E+02
 -0.198750091767E+02
 -0.198751922036E+02
 -0.198750091757E+02
 -0.198751923020E+02
 -0.198750091753E+02
 -0.198751923433E+02
 -0.198750091751E+02
 -0.198751923601E+02
 -0.198750091751E+02
 -0.198751923666E+02
 -0.198750091750E+02
 -0.198751923690E+02
 -0.198750091750E+02
 -0.198751923699E+02
 -0.198750091750E+02
 -0.198751923703E+02
 -0.198750360033E+02
 -0.198751655417E+02
 -0.198751007740E+02
 -0.198801305804E+02
 -0.198801951065E+02
 -0.198801305896E+02
 -0.198801941829E+02
 -0.198801306160E+02
 -0.198801915251E+02
 -0.198801306582E+02
 -0.198801872928E+02
 -0.198801307029E+02
 -0.198801827987E+02
 -0.198801307197E+02
 -0.198801811139E+02
 -0.198801306937E+02
 -0.198801837222E+02
 -0.198801306472E+02
 -0.198801883963E+02
 -0.198801306084E+02
 -0.198801922943E+02
 -0.198801305855E+02
 -0.198801945956E+02
 -0.198801305741E+02
 -0.198801957366E+02
 -0.198801305689E+02
 -0.198801962573E+02
 -0.198801305666E+02
 -0.198801964862E+02
 -0.198801305656E+02
 -0.198801965851E+02
 -0.198801305652E+02
 -0.198801966273E+02
 -0.198801305651E+02
 -0.198801966451E+02
 -0.198801305650E+02
 -0.198801966523E+02
 -0.198801305650E+02
 -0.198801966551E+02
 -0.198801305649E+02
 -0.198801966561E+02
 -0.198801305649E+02
 -0.198801966566E+02
 -0.198801402438E+02
 -0.198801869777E+02
 -0.198801636113E+02
 -0.198821906570E+02
 -0.198822080523E+02
 -0.198821906659E+02
 -0.198822071285E+02
 -0.198821906918E+02
 -0.198822044702E+02
 -0.198821907330E+02
 -0.198822002369E+02
 -0.198821907768E+02
 -0.198821957419E+02
 -0.198821907932E+02
 -0.198821940567E+02
 -0.198821907678E+02
 -0.198821966656E+02
 -0.198821907223E+02
 -0.198822013407E+02
 -0.198821906843E+02
 -0.198822052395E+02
 -0.198821906619E+02
 -0.198822075413E+02
 -0.198821906508E+02
 -0.198822086826E+02
 -0.198821906457E+02
 -0.198822092034E+02
 -0.198821906435E+02
 -0.198822094323E+02
 -0.198821906425E+02
 -0.198822095313E+02
 -0.198821906421E+02
 -0.198822095738E+02
 -0.198821906419E+02
 -0.198822095919E+02
 -0.198821906419E+02
 -0.198822095995E+02
 -0.198821906418E+02
 -0.198822096026E+02
 -0.198821906418E+02
 -0.198822096038E+02
 -0.198821906418E+02
 -0.198822096044E+02
 -0.198821934188E+02
 -0.198822068275E+02
 -0.198822001234E+02
 -0.198830111086E+02
 -0.198830055385E+02
 -0.198829912183E+02
 -0.198829696452E+02
 -0.198829498087E+02
 -0.198829473244E+02
 -0.198829641624E+02
 -0.198829861999E+02
 -0.198830024242E+02
 -0.198830114504E+02
 -0.198830158056E+02
 -0.198830177693E+02
 -0.198830186281E+02
 -0.198830189986E+02
 -0.198830191575E+02
 -0.198830192254E+02
 -0.198830192542E+02
 -0.198830192660E+02
 -0.198830192706E+02
 -0.198830192776E+02
 -0.198830192707E+02
 -0.198830056958E+02
 -0.198830112021E+02
 -0.198830191589E+02
 -0.198830190018E+02
 -0.198830192662E+02
 -0.198830192545E+02
 -0.198829506038E+02
 -0.198829702132E+02
 -0.198830186356E+02
 -0.198830177866E+02
 -0.198830192260E+02
 -0.198829915395E+02
 -0.198829481480E+02
 -0.198829647932E+02
 -0.198829865785E+02
 -0.198830026171E+02
 -0.198830115400E+02
 -0.198830158454E+02
SCALARS phi_mu float 1
LOOKUP_TABLE default
 -0.101811354990E-04
 -0.157642353261E-04
 -0.299797780611E-04
 -0.515072920949E-04
 -0.713265262912E-04
 -0.738123754204E-04
 -0.569963684194E-04
 -0.350147148967E-04
 -0.189171404168E-04
 -0.101564609629E-04
 -0.622454982699E-05
 -0.466961265507E-05
 -0.406458787077E-05
 -0.382000986524E-05
 -0.371822815039E-05
 -0.367525439565E-05
 -0.365698490105E-05
 -0.364919001252E-05
 -0.364587088923E-05
 -0.422472908607E-05
 -0.284288869703E+00
 -0.365914397952E+00
 -0.284291778739E+00
 -0.365916866823E+00
 -0.284299594963E+00
 -0.365922508401E+00
 -0.284312311082E+00
 -0.365931686613E+00
 -0.284325886546E+00
 -0.365941485083E+00
 -0.284330989113E+00
 -0.365945168003E+00
 -0.284323121580E+00
 -0.365939489392E+00
 -0.284309056829E+00
 -0.365929337766E+00
 -0.284297455887E+00
 -0.365920964463E+00
 -0.284290830910E+00
 -0.365916182701E+00
 -0.284287760024E+00
 -0.365913966204E+00
 -0.284286508765E+00
 -0.365913063073E+00
 -0.284286042485E+00
 -0.365912726522E+00
 -0.284285867987E+00
 -0.365912600573E+00
 -0.284285798981E+00
 -0.365912550767E+00
 -0.284285770570E+00
 -0.365912530260E+00
 -0.284285758627E+00
 -0.365912521640E+00
 -0.284285753556E+00
 -0.365912517980E+00
 -0.284285751402E+00
 -0.365912516425E+00
 -0.284286132732E+00
 -0.365912802299E+00
 -0.296240303832E+00
 -0.353959010565E+00
 -0.325099199546E+00
 -0.132992479977E+01
 -0.149135704842E+01
 -0.132992584964E+01
 -0.149135781787E+01
 -0.132992964803E+01
 -0.149135925408E+01
 -0.132993613798E+01
 -0.149136170800E+01
 -0.132994318177E+01
 -0.149136437132E+01
 -0.132994585020E+01
 -0.149136538028E+01
 -0.132994178160E+01
 -0.149136384190E+01
 -0.132993455120E+01
 -0.149136110802E+01
 -0.132992870640E+01
 -0.149135889804E+01
 -0.132992547243E+01
 -0.149135767524E+01
 -0.132992403844E+01
 -0.149135713303E+01
 -0.132992348200E+01
 -0.149135692264E+01
 -0.132992327010E+01
 -0.149135684252E+01
 -0.132992318576E+01
 -0.149135681063E+01
 -0.132992315095E+01
 -0.149135679747E+01
 -0.132992313631E+01
 -0.149135679193E+01
 -0.132992313010E+01
 -0.149135678958E+01
 -0.132992312745E+01
 -0.149135678858E+01
 -0.132992312632E+01
 -0.149135678815E+01
 -0.132992346945E+01
 -0.149135692893E+01
 -0.135356527779E+01
 -0.146771576365E+01
 -0.141064037025E+01
 -0.361156306056E+01
 -0.384717346075E+01
 -0.361156373903E+01
 -0.384717408360E+01
 -0.361156564570E+01
 -0.384717382930E+01
 -0.361156908567E+01
 -0.384717337050E+01
 -0.361157294144E+01
 -0.384717285625E+01
 -0.361157442530E+01
 -0.384717265834E+01
 -0.361157219906E+01
 -0.384717295526E+01
 -0.361156827947E+01
 -0.384717347803E+01
 -0.361156518407E+01
 -0.384717389087E+01
 -0.361156353338E+01
 -0.384717411103E+01
 -0.361156283140E+01
 -0.384717420465E+01
 -0.361156255509E+01
 -0.384717424150E+01
 -0.361156244425E+01
 -0.384717425629E+01
 -0.361156239843E+01
 -0.384717426240E+01
 -0.361156237915E+01
 -0.384717426497E+01
 -0.361156237097E+01
 -0.384717426606E+01
 -0.361156236749E+01
 -0.384717426652E+01
 -0.361156236600E+01
 -0.384717426672E+01
 -0.361156236536E+01
 -0.384717426681E+01
 -0.361156261920E+01
 -0.384717425621E+01
 -0.364606747202E+01
 -0.381266972460E+01
 -0.372936885887E+01
 -0.747561922119E+01
 -0.772768740122E+01
 -0.747561991349E+01
 -0.772768624087E+01
 -0.747562053976E+01
 -0.772768519119E+01
 -0.747562174038E+01
 -0.772768317888E+01
 -0.747562335977E+01
 -0.772768046467E+01
 -0.747562436092E+01
 -0.772767878669E+01
 -0.747562375764E+01
 -0.772767979782E+01
 -0.747562209792E+01
 -0.772768257962E+01
 -0.747562066257E+01
 -0.772768498536E+01
 -0.747561991225E+01
 -0.772768624294E+01
 -0.747561960802E+01
 -0.772768675286E+01
 -0.747561949029E+01
 -0.772768695018E+01
 -0.747561944318E+01
 -0.772768702914E+01
 -0.747561942371E+01
 -0.772768706177E+01
 -0.747561941552E+01
 -0.772768707550E+01
 -0.747561941205E+01
 -0.772768708132E+01
 -0.747561941057E+01
 -0.772768708380E+01
 -0.747561940993E+01
 -0.772768708486E+01
 -0.747561940966E+01
 -0.772768708531E+01
 -0.747561951913E+01
 -0.772768690160E+01
 -0.751253438195E+01
 -0.769077193624E+01
 -0.760165306209E+01
 -0.120978940851E+02
 -0.122756707539E+02
 -0.120978939263E+02
 -0.122756703186E+02
 -0.120978941022E+02
 -0.122756684672E+02
 -0.120978944235E+02
 -0.122756650840E+02
 -0.120978947906E+02
 -0.122756612196E+02
 -0.120978949327E+02
 -0.122756597232E+02
 -0.120978947177E+02
 -0.122756619868E+02
 -0.120978943432E+02
 -0.122756659295E+02
 -0.120978940537E+02
 -0.122756689778E+02
 -0.120978939039E+02
 -0.122756705543E+02
 -0.120978938405E+02
 -0.122756712218E+02
 -0.120978938148E+02
 -0.122756714924E+02
 -0.120978938042E+02
 -0.122756716040E+02
 -0.120978937998E+02
 -0.122756716508E+02
 -0.120978937979E+02
 -0.122756716706E+02
 -0.120978937971E+02
 -0.122756716791E+02
 -0.120978937967E+02
 -0.122756716827E+02
 -0.120978937966E+02
 -0.122756716842E+02
 -0.120978937965E+02
 -0.122756716849E+02
 -0.120978938025E+02
 -0.122756715503E+02
 -0.121239287335E+02
 -0.122496363087E+02
 -0.121867825130E+02
 -0.158418469506E+02
 -0.159351417272E+02
 -0.158418469375E+02
 -0.159351416419E+02
 -0.158418469589E+02
 -0.159351394824E+02
 -0.158418469974E+02