# vtk DataFile Version 3.0
MachLine results file. Generated by MachLine, USU AeroLab (c) 2022.
ASCII
DATASET POLYDATA
POINTS                 704 float
  0.107956490946E-04  0.000000000000E+00 -0.402238684411E-21
  0.229925353054E+00  0.995842923189E+00  0.398730771303E-21
  0.327014685835E+00  0.000000000000E+00 -0.377897570857E+00
  0.327014685835E+00  0.000000000000E+00  0.377897570857E+00
  0.556926733535E+00  0.995844563580E+00 -0.377895618530E+00
  0.556926733535E+00  0.995844563580E+00  0.377895618530E+00
  0.733296597519E+00  0.317611780129E+01  0.150841289676E-20
  0.106029057876E+01  0.317612114993E+01 -0.377885300556E+00
  0.106029057876E+01  0.317612114993E+01  0.377885300556E+00
  0.141894053378E+01  0.000000000000E+00 -0.747375127958E+00
  0.141894053378E+01  0.000000000000E+00  0.747375127958E+00
  0.164885083742E+01  0.995845436753E+00 -0.747373575066E+00
  0.164885083742E+01  0.995845436753E+00  0.747373575066E+00
  0.175010113561E+01  0.758028355266E+01  0.129218792571E-20
  0.207708465347E+01  0.758028931696E+01 -0.377868588378E+00
  0.207708465347E+01  0.758028931696E+01  0.377868588378E+00
  0.215221054596E+01  0.317612297813E+01 -0.747362043124E+00
  0.215221054596E+01  0.317612297813E+01  0.747362043124E+00
  0.316899794962E+01  0.758029265777E+01 -0.747342747913E+00
  0.316899794962E+01  0.758029265777E+01  0.747342747913E+00
  0.350654478452E+01  0.151881852914E+02  0.000000000000E+00
  0.375130986279E+01  0.000000000000E+00 -0.109079448481E+01
  0.375130986279E+01  0.000000000000E+00  0.109079448481E+01
  0.383352006798E+01  0.151881929017E+02 -0.377850762157E+00
  0.383352006798E+01  0.151881929017E+02  0.377850762157E+00
  0.398121975423E+01  0.995846026966E+00 -0.109079379324E+01
  0.398121975423E+01  0.995846026966E+00  0.109079379324E+01
  0.448457783785E+01  0.317612399853E+01 -0.109078281662E+01
  0.448457783785E+01  0.317612399853E+01  0.109078281662E+01
  0.492542643572E+01  0.151881978420E+02 -0.747321916312E+00
  0.492542643572E+01  0.151881978420E+02  0.747321916312E+00
  0.550136217630E+01  0.758029438583E+01 -0.109076381786E+01
  0.550136217630E+01  0.758029438583E+01  0.109076381786E+01
  0.585388572288E+01  0.253556251285E+02  0.000000000000E+00
  0.618086346950E+01  0.253556322803E+02 -0.377844064284E+00
  0.618086346950E+01  0.253556322803E+02  0.377844064284E+00
  0.725778738952E+01  0.151882003257E+02 -0.109074286811E+01
  0.725778738952E+01  0.151882003257E+02  0.109074286811E+01
  0.727276700730E+01  0.253556378189E+02 -0.747314040669E+00
  0.727276700730E+01  0.253556378189E+02  0.747314040669E+00
  0.764637724334E+01  0.000000000000E+00 -0.116698913283E+01
  0.764637724334E+01  0.000000000000E+00  0.116698913283E+01
  0.787628642780E+01  0.995846867521E+00 -0.116698054872E+01
  0.787628642780E+01  0.995846867521E+00  0.116698054872E+01
  0.810911878329E+01  0.351241894437E+02 -0.285864261412E-20
  0.837964314411E+01  0.317612509971E+01 -0.116697263081E+01
  0.837964314411E+01  0.317612509971E+01  0.116697263081E+01
  0.843610604756E+01  0.351241942880E+02 -0.377854398077E+00
  0.843610604756E+01  0.351241942880E+02  0.377854398077E+00
  0.939642548783E+01  0.758029594753E+01 -0.116695743862E+01
  0.939642548783E+01  0.758029594753E+01  0.116695743862E+01
  0.952801360889E+01  0.351241988977E+02 -0.747326086831E+00
  0.952801360889E+01  0.351241988977E+02  0.747326086831E+00
  0.960512720793E+01  0.253556405866E+02 -0.109073485940E+01
  0.960512720793E+01  0.253556405866E+02  0.109073485940E+01
  0.968417277029E+01  0.419466013184E+02  0.000000000000E+00
  0.100111707235E+02  0.419466039151E+02 -0.377872880778E+00
  0.100111707235E+02  0.419466039151E+02  0.377872880778E+00
  0.105555707475E+02  0.457211106753E+02  0.477382013792E-21
  0.108825737157E+02  0.457211118941E+02 -0.377888165629E+00
  0.108825737157E+02  0.457211118941E+02  0.377888165629E+00
  0.109765623741E+02  0.475446677122E+02 -0.257448406510E-21
  0.111030855020E+02  0.419466068587E+02 -0.747347546291E+00
  0.111030855020E+02  0.419466068587E+02  0.747347546291E+00
  0.111528488731E+02  0.151882024195E+02 -0.116693685367E+01
  0.111528488731E+02  0.151882024195E+02  0.116693685367E+01
  0.111666256282E+02  0.483679375346E+02 -0.157170905259E-21
  0.112497986899E+02  0.487282093679E+02  0.000000000000E+00
  0.112856991063E+02  0.488837156528E+02  0.000000000000E+00
  0.113011025874E+02  0.489504347694E+02 -0.934948592099E-22
  0.113035682959E+02  0.475446682491E+02 -0.377896974068E+00
  0.113035682959E+02  0.475446682491E+02  0.377896974068E+00
  0.113076942732E+02  0.489789878042E+02  0.000000000000E+00
  0.113105123338E+02  0.489911948466E+02  0.179132968952E-21
  0.113117168043E+02  0.489964133562E+02 -0.890675671884E-21
  0.113122317799E+02  0.489986411415E+02 -0.284339170538E-20
  0.113124511219E+02  0.489995910040E+02  0.106524866897E-20
  0.113125450872E+02  0.489999974369E+02  0.375204436537E-20
  0.114936328042E+02  0.483679377820E+02 -0.377901128562E+00
  0.114936328042E+02  0.483679377820E+02  0.377901128562E+00
  0.115768063450E+02  0.487282095047E+02 -0.377902867251E+00
  0.115768063450E+02  0.487282095047E+02  0.377902867251E+00
  0.116127069629E+02  0.488837157430E+02 -0.377903541675E+00
  0.116127069629E+02  0.488837157430E+02  0.377903541675E+00
  0.116281105359E+02  0.489504348384E+02 -0.377903802175E+00
  0.116281105359E+02  0.489504348384E+02  0.377903802175E+00
  0.116347032165E+02  0.489789878637E+02 -0.377903906746E+00
  0.116347032165E+02  0.489789878637E+02  0.377903906746E+00
  0.116375212951E+02  0.489911949019E+02 -0.377903950043E+00
  0.116375212951E+02  0.489911949019E+02  0.377903950043E+00
  0.116387248198E+02  0.489964134104E+02 -0.377903968328E+00
  0.116387248198E+02  0.489964134104E+02  0.377903968328E+00
  0.116392397986E+02  0.489986411938E+02 -0.377903976187E+00
  0.116392397986E+02  0.489986411938E+02  0.377903976187E+00
  0.116394591416E+02  0.489995910549E+02 -0.377903979371E+00
  0.116394591416E+02  0.489995910549E+02  0.377903979371E+00
  0.116395539112E+02  0.489999979669E+02 -0.377903512503E+00
  0.116395539112E+02  0.489999979669E+02  0.377903512503E+00
  0.116996650018E+02  0.492603663675E+02 -0.267217929464E+00
  0.116996650018E+02  0.492603663675E+02  0.267217929464E+00
  0.117245639450E+02  0.493682194556E+02 -0.118643102310E-14
  0.118603752252E+02  0.351242012284E+02 -0.109074697439E+01
  0.118603752252E+02  0.351242012284E+02  0.109074697439E+01
  0.119744945199E+02  0.457211134465E+02 -0.747365054221E+00
  0.119744945199E+02  0.457211134465E+02  0.747365054221E+00
  0.122584827878E+02  0.000000000000E+00 -0.823045765694E+00
  0.122584827878E+02  0.000000000000E+00  0.823045765694E+00
  0.123954935788E+02  0.475446689876E+02 -0.747374925615E+00
  0.123954935788E+02  0.475446689876E+02  0.747374925615E+00
  0.124883914677E+02  0.995847383965E+00 -0.823044840853E+00
  0.124883914677E+02  0.995847383965E+00  0.823044840853E+00
  0.125855588280E+02  0.483679381293E+02 -0.747379448863E+00
  0.125855588280E+02  0.483679381293E+02  0.747379448863E+00
  0.126687340427E+02  0.487282096858E+02 -0.747381296077E+00
  0.126687340427E+02  0.487282096858E+02  0.747381296077E+00
  0.127046339821E+02  0.488837158606E+02 -0.747382029626E+00
  0.127046339821E+02  0.488837158606E+02  0.747382029626E+00
  0.127200376579E+02  0.489504349322E+02 -0.747382327712E+00
  0.127200376579E+02  0.489504349322E+02  0.747382327712E+00
  0.127266303787E+02  0.489789879482E+02 -0.747382451820E+00
  0.127266303787E+02  0.489789879482E+02  0.747382451820E+00
  0.127294484737E+02  0.489911949825E+02 -0.747382504204E+00
  0.127294484737E+02  0.489911949825E+02  0.747382504204E+00
  0.127306529589E+02  0.489964134899E+02 -0.747382526454E+00
  0.127306529589E+02  0.489964134899E+02  0.747382526454E+00
  0.127311669871E+02  0.489986412721E+02 -0.747382536033E+00
  0.127311669871E+02  0.489986412721E+02  0.747382536033E+00
  0.127313872849E+02  0.489995911337E+02 -0.747382539985E+00
  0.127313872849E+02  0.489995911337E+02  0.747382539985E+00
  0.127314810205E+02  0.489999964759E+02 -0.747381473270E+00
  0.127314810205E+02  0.489999964759E+02  0.747381473270E+00
  0.128503653596E+02  0.495149307357E+02 -0.528477665284E+00
  0.128503653596E+02  0.495149307357E+02  0.528477665284E+00
  0.128996080987E+02  0.497282277390E+02 -0.643252516233E-15
  0.129917476171E+02  0.317612574704E+01 -0.823036106613E+00
  0.129917476171E+02  0.317612574704E+01  0.823036106613E+00
  0.134354505004E+02  0.419466084086E+02 -0.109076842757E+01
  0.134354505004E+02  0.419466084086E+02  0.109076842757E+01
  0.135001871996E+02  0.253556429147E+02 -0.116692409920E+01
  0.135001871996E+02  0.253556429147E+02  0.116692409920E+01
  0.140085288560E+02  0.758029684994E+01 -0.823019157913E+00
  0.140085288560E+02  0.758029684994E+01  0.823019157913E+00
  0.143068623005E+02  0.457211143541E+02 -0.109078565633E+01
  0.143068623005E+02  0.457211143541E+02  0.109078565633E+01
  0.147278619939E+02  0.475446695286E+02 -0.109079513601E+01
  0.147278619939E+02  0.475446695286E+02  0.109079513601E+01
  0.149179289333E+02  0.483679385002E+02 -0.109079937263E+01
  0.149179289333E+02  0.483679385002E+02  0.109079937263E+01
  0.150011034939E+02  0.487282099874E+02 -0.109080111718E+01
  0.150011034939E+02  0.487282099874E+02  0.109080111718E+01
  0.150370045040E+02  0.488837161353E+02 -0.109080183411E+01
  0.150370045040E+02  0.488837161353E+02  0.109080183411E+01
  0.150524082267E+02  0.489504351961E+02 -0.109080213362E+01
  0.150524082267E+02  0.489504351961E+02  0.109080213362E+01
  0.150590009667E+02  0.489789882076E+02 -0.109080226019E+01
  0.150590009667E+02  0.489789882076E+02  0.109080226019E+01
  0.150618190699E+02  0.489911952399E+02 -0.109080231399E+01
  0.150618190699E+02  0.489911952399E+02  0.109080231399E+01
  0.150630235587E+02  0.489964137464E+02 -0.109080233693E+01
  0.150630235587E+02  0.489964137464E+02  0.109080233693E+01
  0.150635375883E+02  0.489986415297E+02 -0.109080234672E+01
[...]
POINT_DATA                 704
SCALARS phi float 1
LOOKUP_TABLE default
 -0.107325049533E-04
 -0.228580511381E+00
 -0.284289270980E+00
 -0.365914659331E+00
 -0.512856765681E+00
 -0.594481732331E+00
 -0.729007519302E+00
 -0.101327753198E+01
 -0.109490026996E+01
 -0.132992506719E+01
 -0.149135713177E+01
 -0.155849078489E+01
 -0.171992251404E+01
 -0.173986473102E+01
 -0.202412614642E+01
 -0.210574527459E+01
 -0.205890756980E+01
 -0.222033680807E+01
 -0.306974983117E+01
 -0.323117490170E+01
 -0.348603487775E+01
 -0.361156321468E+01
 -0.384717341782E+01
 -0.377029003213E+01
 -0.385190530986E+01
 -0.384012842958E+01
 -0.407573848334E+01
 -0.434054353909E+01
 -0.457615122191E+01
 -0.481590715358E+01
 -0.497732772451E+01
 -0.535138272117E+01
 -0.558698630028E+01
 -0.581964613439E+01
 -0.610390446089E+01
 -0.618551829189E+01
 -0.709753680260E+01
 -0.733313585659E+01
 -0.714951889615E+01
 -0.731093776595E+01
 -0.747561923290E+01
 -0.772768738183E+01
 -0.770418459734E+01
 -0.795625089210E+01
 -0.806168825537E+01
 -0.820459801721E+01
 -0.845666260171E+01
 -0.834595492781E+01
 -0.842757099090E+01
 -0.921543480511E+01
 -0.946749610813E+01
 -0.939157317814E+01
 -0.955299464990E+01
 -0.943114781077E+01
 -0.966674513490E+01
 -0.962752969486E+01
 -0.991180499761E+01
 -0.999342505294E+01
 -0.104938308339E+02
 -0.107781094715E+02
 -0.108597328283E+02
 -0.109123600653E+02
 -0.109574301013E+02
 -0.111188562083E+02
 -0.109615870299E+02
 -0.112136438866E+02
 -0.111013116326E+02
 -0.111839982121E+02
 -0.112196886457E+02
 -0.112350020313E+02
 -0.111966406880E+02
 -0.112782659474E+02
 -0.112415551620E+02
 -0.112443567397E+02
 -0.112455541652E+02
 -0.112460661287E+02
 -0.112462841877E+02
 -0.112463776034E+02
 -0.113855930534E+02
 -0.114672192102E+02
 -0.114682799214E+02
 -0.115499064538E+02
 -0.115039704825E+02
 -0.115855971605E+02
 -0.115192839313E+02
 -0.116009106656E+02
 -0.115258380397E+02
 -0.116074647966E+02
 -0.115286396306E+02
 -0.116102663969E+02
 -0.115298361139E+02
 -0.116114628841E+02
 -0.115303480798E+02
 -0.116119748517E+02
 -0.115305661394E+02
 -0.116121929120E+02
 -0.115306604052E+02
 -0.116122870769E+02
 -0.116023738754E+02
 -0.116600926039E+02
 -0.116559865480E+02
 -0.116732034927E+02
 -0.119088034337E+02
 -0.118237403257E+02
 -0.119851702144E+02
 -0.120978940679E+02
 -0.122756708927E+02
 -0.122422758799E+02
 -0.124037079007E+02
 -0.123264581036E+02
 -0.125042347286E+02
 -0.124312289420E+02
 -0.125926619399E+02
 -0.125139174624E+02
 -0.126753508593E+02
 -0.125496073425E+02
 -0.127110408979E+02
 -0.125649208895E+02
 -0.127263545093E+02
 -0.125714750358E+02
 -0.127329086823E+02
 -0.125742766420E+02
 -0.127357102999E+02
 -0.125754740798E+02
 -0.127369077424E+02
 -0.125759851004E+02
 -0.127374187651E+02
 -0.125762041092E+02
 -0.127376377747E+02
 -0.125762974117E+02
 -0.127377308469E+02
 -0.127181278623E+02
 -0.128322783570E+02
 -0.128241578262E+02
 -0.128268710480E+02
 -0.130046457865E+02
 -0.132390637790E+02
 -0.134746683538E+02
 -0.132951970674E+02
 -0.135472511692E+02
 -0.138377069273E+02
 -0.140154780048E+02
 -0.141053767993E+02
 -0.143409850955E+02
 -0.145239130266E+02
 -0.147595233704E+02
 -0.147128678000E+02
 -0.149484790589E+02
 -0.147955556812E+02
 -0.150311673169E+02
 -0.148312466276E+02
 -0.150668584182E+02
 -0.148465602210E+02
 -0.150821720763E+02
 -0.148531143862E+02
 -0.150887262688E+02
 -0.148559160004E+02
 -0.150915278946E+02
 -0.148571134416E+02
 -0.150927253408E+02
 -0.148576244635E+02
 -0.150932363648E+02
 -0.148578425249E+02
 -0.150934544271E+02
 -0.148579366787E+02
 -0.150935482719E+02
 -0.150649381059E+02
 -0.152315403606E+02
 -0.152196898687E+02
 -0.155372544385E+02
 -0.157893101980E+02
 -0.155838578629E+02
 -0.157616246474E+02
 -0.158418469488E+02
 -0.159351418783E+02
 -0.160704111329E+02
 -0.161637060544E+02
 -0.165708239343E+02
 -0.166641167576E+02
 -0.171031161594E+02
 -0.173551764827E+02
 -0.175816595347E+02
 -0.176749484011E+02
 -0.179174670162E+02
 -0.180952321249E+02
 -0.180424557831E+02
 -0.180847325149E+02
 -0.179694319398E+02
 -0.182214961999E+02
 -0.182710190365E+02
 -0.183132954314E+02
 -0.183879701576E+02
 -0.186400364621E+02
 -0.185769254289E+02
 -0.188289925617E+02
 -0.186596125742E+02
 -0.189116800288E+02
 -0.187714318295E+02
 -0.188137057641E+02
 -0.186953045570E+02
 -0.189473721408E+02
 -0.187106181876E+02
 -0.189626858248E+02
 -0.187171714204E+02
 -0.189692390801E+02
 -0.187199720931E+02
 -0.189720397623E+02
 -0.187211704852E+02
 -0.189732381585E+02
 -0.187216824566E+02
 -0.189737501316E+02
 -0.187219005185E+02
 -0.189739681942E+02
 -0.187219935404E+02
 -0.189740609202E+02
 -0.189434534214E+02
 -0.191216910139E+02
 -0.191090133387E+02
 -0.191012266226E+02
 -0.191191396235E+02
 -0.193297917747E+02
 -0.193477040299E+02
 -0.193278101419E+02
 -0.194210945304E+02
 -0.195615378447E+02
 -0.195688951602E+02
 -0.197527969479E+02
 -0.197557749317E+02
 -0.197901029988E+02
 -0.197974593905E+02
 -0.197822693084E+02
 -0.198245389979E+02
 -0.198307616705E+02
 -0.198319555426E+02
 -0.198302045761E+02
 -0.198481141502E+02
 -0.198622958018E+02
 -0.198627682396E+02
 -0.198750091908E+02
 -0.198751907856E+02
 -0.198801305807E+02
 -0.198801950665E+02
 -0.198821906574E+02
 -0.198822080118E+02
 -0.198830108947E+02
 -0.199813621027E+02
 -0.199843391296E+02
 -0.200593268254E+02
 -0.200605197385E+02
 -0.200908609566E+02
 -0.200913324365E+02
 -0.201035743458E+02
 -0.201037549834E+02
 -0.201086938393E+02
 -0.201087573683E+02
 -0.201107539169E+02
 -0.201107703147E+02
 -0.201115706846E+02
 -0.201595247881E+02
 -0.203372924179E+02
 -0.202905158041E+02
 -0.202978694550E+02
 -0.204817749095E+02
 -0.204847491847E+02
 -0.205597396329E+02
 -0.205609297923E+02
 -0.205912737643E+02
 -0.205917424902E+02
 -0.206039871534E+02
 -0.206041650371E+02
 -0.206091066470E+02
 -0.206091674219E+02
 -0.206111667267E+02
 -0.206111803704E+02
 -0.206119691449E+02
 -0.208410401712E+02
 -0.208589453900E+02
 -0.213013514048E+02
 -0.213087006756E+02
 -0.214926105125E+02
 -0.214955804031E+02
 -0.215284179983E+02
 -0.215706830833E+02
 -0.215705752369E+02
 -0.215717610109E+02
 -0.216021093686E+02
 -0.216025737090E+02
 -0.216148227579E+02
 -0.216149962560E+02
 -0.216199422529E+02
 -0.216199986422E+02
 -0.216220042267E+02
 -0.216220134848E+02
 -0.216227831334E+02
 -0.216614182187E+02
 -0.217547008817E+02
 -0.217253887854E+02
 -0.219031607626E+02
 -0.225871888740E+02
 -0.226050894471E+02
 -0.225917057535E+02
 -0.227694809991E+02
 -0.230475020097E+02
 -0.230548466257E+02
 -0.230102427004E+02
 -0.231880195452E+02
 -0.232387592236E+02
 -0.232417244577E+02
 -0.231991982264E+02
 -0.233769757022E+02
 -0.233167258453E+02
 -0.233179069625E+02
 -0.233482599773E+02
 -0.233487196609E+02
 -0.233609733668E+02
 -0.233611422081E+02
 -0.233660928612E+02
 -0.233661445937E+02
 -0.233681529407E+02
 -0.233681575420E+02
 -0.233689138597E+02
 -0.232818873670E+02
 -0.234596650873E+02
 -0.233175774933E+02
 -0.234953553124E+02
 -0.233328911402E+02
 -0.235106690003E+02
 -0.233394443799E+02
 -0.235172222574E+02
 -0.233422469518E+02
 -0.235200248366E+02
 -0.233434434490E+02
 -0.235212213370E+02
 -0.233439554208E+02
 -0.235217333101E+02
 -0.233441734829E+02
 -0.235219513728E+02
 -0.233442663979E+02
 -0.235220441993E+02
 -0.235004597892E+02
 -0.236261674533E+02
 -0.236172261821E+02
 -0.238620279631E+02
 -0.239042913058E+02
 -0.239034780802E+02
 -0.239967633237E+02
 -0.249207988436E+02
 -0.249386976714E+02
 -0.253811119813E+02
 -0.253884548516E+02
 -0.254693405141E+02
 -0.255626302790E+02
 -0.255723691963E+02
 -0.255753326845E+02
 -0.256503339220E+02
 -0.256515132934E+02
 -0.256818680546E+02
 -0.256823259923E+02
 -0.256945833404E+02
 -0.256947504358E+02
 -0.256997028332E+02
 -0.256997528199E+02
 -0.257017629112E+02
 -0.257017657667E+02
 -0.257025194358E+02
 -0.261040859405E+02
 -0.261463519431E+02
 -0.263356577312E+02
 -0.264289510130E+02
 -0.267541966951E+02
 -0.268474917983E+02
 -0.269431522687E+02
 -0.270364480995E+02
 -0.270258395317E+02
 -0.271191356295E+02
 -0.270615315618E+02
 -0.271548277624E+02
 -0.270768452118E+02
 -0.271701414542E+02
 -0.270833984528E+02
 -0.271766947128E+02
 -0.270861991290E+02
 -0.271794953964E+02
 -0.270873975227E+02
 -0.271806937932E+02
 -0.270879094946E+02
 -0.271812057664E+02
 -0.270881275568E+02
 -0.271814238291E+02
 -0.270882204700E+02
 -0.271815167268E+02
 -0.271628568134E+02
 -0.271807583343E+02
 -0.271701899129E+02
 -0.272361602025E+02
 -0.272314684486E+02
 -0.276231699479E+02
 -0.276305155192E+02
 -0.276699502915E+02
 -0.277122210177E+02
 -0.278144271613E+02
 -0.278173933521E+02
 -0.278923918864E+02
 -0.278935739606E+02
 -0.279239260189E+02
 -0.279243866595E+02
 -0.279366413044E+02
 -0.279368111027E+02
 -0.279417607974E+02
 -0.279418134870E+02
 -0.279438208728E+02
 -0.279438264312E+02
 -0.279445942645E+02
 -0.285362675243E+02
 -0.285785420478E+02
 -0.287287211508E+02
 -0.287466274873E+02
 -0.289548045995E+02
 -0.289970811905E+02
 -0.291437601759E+02
 -0.291860376575E+02
 -0.291890342790E+02
 -0.291963846884E+02
 -0.292264493361E+02
 -0.292687271406E+02
 -0.292621394704E+02
 -0.293044173895E+02
 -0.292774531207E+02
 -0.293197310837E+02
 -0.292840063618E+02
 -0.293262843427E+02
 -0.292868089343E+02
 -0.293290869226E+02
 -0.292880054317E+02
 -0.293302834232E+02
 -0.292885174037E+02
 -0.293307953965E+02
 -0.292887354658E+02
 -0.293310134592E+02
 -0.292888283793E+02
 -0.293311063767E+02
 -0.293259751803E+02
 -0.293558701812E+02
 -0.293537430682E+02
 -0.293802914899E+02
 -0.293832625231E+02
 -0.294582562140E+02
 -0.294594431313E+02
 -0.294897903460E+02
 -0.294902558298E+02
 -0.295025056312E+02
 -0.295026802728E+02
 -0.295076251246E+02
 -0.295076826574E+02
 -0.295096852012E+02
 -0.295096956029E+02
 -0.295104806766E+02
 -0.295950383719E+02
 -0.296129486816E+02
 -0.300135754400E+02
 -0.300314880080E+02
 -0.300553495985E+02
 -0.300627040346E+02
 -0.302025310129E+02
 -0.302204446109E+02
 -0.302466087033E+02
 -0.302495837735E+02
 -0.302852201715E+02
 -0.303031341774E+02
 -0.303245734266E+02
 -0.303257643827E+02
 -0.303209103053E+02
 -0.303388244530E+02
 -0.303362239554E+02
 -0.303541381525E+02
 -0.303427790927E+02
 -0.303606933086E+02
 -0.303455797690E+02
 -0.303634939925E+02
 -0.303467762663E+02
 -0.303646904930E+02
 -0.303472882384E+02
 -0.303652024664E+02
 -0.303561075580E+02
 -0.303565770809E+02
 -0.303475063005E+02
 -0.303654205291E+02
 -0.303476011101E+02
 -0.303655153431E+02
 -0.303688209469E+02
 -0.303689996276E+02
 -0.303633405478E+02
 -0.303760077983E+02
 -0.303739404412E+02
 -0.303740020132E+02
 -0.303751068833E+02
 -0.303760024138E+02
 -0.303760168546E+02
 -0.303768141526E+02
 -0.304738885592E+02
 -0.304812453508E+02
 -0.306628441300E+02
 -0.306702020480E+02
 -0.306651457663E+02
 -0.306681232162E+02
 -0.307431123853E+02
 -0.307443057252E+02
 -0.307455313913E+02
 -0.307528897826E+02
 -0.307746465164E+02
 -0.307751184239E+02
 -0.307812234207E+02
 -0.307885819931E+02
 -0.307873599055E+02
 -0.307875409708E+02
 -0.307924793993E+02
 -0.307925433558E+02
 -0.307945394757E+02
 -0.307945563012E+02
 -0.307953602645E+02
 -0.307965370707E+02
 -0.308038957050E+02
 -0.308030903117E+02
 -0.308104489673E+02
 -0.308058928841E+02
 -0.308132515478E+02
 -0.308070893815E+02
 -0.308144480485E+02
 -0.308076013535E+02
 -0.308149600218E+02
 -0.308078194156E+02
 -0.308151780845E+02
 -0.308079123290E+02
 -0.308152710005E+02
 -0.308143770626E+02
 -0.308195804187E+02
 -0.308192106123E+02
 -0.308541013361E+02
 -0.308570799565E+02
 -0.309320660584E+02
 -0.309332605788E+02
 -0.309367904930E+02
 -0.309397696300E+02
 -0.309636001895E+02
 -0.309640732790E+02
 -0.309724806259E+02
 -0.309754599724E+02
 -0.309763154747E+02
 -0.309764977223E+02
 -0.309814349683E+02
 -0.309815001073E+02
 -0.309834950452E+02
 -0.309835130530E+02
 -0.309843202005E+02
 -0.309877942756E+02
 -0.309907737014E+02
 -0.309943494128E+02
 -0.309973288655E+02
 -0.309971500889E+02
 -0.310001295509E+02
 -0.309983465864E+02
 -0.310013260518E+02
 -0.309988585584E+02
 -0.310018380252E+02
 -0.309990766205E+02
 -0.310020560880E+02
 -0.309991714301E+02
 -0.310021508988E+02
 -0.310017883839E+02
 -0.310038951821E+02
 -0.310037462891E+02
 -0.310147552150E+02
 -0.310159502704E+02
 -0.310462893460E+02
 -0.310467629743E+02
 -0.310504453478E+02
 -0.310516406311E+02
 -0.310590046311E+02
 -0.310591874182E+02
 -0.310641241248E+02
 -0.310641898033E+02
 -0.310661842017E+02
 -0.310662027490E+02
 -0.310657589973E+02
 -0.310669543719E+02
 -0.310670113259E+02
 -0.310723141344E+02
 -0.310735095434E+02
 -0.310751148106E+02
 -0.310763102314E+02
 -0.310763132042E+02
 -0.310775086290E+02
 -0.310768232800E+02
 -0.310780187063E+02
 -0.310770413421E+02
 -0.310782367690E+02
 -0.310771361517E+02
 -0.310783315793E+02
 -0.310781853625E+02
 -0.310790306558E+02
 -0.310789701910E+02
 -0.310819794787E+02
 -0.310824533424E+02
 -0.310946947637E+02
 -0.310948777877E+02
 -0.310972931281E+02
 -0.310977670909E+02
 -0.310998142574E+02
 -0.310998801731E+02
 -0.311018743343E+02
 -0.311018931189E+02
 -0.311027023196E+02
 -0.311038482652E+02
 -0.311043222674E+02
 -0.311066489413E+02
 -0.311071229584E+02
 -0.311078473349E+02
 -0.311083213571E+02
 -0.311083574107E+02
 -0.311088314346E+02
 -0.311085773691E+02
 -0.311090513937E+02
 -0.311086702824E+02
 -0.311091443075E+02
 -0.311090867049E+02
 -0.311094218907E+02
 -0.311093984121E+02
 -0.311100084132E+02
 -0.311101915391E+02
 -0.311151279069E+02
 -0.311151939250E+02
 -0.311165616540E+02
 -0.311167448225E+02
 -0.311171879839E+02
 -0.311172068710E+02
 -0.311180163407E+02
 -0.311193642263E+02
 -0.311195474119E+02
 -0.311205607237E+02
 -0.311207439157E+02
 -0.311210726957E+02
 -0.311212558899E+02
 -0.311212907578E+02
 -0.311214739528E+02
 -0.311213836712E+02
 -0.311215668666E+02
 -0.311215451292E+02
 -0.311216746677E+02
 -0.311216648895E+02
 -0.311216811477E+02
 -0.311217472096E+02
 -0.311237412246E+02
 -0.311237601557E+02
 -0.311244837200E+02
 -0.311245498002E+02
 -0.311245716370E+02
 -0.311256802174E+02
 -0.311257463049E+02
 -0.311261921893E+02
 -0.311262582796E+02
 -0.311264102514E+02
 -0.311264763427E+02
 -0.311265031649E+02
 -0.311265692566E+02
 -0.311265437969E+02
 -0.311265627468E+02
 -0.311265621447E+02
 -0.311266088786E+02
 -0.311266044742E+02
 -0.311273723811E+02
 -0.311277402943E+02
 -0.311277592520E+02
 -0.311282522662E+02
 -0.311282712271E+02
 -0.311284703283E+02
 -0.311284892904E+02
 -0.311285708036E+02
 -0.311285632418E+02
 -0.311285822044E+02
 -0.311285811883E+02
 -0.311285945970E+02
 -0.311285935815E+02
 -0.311290808911E+02
 -0.311292989575E+02
 -0.311293937737E+02
 -0.311292989576E+02
 -0.311245716384E+02
 -0.311180163440E+02
 -0.307953603585E+02
 -0.303768143552E+02
 -0.233689146947E+02
 -0.216227837300E+02
 -0.311027023274E+02
 -0.310670113441E+02
 -0.311290808912E+02
 -0.311285708039E+02
 -0.311273723817E+02
 -0.309843202423E+02
 -0.257025203007E+02
 -0.279445949270E+02
 -0.201115708498E+02
 -0.198830109929E+02
 -0.295104810742E+02
 -0.206119694822E+02
SCALARS phi_mu float 1
LOOKUP_TABLE default
 -0.107325049533E-04
 -0.228580511381E+00
 -0.284289270980E+00
 -0.365914659331E+00
 -0.512856765681E+00
 -0.594481732331E+00
 -0.729007519302E+00
 -0.101327753198E+01
 -0.109490026996E+01
 -0.132992506719E+01
 -0.149135713177E+01
 -0.155849078489E+01
 -0.171992251404E+01
 -0.173986473102E+01
 -0.202412614642E+01
 -0.210574527459E+01
 -0.205890756980E+01
 -0.222033680807E+01
 -0.306974983117E+01
 -0.323117490170E+01
 -0.348603487775E+01
 -0.361156321468E+01
 -0.384717341782E+01
 -0.377029003213E+01
 -0.385190530986E+01
 -0.384012842958E+01
 -0.407573848334E+01
 -0.434054353909E+01
 -0.457615122191E+01
 -0.481590715358E+01
 -0.497732772451E+01
 -0.535138272117E+01
 -0.558698630028E+01
 -0.581964613439E+01
 -0.610390446089E+01
 -0.618551829189E+01
 -0.709753680260E+01
 -0.733313585659E+01
 -0.714951889615E+01
 -0.731093776595E+01
 -0.747561923290E+01
 -0.772768738183E+01
 -0.770418459734E+01
 -0.795625089210E+01
 -0.806168825537E+01
 -0.820459801721E+01
 -0.845666260171E+01
 -0.834595492781E+01
 -0.842757099090E+01
 -0.921543480511E+01
 -0.946749610813E+01
 -0.939157317814E+01
 -0.955299464990E+01
 -0.943114781077E+01
 -0.966674513490E+01
 -0.962752969486E+01
 -0.991180499761E+01
 -0.999342505294E+01
 -0.104938308339E+02
 -0.107781094715E+02
 -0.108597328283E+02
 -0.109123600653E+02
 -0.109574301013E+02
 -0.111188562083E+02
 -0.109615870299E+02
 -0.112136438866E+02
 -0.111013116326E+02
 -0.111839982121E+02
 -0.112196886457E+02
 -0.112350020313E+02
 -0.111966406880E+02
 -0.112782659474E+02
 -0.112415551620E+02
 -0.112443567397E+02
 -0.112455541652E+02
 -0.112460661287E+02
 -0.112462841877E+02
 -0.112463776034E+02
 -0.113855930534E+02
 -0.114672192102E+02
 -0.114682799214E+02
 -0.115499064538E+02
 -0.115039704825E+02
 -0.115855971605E+02
 -0.115192839313E+02
 -0.116009106656E+02
 -0.115258380397E+02
 -0.116074647966E+02
 -0.115286396306E+02
 -0.116102663969E+02
 -0.115298361139E+02
 -0.116114628841E+02
 -0.115303480798E+02
 -0.116119748517E+02
 -0.115305661394E+02
 -0.116121929120E+02
 -0.115306604052E+02
 -0.116122870769E+02
 -0.116023738754E+02
 -0.116600926039E+02
 -0.116559865480E+02
 -0.116732034927E+02
 -0.119088034337E+02
 -0.118237403257E+02
 -0.119851702144E+02
 -0.120978940679E+02
 -0.122756708927E+02
 -0.122422758799E+02
 -0.124037079007E+02
 -0.123264581036E+02
 -0.125042347286E+02
 -0.124312289420E+02
 -0.125926619399E+02
 -0.125139174624E+02
 -0.126753508593E+02
 -0.125496073425E+02
 -0.127110408979E+02
 -0.125649208895E+02
 -0.127263545093E+02
 -0.125714750358E+02
 -0.127329086823E+02
 -0.125742766420E+02
 -0.127357102999E+02
 -0.125754740798E+02
 -0.127369077424E+02
 -0.125759851004E+02
 -0.127374187651E+02
 -0.125762041092E+02
 -0.127376377747E+02
 -0.125762974117E+02
 -0.127377308469E+02
 -0.127181278623E+02
 -0.128322783570E+02
 -0.128241578262E+02
 -0.128268710480E+02
 -0.130046457865E+02
 -0.132390637790E+02
 -0.134746683538E+02
 -0.132951970674E+02
 -0.135472511692E+02
 -0.138377069273E+02
 -0.140154780048E+02
 -0.141053767993E+02
 -0.143409850955E+02
 -0.145239130266E+02
 -0.147595233704E+02
 -0.147128678000E+02
 -0.149484790589E+02
 -0.147955556812E+02
 -0.150311673169E+02
 -0.148312466276E+02
 -0.150668584182E+02
 -0.148465602210E+02
 -0.150821720763E+02
 -0.148531143862E+02
 -0.150887262688E+02
 -0.148559160004E+02
 -0.150915278946E+02
 -0.148571134416E+02
 -0.150927253408E+02
 -0.148576244635E+02
 -0.150932363648E+02
 -0.148578425249E+02
 -0.150934544271E+02
 -0.148579366787E+02
 -0.150935482719E+02
 -0.150649381059E+02
 -0.152315403606E+02
 -0.152196898687E+02
 -0.155372544385E+02
 -0.157893101980E+02
 -0.155838578629E+02
 -0.157616246474E+02
 -0.158418469488E+02
 -0.159351418783E+02
 -0.160704111329E+02
 -0.161637060544E+02
 -0.165708239343E+02
 -0.166641167576E+02
 -0.171031161594E+02
 -0.173551764827E+02
 -0.175816595347E+02
 -0.176749484011E+02
 -0.179174670162E+02
 -0.180952321249E+02
 -0.180424557831E+02
 -0.180847325149E+02
 -0.179694319398E+02
 -0.182214961999E+02
 -0.182710190365E+02
 -0.183132954314E+02
 -0.183879701576E+02
 -0.186400364621E+02
 -0.185769254289E+02
 -0.188289925617E+02
 -0.186596125742E+02
 -0.189116800288E+02
 -0.187714318295E+02
 -0.188137057641E+02
 -0.186953045570E+02
 -0.189473721408E+02
 -0.187106181876E+02
 -0.189626858248E+02
 -0.187171714204E+02
 -0.189692390801E+02
 -0.187199720931E+02
 -0.189720397623E+02
 -0.187211704852E+02
 -0.189732381585E+02
 -0.187216824566E+02
 -0.189737501316E+02
 -0.187219005185E+02
 -0.189739681942E+02
 -0.187219935404E+02
 -0.189740609202E+02
 -0.189434534214E+02
 -0.191216910139E+02
 -0.191090133387E+02
 -0.191012266226E+02
 -0.191191396235E+02
 -0.193297917747E+02
 -0.193477040299E+02
 -0.193278101419E+02
 -0.194210945304E+02
 -0.195615378447E+02
 -0.195688951602E+02
 -0.197527969479E+02
 -0.197557749317E+02
 -0.197901029988E+02
 -0.197974593905E+02
 -0.197822693084E+02
 -0.198245389979E+02
 -0.198307616705E+02
 -0.198319555426E+02
 -0.198302045761E+02
 -0.198481141502E+02
 -0.198622958018E+02
 -0.198627682396E+02
 -0.198750091908E+02
 -0.198751907856E+02
 -0.198801305807E+02
 -0.198801950665E+02