# vtk DataFile Version 3.0
MachLine results file. Generated by MachLine, USU AeroLab (c) 2022.
ASCII
DATASET POLYDATA
POINTS                 704 float
  0.108549015481E-04  0.000000000000E+00  0.810879811996E-21
  0.248308506982E+00  0.995842624724E+00  0.399924278721E-21
  0.327014715899E+00  0.000000000000E+00 -0.377897509316E+00
  0.327014715899E+00  0.000000000000E+00  0.377897509316E+00
  0.575309909775E+00  0.995844390715E+00 -0.377895564500E+00
  0.575309909775E+00  0.995844390715E+00  0.377895564500E+00
  0.791927252755E+00  0.317611723831E+01  0.000000000000E+00
  0.111892121592E+01  0.317612084435E+01 -0.377885209712E+00
  0.111892121592E+01  0.317612084435E+01  0.377885209712E+00
  0.141894054947E+01  0.000000000000E+00 -0.747375051440E+00
  0.141894054947E+01  0.000000000000E+00  0.747375051440E+00
  0.166723400680E+01  0.995845335415E+00 -0.747373473577E+00
  0.166723400680E+01  0.995845335415E+00  0.747373473577E+00
  0.189003199041E+01  0.758028258974E+01 -0.129562340631E-20
  0.221084129189E+01  0.317612282133E+01 -0.747361870159E+00
  0.221084129189E+01  0.317612282133E+01  0.747361870159E+00
  0.221701545895E+01  0.758028879752E+01 -0.377868444544E+00
  0.221701545895E+01  0.758028879752E+01  0.377868444544E+00
  0.330892897546E+01  0.758029240996E+01 -0.747342485181E+00
  0.330892897546E+01  0.758029240996E+01  0.747342485181E+00
  0.375130986772E+01  0.000000000000E+00 -0.109079440370E+01
  0.375130986772E+01  0.000000000000E+00  0.109079440370E+01
  0.378691598431E+01  0.151881839604E+02  0.179207403932E-20
  0.399960302874E+01  0.995845976334E+00 -0.109079367219E+01
  0.399960302874E+01  0.995845976334E+00  0.109079367219E+01
  0.411389160562E+01  0.151881921544E+02 -0.377850563410E+00
  0.411389160562E+01  0.151881921544E+02  0.377850563410E+00
  0.454320832243E+01  0.317612392904E+01 -0.109078259692E+01
  0.454320832243E+01  0.317612392904E+01  0.109078259692E+01
  0.520579818468E+01  0.151881974965E+02 -0.747321566099E+00
  0.520579818468E+01  0.151881974965E+02  0.747321566099E+00
  0.564129292923E+01  0.758029428479E+01 -0.109076348056E+01
  0.564129292923E+01  0.758029428479E+01  0.109076348056E+01
  0.632194622700E+01  0.253556237514E+02  0.185433250386E-20
  0.664892360723E+01  0.253556314474E+02 -0.377843845204E+00
  0.664892360723E+01  0.253556314474E+02  0.377843845204E+00
  0.753815909191E+01  0.151882001904E+02 -0.109074242638E+01
  0.753815909191E+01  0.151882001904E+02  0.109074242638E+01
  0.764637724271E+01  0.000000000000E+00 -0.116698910923E+01
  0.764637724271E+01  0.000000000000E+00  0.116698910923E+01
  0.774082759122E+01  0.253556374366E+02 -0.747313658971E+00
  0.774082759122E+01  0.253556374366E+02  0.747313658971E+00
  0.789466945326E+01  0.995846886747E+00 -0.116698052376E+01
  0.789466945326E+01  0.995846886747E+00  0.116698052376E+01
  0.843827408598E+01  0.317612512314E+01 -0.116697257772E+01
  0.843827408598E+01  0.317612512314E+01  0.116697257772E+01
  0.875750479529E+01  0.351241883788E+02 -0.143309102938E-20
  0.908449215279E+01  0.351241935873E+02 -0.377854211131E+00
  0.908449215279E+01  0.351241935873E+02  0.377854211131E+00
  0.953635620987E+01  0.758029597906E+01 -0.116695732603E+01
  0.953635620987E+01  0.758029597906E+01  0.116695732603E+01
  0.100731867871E+02  0.253556404382E+02 -0.109073438223E+01
  0.100731867871E+02  0.253556404382E+02  0.109073438223E+01
  0.101763996887E+02  0.351241985720E+02 -0.747325756941E+00
  0.101763996887E+02  0.351241985720E+02  0.747325756941E+00
  0.104585000582E+02  0.419466006620E+02  0.882368341971E-21
  0.107854971199E+02  0.419466034509E+02 -0.377872752145E+00
  0.107854971199E+02  0.419466034509E+02  0.377872752145E+00
  0.113995734793E+02  0.457211103186E+02  0.478755130861E-21
  0.114332195798E+02  0.151882024621E+02 -0.116693664728E+01
  0.114332195798E+02  0.151882024621E+02  0.116693664728E+01
  0.117265764828E+02  0.457211116260E+02 -0.377888088557E+00
  0.117265764828E+02  0.457211116260E+02  0.377888088557E+00
  0.118542278978E+02  0.475446675198E+02 -0.516363591940E-21
  0.118774118819E+02  0.419466066339E+02 -0.747347312624E+00
  0.118774118819E+02  0.419466066339E+02  0.747347312624E+00
  0.120594879456E+02  0.483679374185E+02 -0.157490189196E-21
  0.121493119258E+02  0.487282092837E+02 -0.116405565334E-21
  0.121812338386E+02  0.475446680949E+02 -0.377896932666E+00
  0.121812338386E+02  0.475446680949E+02  0.377896932666E+00
  0.121880828984E+02  0.488837155814E+02  0.100052836962E-21
  0.122047185253E+02  0.489504347033E+02  0.280144835710E-21
  0.122118375922E+02  0.489789877404E+02 -0.181193138401E-21
  0.122148807197E+02  0.489911947835E+02 -0.894194537385E-22
  0.122161815113E+02  0.489964132943E+02 -0.533509664189E-21
  0.122167365408E+02  0.489986410783E+02  0.000000000000E+00
  0.122169740025E+02  0.489995909405E+02  0.265843935928E-20
  0.122170765437E+02  0.489999973702E+02  0.808017628633E-20
  0.122584827920E+02  0.000000000000E+00 -0.823045815310E+00
  0.122584827920E+02  0.000000000000E+00  0.823045815310E+00
  0.123864960876E+02  0.483679376825E+02 -0.377901109262E+00
  0.123864960876E+02  0.483679376825E+02  0.377901109262E+00
  0.124763205453E+02  0.487282094286E+02 -0.377902860654E+00
  0.124763205453E+02  0.487282094286E+02  0.377902860654E+00
  0.125067745005E+02  0.995847442682E+00 -0.823044913890E+00
  0.125067745005E+02  0.995847442682E+00  0.823044913890E+00
  0.125087612610E+02  0.351242011000E+02 -0.109074655905E+01
  0.125087612610E+02  0.351242011000E+02  0.109074655905E+01
  0.125150907649E+02  0.488837156764E+02 -0.377903541876E+00
  0.125150907649E+02  0.488837156764E+02  0.377903541876E+00
  0.125317264832E+02  0.489504347755E+02 -0.377903805553E+00
  0.125317264832E+02  0.489504347755E+02  0.377903805553E+00
  0.125388455910E+02  0.489789878024E+02 -0.377903911498E+00
  0.125388455910E+02  0.489789878024E+02  0.377903911498E+00
  0.125418887364E+02  0.489911948410E+02 -0.377903955403E+00
  0.125418887364E+02  0.489911948410E+02  0.377903955403E+00
  0.125431895357E+02  0.489964133498E+02 -0.377903973936E+00
  0.125431895357E+02  0.489964133498E+02  0.377903973936E+00
  0.125437455225E+02  0.489986411333E+02 -0.377903981908E+00
  0.125437455225E+02  0.489986411333E+02  0.377903981908E+00
  0.125439829854E+02  0.489995909956E+02 -0.377903985005E+00
  0.125439829854E+02  0.489995909956E+02  0.377903985005E+00
  0.125440844313E+02  0.489999978977E+02 -0.377903517983E+00
  0.125440844313E+02  0.489999978977E+02  0.377903517983E+00
  0.126087311844E+02  0.492592791175E+02 -0.267217942452E+00
  0.126087311844E+02  0.492592791175E+02  0.267217942452E+00
  0.126355079069E+02  0.493666782753E+02 -0.118643119780E-14
  0.128184982313E+02  0.457211133049E+02 -0.747364910859E+00
  0.128184982313E+02  0.457211133049E+02  0.747364910859E+00
  0.130503785697E+02  0.317612581956E+01 -0.823036209866E+00
  0.130503785697E+02  0.317612581956E+01  0.823036209866E+00
  0.132731591172E+02  0.475446688936E+02 -0.747374846549E+00
  0.132731591172E+02  0.475446688936E+02  0.747374846549E+00
  0.134784221107E+02  0.483679380578E+02 -0.747379409743E+00
  0.134784221107E+02  0.483679380578E+02  0.747379409743E+00
  0.135682472910E+02  0.487282096238E+02 -0.747381279503E+00
  0.135682472910E+02  0.487282096238E+02  0.747381279503E+00
  0.136070187412E+02  0.488837158025E+02 -0.747382024030E+00
  0.136070187412E+02  0.488837158025E+02  0.747382024030E+00
  0.136236536094E+02  0.489504348758E+02 -0.747382326999E+00
  0.136236536094E+02  0.489504348758E+02  0.747382326999E+00
  0.136307737115E+02  0.489789878925E+02 -0.747382453213E+00
  0.136307737115E+02  0.489789878925E+02  0.747382453213E+00
  0.136338168734E+02  0.489911949271E+02 -0.747382506493E+00
  0.136338168734E+02  0.489911949271E+02  0.747382506493E+00
  0.136351176798E+02  0.489964134343E+02 -0.747382529145E+00
  0.136351176798E+02  0.489964134343E+02  0.747382529145E+00
  0.136356727159E+02  0.489986412170E+02 -0.747382538868E+00
  0.136356727159E+02  0.489986412170E+02  0.747382538868E+00
  0.136359101799E+02  0.489995910788E+02 -0.747382542878E+00
  0.136359101799E+02  0.489995910788E+02  0.747382542878E+00
  0.136360115466E+02  0.489999964065E+02 -0.747381469015E+00
  0.136360115466E+02  0.489999964065E+02  0.747381469015E+00
  0.137638651840E+02  0.495127791699E+02 -0.528477679750E+00
  0.137638651840E+02  0.495127791699E+02  0.528477679750E+00
  0.138168234295E+02  0.497251797452E+02 -0.643252357483E-15
  0.139682476858E+02  0.253556429642E+02 -0.116692383193E+01
  0.139682476858E+02  0.253556429642E+02  0.116692383193E+01
  0.141484595876E+02  0.758029695124E+01 -0.823019230310E+00
  0.141484595876E+02  0.758029695124E+01  0.823019230310E+00
  0.142097768494E+02  0.419466083154E+02 -0.109076813021E+01
  0.142097768494E+02  0.419466083154E+02  0.109076813021E+01
  0.151508650392E+02  0.457211142897E+02 -0.109078547410E+01
  0.151508650392E+02  0.457211142897E+02  0.109078547410E+01
  0.156055284754E+02  0.475446694805E+02 -0.109079503779E+01
  0.156055284754E+02  0.475446694805E+02  0.109079503779E+01
  0.158107922108E+02  0.483679384597E+02 -0.109079932581E+01
  0.158107922108E+02  0.483679384597E+02  0.109079932581E+01
  0.159006176938E+02  0.487282099501E+02 -0.109080109671E+01
  0.159006176938E+02  0.487282099501E+02  0.109080109671E+01
  0.159393892627E+02  0.488837160993E+02 -0.109080182564E+01
  0.159393892627E+02  0.488837160993E+02  0.109080182564E+01
  0.159560241785E+02  0.489504351607E+02 -0.109080213038E+01
  0.159560241785E+02  0.489504351607E+02  0.109080213038E+01
  0.159631433465E+02  0.489789881724E+02 -0.109080225920E+01
  0.159631433465E+02  0.489789881724E+02  0.109080225920E+01
  0.159661874704E+02  0.489911952050E+02 -0.109080231396E+01
  0.159661874704E+02  0.489911952050E+02  0.109080231396E+01
  0.159674873266E+02  0.489964137113E+02 -0.109080233731E+01
  0.159674873266E+02  0.489964137113E+02  0.109080233731E+01
  0.159680433178E+02  0.489986414942E+02 -0.109080234730E+01
[...]
POINT_DATA                 704
SCALARS phi float 1
LOOKUP_TABLE default
 -0.107914108371E-04
 -0.246856141579E+00
 -0.284289307515E+00
 -0.365914682573E+00
 -0.531132423896E+00
 -0.612757378876E+00
 -0.787295241722E+00
 -0.107156524624E+01
 -0.115318796460E+01
 -0.132992509105E+01
 -0.149135713910E+01
 -0.157676644141E+01
 -0.173819814864E+01
 -0.187897712520E+01
 -0.211719540107E+01
 -0.227862460198E+01
 -0.216323850711E+01
 -0.224485760421E+01
 -0.320886242377E+01
 -0.337028743756E+01
 -0.361156322834E+01
 -0.384717341396E+01
 -0.376476617629E+01
 -0.385840419272E+01
 -0.409401422033E+01
 -0.404902168801E+01
 -0.413063692281E+01
 -0.439883111558E+01
 -0.463443875095E+01
 -0.509463903590E+01
 -0.525605953119E+01
 -0.549049505052E+01
 -0.572609855677E+01
 -0.628496893575E+01
 -0.656922692166E+01
 -0.665084070534E+01
 -0.737626864851E+01
 -0.761186760709E+01
 -0.747561923482E+01
 -0.772768737865E+01
 -0.761484181808E+01
 -0.777626060543E+01
 -0.772246010251E+01
 -0.797452639188E+01
 -0.826288603032E+01
 -0.851495060336E+01
 -0.870628183423E+01
 -0.899054861954E+01
 -0.907216464225E+01
 -0.935454707948E+01
 -0.960660835818E+01
 -0.989646974413E+01
 -0.101320669652E+02
 -0.100361668600E+02
 -0.101975882605E+02
 -0.103973279145E+02
 -0.106816023449E+02
 -0.107632223725E+02
 -0.113328969633E+02
 -0.112403178605E+02
 -0.114923746726E+02
 -0.116171756443E+02
 -0.116987989845E+02
 -0.117848920918E+02
 -0.117272274436E+02
 -0.118886535001E+02
 -0.119889515661E+02
 -0.120782501626E+02
 -0.120691727378E+02
 -0.121507979883E+02
 -0.121167943624E+02
 -0.121333326869E+02
 -0.121404101142E+02
 -0.121434354423E+02
 -0.121447286256E+02
 -0.121452804087E+02
 -0.121455164814E+02
 -0.121456184229E+02
 -0.120978940667E+02
 -0.122756709023E+02
 -0.122732339494E+02
 -0.123548601020E+02
 -0.123625328315E+02
 -0.124441593624E+02
 -0.123447336054E+02
 -0.125225102462E+02
 -0.123177971402E+02
 -0.125533969914E+02
 -0.124010762091E+02
 -0.124827028872E+02
 -0.124176145960E+02
 -0.124992413310E+02
 -0.124246920524E+02
 -0.125063188103E+02
 -0.124277173936E+02
 -0.125093441610E+02
 -0.124290105825E+02
 -0.125106373539E+02
 -0.124295633165E+02
 -0.125111900896E+02
 -0.124297993901E+02
 -0.125114261638E+02
 -0.124299002930E+02
 -0.125115269659E+02
 -0.125061228958E+02
 -0.125638416270E+02
 -0.125616023659E+02
 -0.126628074444E+02
 -0.128242373021E+02
 -0.128851590549E+02
 -0.130629338156E+02
 -0.131148079294E+02
 -0.132762399332E+02
 -0.133188698395E+02
 -0.134803028289E+02
 -0.134081694271E+02
 -0.135696028205E+02
 -0.134467140213E+02
 -0.136081475754E+02
 -0.134632515588E+02
 -0.136246851784E+02
 -0.134703300016E+02
 -0.136317636484E+02
 -0.134733553582E+02
 -0.136347890165E+02
 -0.134746485536E+02
 -0.136360822168E+02
 -0.134752003423E+02
 -0.136366340076E+02
 -0.134754364168E+02
 -0.136368700830E+02
 -0.134755373067E+02
 -0.136369707410E+02
 -0.136262845917E+02
 -0.137404350896E+02
 -0.137360083315E+02
 -0.137605198799E+02
 -0.140125739239E+02
 -0.139768191912E+02
 -0.141545902844E+02
 -0.140088610974E+02
 -0.142444656080E+02
 -0.149444429553E+02
 -0.151800512121E+02
 -0.153964460158E+02
 -0.156320563384E+02
 -0.156005086931E+02
 -0.158361199419E+02
 -0.156898085924E+02
 -0.159254202237E+02
 -0.157283533062E+02
 -0.159639650950E+02
 -0.157448908909E+02
 -0.159805027455E+02
 -0.157519684047E+02
 -0.159875802871E+02
 -0.157549947176E+02
 -0.159906066118E+02
 -0.157562869683E+02
 -0.159918988676E+02
 -0.157568397065E+02
 -0.159924516079E+02
 -0.157570757816E+02
 -0.159926876840E+02
 -0.157571765744E+02
 -0.159927881652E+02
 -0.158418469487E+02
 -0.159351418887E+02
 -0.158625896249E+02
 -0.160403564086E+02
 -0.159771915630E+02
 -0.161437938216E+02
 -0.160886866359E+02
 -0.161819815717E+02
 -0.161373341960E+02
 -0.161818489741E+02
 -0.164339046831E+02
 -0.166291109948E+02
 -0.167224038335E+02
 -0.177207717999E+02
 -0.178140606678E+02
 -0.178729153285E+02
 -0.181249756223E+02
 -0.180424557830E+02
 -0.180847325243E+02
 -0.182892964358E+02
 -0.183315728397E+02
 -0.183827888596E+02
 -0.185605539604E+02
 -0.188297207864E+02
 -0.188719947219E+02
 -0.188084990138E+02
 -0.190605632620E+02
 -0.191012266226E+02
 -0.191191396292E+02
 -0.193480672778E+02
 -0.193659795330E+02
 -0.192605012337E+02
 -0.195125675337E+02
 -0.195615378447E+02
 -0.195688951599E+02
 -0.194645653657E+02
 -0.197166324965E+02
 -0.196065409560E+02
 -0.196998253270E+02
 -0.195538645339E+02
 -0.198059319876E+02
 -0.195924102862E+02
 -0.198444778696E+02
 -0.196089488569E+02
 -0.198610164939E+02
 -0.196160254388E+02
 -0.198680930984E+02
 -0.196190517585E+02
 -0.198711194277E+02
 -0.196203449602E+02
 -0.198724126335E+02
 -0.196208967516E+02
 -0.198729644266E+02
 -0.196211318791E+02
 -0.198731995549E+02
 -0.196212343820E+02
 -0.198733017617E+02
 -0.197527969479E+02
 -0.197557749277E+02
 -0.198083785020E+02
 -0.198157348876E+02
 -0.198307616706E+02
 -0.198319555370E+02
 -0.198622958018E+02
 -0.198627682333E+02
 -0.198750091908E+02
 -0.198751907791E+02
 -0.198801305808E+02
 -0.198801950598E+02
 -0.198821906577E+02
 -0.198822080054E+02
 -0.198830108596E+02
 -0.198884916369E+02
 -0.199064011996E+02
 -0.199213815738E+02
 -0.199636512460E+02
 -0.198566161057E+02
 -0.200348537048E+02
 -0.199996376059E+02
 -0.200026146240E+02
 -0.200279423500E+02
 -0.200776023287E+02
 -0.200787952318E+02
 -0.201091364599E+02
 -0.201096079294E+02
 -0.201218498490E+02
 -0.201220304761E+02
 -0.201269693430E+02
 -0.201270328613E+02
 -0.201290313158E+02
 -0.201290477029E+02
 -0.201298461879E+02
 -0.203488047612E+02
 -0.203561583945E+02
 -0.205400619703E+02
 -0.205430362253E+02
 -0.206180266937E+02
 -0.206192168318E+02
 -0.206495608253E+02
 -0.206500295295E+02
 -0.206622761105E+02
 -0.206624539723E+02
 -0.206673956044E+02
 -0.206674563573E+02
 -0.206694556808E+02
 -0.206694693025E+02
 -0.206702562060E+02
 -0.208041183565E+02
 -0.209818859884E+02
 -0.209801524367E+02
 -0.209980576258E+02
 -0.214404636704E+02
 -0.214478129053E+02
 -0.216317227782E+02
 -0.216346926302E+02
 -0.217096875025E+02
 -0.217108732370E+02
 -0.217412216344E+02
 -0.217416859348E+02
 -0.217539350235E+02
 -0.217541084814E+02
 -0.217590545185E+02
 -0.217591108676E+02
 -0.217611164913E+02
 -0.217611257092E+02
 -0.217618953989E+02
 -0.218071507086E+02
 -0.218494157569E+02
 -0.221267419578E+02
 -0.222200245959E+02
 -0.224951860460E+02
 -0.226729580393E+02
 -0.228659215845E+02
 -0.228838221084E+02
 -0.233262328241E+02
 -0.233335773849E+02
 -0.235174919343E+02
 -0.235204571106E+02
 -0.234307709251E+02
 -0.236085461900E+02
 -0.235954566597E+02
 -0.235966377181E+02
 -0.236269907918E+02
 -0.236274504161E+02
 -0.236397041810E+02
 -0.236398729628E+02
 -0.236448236779E+02
 -0.236448753508E+02
 -0.236468856481E+02
 -0.236468901899E+02
 -0.236476446738E+02
 -0.238827756698E+02
 -0.240605525278E+02
 -0.240868381620E+02
 -0.242646156444E+02
 -0.241761393259E+02
 -0.243539170493E+02
 -0.242146832221E+02
 -0.243924610426E+02
 -0.242312218095E+02
 -0.244089996704E+02
 -0.242383002945E+02
 -0.244160781724E+02
 -0.242413247209E+02
 -0.244191026061E+02
 -0.242426179240E+02
 -0.244203958122E+02
 -0.242431697158E+02
 -0.244209476054E+02
 -0.242434067398E+02
 -0.244211846300E+02
 -0.242435072391E+02
 -0.244212850451E+02
 -0.243273498060E+02
 -0.243696131046E+02
 -0.244095191176E+02
 -0.245352267922E+02
 -0.245303528537E+02
 -0.245480716488E+02
 -0.246413568783E+02
 -0.253861206867E+02
 -0.254040194580E+02
 -0.258464338245E+02
 -0.258537766324E+02
 -0.260376910396E+02
 -0.260406544628E+02
 -0.261156576615E+02
 -0.261168369668E+02
 -0.261471917938E+02
 -0.261476496651E+02
 -0.261599051831E+02
 -0.261600722118E+02
 -0.261650246778E+02
 -0.261650745977E+02
 -0.261670847576E+02
 -0.261670875462E+02
 -0.261678431741E+02
 -0.262391396721E+02
 -0.263324294399E+02
 -0.267486795092E+02
 -0.267909454791E+02
 -0.271747248005E+02
 -0.272680180935E+02
 -0.276267277693E+02
 -0.277200228832E+02
 -0.278074503823E+02
 -0.278253518581E+02
 -0.278307922047E+02
 -0.279240880419E+02
 -0.279200914909E+02
 -0.280133875917E+02
 -0.279586372907E+02
 -0.280519334928E+02
 -0.279751758811E+02
 -0.280684721243E+02
 -0.279822524713E+02
 -0.280755487317E+02
 -0.279852787944E+02
 -0.280785750620E+02
 -0.279865719977E+02
 -0.280798682684E+02
 -0.279871237896E+02
 -0.280804200617E+02
 -0.279873589174E+02
 -0.280806551901E+02
 -0.279874613117E+02
 -0.280807575714E+02
 -0.280745827119E+02
 -0.281405530088E+02
 -0.281379963668E+02
 -0.282677635168E+02
 -0.282751090369E+02
 -0.284590207303E+02
 -0.284619868673E+02
 -0.284397475535E+02
 -0.284820182668E+02
 -0.285369854556E+02
 -0.285381674749E+02
 -0.285685214839E+02
 -0.285689820691E+02
 -0.285812348732E+02
 -0.285814046159E+02
 -0.285863543665E+02
 -0.285864070004E+02
 -0.285884144444E+02
 -0.285884199472E+02
 -0.285891878331E+02
 -0.293753326975E+02
 -0.294176072221E+02
 -0.294985184129E+02
 -0.295164247245E+02
 -0.298273375700E+02
 -0.298696141665E+02
 -0.299588315412E+02
 -0.299661819196E+02
 -0.300314001119E+02
 -0.300736775985E+02
 -0.301207012953E+02
 -0.301629791027E+02
 -0.301500887521E+02
 -0.301530597515E+02
 -0.301592451994E+02
 -0.302015231198E+02
 -0.301757837899E+02
 -0.302180617536E+02
 -0.301828622764E+02
 -0.302251402577E+02
 -0.301858867034E+02
 -0.302281646920E+02
 -0.301871799066E+02
 -0.302294578983E+02
 -0.301877335948E+02
 -0.302300115878E+02
 -0.301879687227E+02
 -0.302302467163E+02
 -0.301880692209E+02
 -0.302303472199E+02
 -0.302280534763E+02
 -0.302292403589E+02
 -0.302275502362E+02
 -0.302574452409E+02
 -0.302562870818E+02
 -0.302595876081E+02
 -0.302600530568E+02
 -0.302723028935E+02
 -0.302724774996E+02
 -0.302774223869E+02
 -0.302774798842E+02
 -0.302794824627E+02
 -0.302794928289E+02
 -0.302802779383E+02
 -0.304341035452E+02
 -0.304520138467E+02
 -0.308861084106E+02
 -0.309040209787E+02
 -0.308944166680E+02
 -0.309017710899E+02
 -0.310856738768E+02
 -0.310886489301E+02
 -0.310901728452E+02
 -0.311080864455E+02
 -0.311636404961E+02
 -0.311648314342E+02
 -0.311794721308E+02
 -0.311973861388E+02
 -0.311951746276E+02
 -0.311956441321E+02
 -0.312078880166E+02
 -0.312080666787E+02
 -0.312130075102E+02
 -0.312130690634E+02
 -0.312150675883E+02
 -0.312150820103E+02
 -0.312158812220E+02
 -0.312180179304E+02
 -0.312359320793E+02
 -0.312345546247E+02
 -0.312524688223E+02
 -0.312416331111E+02
 -0.312595473273E+02
 -0.312446594342E+02
 -0.312625736579E+02
 -0.312459507413E+02
 -0.312638649681E+02
 -0.312465044295E+02
 -0.312644186576E+02
 -0.312467395574E+02
 -0.312646537861E+02
 -0.312468400555E+02
 -0.312647542893E+02
 -0.312635693063E+02
 -0.312762365586E+02
 -0.312757452208E+02
 -0.313464215298E+02
 -0.313537783171E+02
 -0.315376787370E+02
 -0.315406561798E+02
 -0.315504840660E+02
 -0.315578419839E+02
 -0.316156434597E+02
 -0.316168367915E+02
 -0.316397852468E+02
 -0.316471436390E+02
 -0.316471775910E+02
 -0.316476494898E+02
 -0.316598928761E+02
 -0.316600739327E+02
 -0.316650123698E+02
 -0.316650763176E+02
 -0.316670724468E+02
 -0.316670892634E+02
 -0.316678932351E+02
 -0.316783291497E+02
 -0.316856877229E+02
 -0.316948677400E+02
 -0.317022263748E+02
 -0.317019443301E+02
 -0.317093029860E+02
 -0.317049706532E+02
 -0.317123293171E+02
 -0.317062638565E+02
 -0.317136225236E+02
 -0.317068156485E+02
 -0.317141743168E+02
 -0.317070526725E+02
 -0.317144113415E+02
 -0.317071531707E+02
 -0.317145118425E+02
 -0.317140236897E+02
 -0.317192270466E+02
 -0.317190260011E+02
 -0.317417431684E+02
 -0.317447217867E+02
 -0.318197078907E+02
 -0.318209024079E+02
 -0.318310424522E+02
 -0.318340215891E+02
 -0.318512420218E+02
 -0.318517151076E+02
 -0.318639554108E+02
 -0.318641376546E+02
 -0.318690768007E+02
 -0.318691419357E+02
 -0.318695882510E+02
 -0.318725675979E+02
 -0.318711368775E+02
 -0.318711548814E+02
 -0.318719620329E+02
 -0.318861268411E+02
 -0.318891062672E+02
 -0.318932034312E+02
 -0.318961828842E+02
 -0.318962297543E+02
 -0.318992092164E+02
 -0.318975229576E+02
 -0.319005024231E+02
 -0.318980728534E+02
 -0.319010523202E+02
 -0.318983117736E+02
 -0.319012912410E+02
 -0.318984103756E+02
 -0.319013898444E+02
 -0.319011941944E+02
 -0.319033009929E+02
 -0.319032184666E+02
 -0.319090071743E+02
 -0.319102022286E+02
 -0.319405413053E+02
 -0.319410149322E+02
 -0.319475529728E+02
 -0.319487482561E+02
 -0.319532546943E+02
 -0.319534374797E+02
 -0.319583760841E+02
 -0.319584417609E+02
 -0.319604361610E+02
 -0.319604547067E+02
 -0.319612632853E+02
 -0.319640915628E+02
 -0.319652869376E+02
 -0.319711681528E+02
 -0.319723635620E+02
 -0.319741944759E+02
 -0.319753898968E+02
 -0.319754876791E+02
 -0.319766831040E+02
 -0.319760375749E+02
 -0.319772330013E+02
 -0.319762764952E+02
 -0.319774719221E+02
 -0.319763750972E+02
 -0.319775705249E+02
 -0.319774906748E+02
 -0.319783359682E+02
 -0.319783039463E+02
 -0.319790871038E+02
 -0.319795609671E+02
 -0.319918004927E+02
 -0.319919835160E+02
 -0.319956256936E+02
 -0.319960996563E+02
 -0.319969218825E+02
 -0.319969877974E+02
 -0.319989819595E+02
 -0.319990007433E+02
 -0.319998099448E+02
 -0.320027022836E+02
 -0.320031762858E+02
 -0.320057286066E+02
 -0.320062026238E+02
 -0.320070218099E+02
 -0.320074958321E+02
 -0.320075717057E+02
 -0.320080457296E+02
 -0.320078106259E+02
 -0.320082846505E+02
 -0.320079092280E+02
 -0.320083832531E+02
 -0.320083390825E+02
 -0.320085222082E+02
 -0.320083540933E+02
 -0.320086892791E+02
 -0.320086733854E+02
 -0.320134566800E+02
 -0.320135226978E+02
 -0.320154156724E+02
 -0.320155988410E+02
 -0.320155205494E+02
 -0.320155394362E+02
 -0.320163489062E+02
 -0.320184419955E+02
 -0.320186251810E+02
 -0.320197351987E+02
 -0.320199183907E+02
 -0.320202888869E+02
 -0.320204720811E+02
 -0.320205370623E+02
 -0.320206031241E+02
 -0.320205240147E+02
 -0.320207072097E+02
 -0.320206226167E+02
 -0.320208058121E+02
 -0.320207935556E+02
 -0.320209230942E+02
 -0.320209190046E+02
 -0.320225971392E+02
 -0.320226160702E+02
 -0.320234256555E+02
 -0.320235633853E+02
 -0.320236294655E+02
 -0.320248565885E+02
 -0.320249226760E+02
 -0.320254064843E+02
 -0.320254725746E+02
 -0.320256234623E+02
 -0.320256424121E+02
 -0.320256416121E+02
 -0.320257077034E+02
 -0.320257440066E+02
 -0.320258100983E+02
 -0.320258067788E+02
 -0.320258535127E+02
 -0.320258491083E+02
 -0.320264520465E+02
 -0.320269166654E+02
 -0.320269356231E+02
 -0.320274665612E+02
 -0.320274855221E+02
 -0.320277016891E+02
 -0.320277206512E+02
 -0.320277452785E+02
 -0.320278040835E+02
 -0.320278230461E+02
 -0.320278220300E+02
 -0.320278354387E+02
 -0.320278363194E+02
 -0.320282951861E+02
 -0.320285341107E+02
 -0.320286327192E+02
 -0.285891885001E+02
 -0.261678440449E+02
 -0.320234256569E+02
 -0.320163489096E+02
 -0.320282951863E+02
 -0.320277452788E+02
 -0.236476455146E+02
 -0.217618959996E+02
 -0.316678933298E+02
 -0.312158814260E+02
 -0.319998099527E+02
 -0.319612633036E+02
 -0.302802783387E+02
 -0.320285341108E+02
 -0.320264520472E+02
 -0.318719620749E+02
 -0.201298463542E+02
 -0.198830109585E+02
 -0.206702565456E+02
SCALARS phi_mu float 1
LOOKUP_TABLE default
 -0.107914108371E-04
 -0.246856141579E+00
 -0.284289307515E+00
 -0.365914682573E+00
 -0.531132423896E+00
 -0.612757378876E+00
 -0.787295241722E+00
 -0.107156524624E+01
 -0.115318796460E+01
 -0.132992509105E+01
 -0.149135713910E+01
 -0.157676644141E+01
 -0.173819814864E+01
 -0.187897712520E+01
 -0.211719540107E+01
 -0.227862460198E+01
 -0.216323850711E+01
 -0.224485760421E+01
 -0.320886242377E+01
 -0.337028743756E+01
 -0.361156322834E+01
 -0.384717341396E+01
 -0.376476617629E+01
 -0.385840419272E+01
 -0.409401422033E+01
 -0.404902168801E+01
 -0.413063692281E+01
 -0.439883111558E+01
 -0.463443875095E+01
 -0.509463903590E+01
 -0.525605953119E+01
 -0.549049505052E+01
 -0.572609855677E+01
 -0.628496893575E+01
 -0.656922692166E+01
 -0.665084070534E+01
 -0.737626864851E+01
 -0.761186760709E+01
 -0.747561923482E+01
 -0.772768737865E+01
 -0.761484181808E+01
 -0.777626060543E+01
 -0.772246010251E+01
 -0.797452639188E+01
 -0.826288603032E+01
 -0.851495060336E+01
 -0.870628183423E+01
 -0.899054861954E+01
 -0.907216464225E+01
 -0.935454707948E+01
 -0.960660835818E+01
 -0.989646974413E+01
 -0.101320669652E+02
 -0.100361668600E+02
 -0.101975882605E+02
 -0.103973279145E+02
 -0.106816023449E+02
 -0.107632223725E+02
 -0.113328969633E+02
 -0.112403178605E+02
 -0.114923746726E+02
 -0.116171756443E+02
 -0.116987989845E+02
 -0.117848920918E+02
 -0.117272274436E+02
 -0.118886535001E+02
 -0.119889515661E+02
 -0.120782501626E+02
 -0.120691727378E+02
 -0.121507979883E+02
 -0.121167943624E+02
 -0.121333326869E+02
 -0.121404101142E+02
 -0.121434354423E+02
 -0.121447286256E+02
 -0.121452804087E+02
 -0.121455164814E+02
 -0.121456184229E+02
 -0.120978940667E+02
 -0.122756709023E+02
 -0.122732339494E+02
 -0.123548601020E+02
 -0.123625328315E+02
 -0.124441593624E+02
 -0.123447336054E+02
 -0.125225102462E+02
 -0.123177971402E+02
 -0.125533969914E+02
 -0.124010762091E+02
 -0.124827028872E+02
 -0.124176145960E+02
 -0.124992413310E+02
 -0.124246920524E+02
 -0.125063188103E+02
 -0.124277173936E+02
 -0.125093441610E+02
 -0.124290105825E+02
 -0.125106373539E+02
 -0.124295633165E+02
 -0.125111900896E+02
 -0.124297993901E+02
 -0.125114261638E+02
 -0.124299002930E+02
 -0.125115269659E+02
 -0.125061228958E+02
 -0.125638416270E+02
 -0.125616023659E+02
 -0.126628074444E+02
 -0.128242373021E+02
 -0.128851590549E+02
 -0.130629338156E+02
 -0.131148079294E+02
 -0.132762399332E+02
 -0.133188698395E+02
 -0.134803028289E+02
 -0.134081694271E+02
 -0.135696028205E+02
 -0.134467140213E+02
 -0.136081475754E+02
 -0.134632515588E+02
 -0.136246851784E+02
 -0.134703300016E+02
 -0.136317636484E+02
 -0.134733553582E+02
 -0.136347890165E+02
 -0.134746485536E+02
 -0.136360822168E+02
 -0.134752003423E+02
 -0.136366340076E+02
 -0.134754364168E+02
 -0.136368700830E+02
 -0.134755373067E+02
 -0.136369707410E+02
 -0.136262845917E+02
 -0.137404350896E+02
 -0.137360083315E+02
 -0.137605198799E+02
 -0.140125739239E+02
 -0.139768191912E+02
 -0.141545902844E+02
 -0.140088610974E+02
 -0.142444656080E+02
 -0.149444429553E+02
 -0.151800512121E+02
 -0.153964460158E+02
 -0.156320563384E+02
 -0.156005086931E+02
 -0.158361199419E+02
 -0.156898085924E+02
 -0.159254202237E+02
 -0.157283533062E+02
 -0.159639650950E+02
 -0.157448908909E+02
 -0.159805027455E+02
 -0.157519684047E+02
 -0.159875802871E+02
 -0.157549947176E+02
 -0.159906066118E+02
 -0.157562869683E+02
 -0.159918988676E+02
 -0.157568397065E+02
 -0.159924516079E+02
 -0.157570757816E+02
 -0.159926876840E+02
 -0.157571765744E+02
 -0.159927881652E+02
 -0.158418469487E+02
 -0.159351418887E+02
 -0.158625896249E+02
 -0.160403564086E+02
 -0.159771915630E+02
 -0.161437938216E+02
 -0.160886866359E+02
 -0.161819815717E+02
 -0.161373341960E+02
 -0.161818489741E+02
 -0.164339046831E+02
 -0.166291109948E+02
 -0.167224038335E+02
 -0.177207717999E+02
 -0.178140606678E+02
 -0.178729153285E+02
 -0.181249756223E+02
 -0.180424557830E+02
 -0.180847325243E+02
 -0.182892964358E+02
 -0.183315728397E+02
 -0.183827888596E+02
 -0.185605539604E+02
 -0.188297207864E+02
 -0.188719947219E+02
 -0.188084990138E+02
 -0.190605632620E+02
 -0.191012266226E+02
 -0.191191396292E+02
 -0.193480672778E+02
 -0.193659795330E+02
 -0.192605012337E+02
 -0.195125675337E+02
 -0.195615378447E+02
 -0.195688951599E+02
 -0.194645653657E+02
 -0.197166324965E+02
 -0.196065409560E+02
 -0.196998253270E+02
 -0.195538645339E+02
 -0.198059319876E+02
 -0.195924102862E+02
 -0.198444778696E+02
 -0.196089488569E+02
 -0.198610164939E+02
 -0.196160254388E+02
 -0.198680930984E+02
 -0.196190517585E+02
 -0.198711194277E+02
 -0.196203449602E+02
 -0.198724126335E+02
 -0.196208967516E+02
 -0.198729644266E+02
 -0.196211318791E+02
 -0.198731995549E+02
 -0.196212343820E+02
 -0.198733017617E+02
 -0.197527969479E+02
 -0.197557749277E+02
 -0.198083785020E+02
 -0.198157348876E+02
 -0.198307616706E+02
 -0.198319555370E+02
 -0.198622958018E+02
 -0.198627682333E+02
 -0.198750091908E+02
 -0.198751907791E+02
 -0.198801305808E+02
 -0.198801950598E+02
 -0.198821906577E+02
 -0.198822080054E+02
 -0.198830108596E+02
 -0.198884916369E+02
 -0.199064011996E+02
 -0.199213815738E+02
 -0.199636512460E+02