# vtk DataFile Version 3.0
MachLine results file. Generated by MachLine, USU AeroLab (c) 2022.
ASCII
DATASET POLYDATA
POINTS                 704 float
  0.102701900174E-04  0.000000000000E+00  0.000000000000E+00
  0.173984447591E-01  0.995846352009E+00 -0.388535626708E-21
  0.554696451013E-01  0.317612428443E+01  0.000000000000E+00
  0.132366378801E+00  0.758029465803E+01  0.126838445505E-20
  0.265182825721E+00  0.151882006516E+02  0.175624666571E-20
  0.327014374778E+00  0.000000000000E+00 -0.377898177782E+00
  0.327014374778E+00  0.000000000000E+00  0.377898177782E+00
  0.344399642271E+00  0.995846478608E+00 -0.377896146571E+00
  0.344399642271E+00  0.995846478608E+00  0.377896146571E+00
  0.382463323590E+00  0.317612454244E+01 -0.377886074341E+00
  0.382463323590E+00  0.317612454244E+01  0.377886074341E+00
  0.442658662652E+00  0.253556410224E+02  0.181743716829E-20
  0.459349427327E+00  0.758029510178E+01 -0.377869692376E+00
  0.459349427327E+00  0.758029510178E+01  0.377869692376E+00
  0.592157680409E+00  0.151882012381E+02 -0.377852204031E+00
  0.592157680409E+00  0.151882012381E+02  0.377852204031E+00
  0.613152576166E+00  0.351242017272E+02  0.140350082155E-20
  0.732216015345E+00  0.419466088820E+02  0.862406366952E-21
  0.769635406050E+00  0.253556415754E+02 -0.377845630826E+00
  0.769635406050E+00  0.253556415754E+02  0.377845630826E+00
  0.798084054968E+00  0.457211147798E+02 -0.466140501465E-21
  0.829905551187E+00  0.475446699264E+02  0.000000000000E+00
  0.844271793443E+00  0.483679388859E+02  0.000000000000E+00
  0.850558811368E+00  0.487282103671E+02  0.000000000000E+00
  0.853272535251E+00  0.488837165119E+02  0.000000000000E+00
  0.854436902812E+00  0.489504355713E+02  0.940472541735E-22
  0.854935213789E+00  0.489789885822E+02  0.915251308381E-22
  0.855148197270E+00  0.489911956142E+02 -0.180920304153E-21
  0.855239254666E+00  0.489964141204E+02 -0.900073682680E-22
  0.855278168604E+00  0.489986419037E+02 -0.898141740369E-22
  0.855294735334E+00  0.489995917634E+02  0.000000000000E+00
  0.855302404317E+00  0.489999982206E+02  0.181379798147E-20
  0.940139480456E+00  0.351242021039E+02 -0.377855766144E+00
  0.940139480456E+00  0.351242021039E+02  0.377855766144E+00
  0.105921279000E+01  0.419466090853E+02 -0.377873885524E+00
  0.105921279000E+01  0.419466090853E+02  0.377873885524E+00
  0.112508697346E+01  0.457211148759E+02 -0.377888833425E+00
  0.112508697346E+01  0.457211148759E+02  0.377888833425E+00
  0.115691154149E+01  0.475446699689E+02 -0.377897375791E+00
  0.115691154149E+01  0.475446699689E+02  0.377897375791E+00
  0.117127907885E+01  0.483679389058E+02 -0.377901340939E+00
  0.117127907885E+01  0.483679389058E+02  0.377901340939E+00
  0.117756663807E+01  0.487282103786E+02 -0.377902959972E+00
  0.117756663807E+01  0.487282103786E+02  0.377902959972E+00
  0.118028050741E+01  0.488837165198E+02 -0.377903565347E+00
  0.118028050741E+01  0.488837165198E+02  0.377903565347E+00
  0.118144502945E+01  0.489504355776E+02 -0.377903792528E+00
  0.118144502945E+01  0.489504355776E+02  0.377903792528E+00
  0.118194338301E+01  0.489789885877E+02 -0.377903882486E+00
  0.118194338301E+01  0.489789885877E+02  0.377903882486E+00
  0.118215638509E+01  0.489911956194E+02 -0.377903919546E+00
  0.118215638509E+01  0.489911956194E+02  0.377903919546E+00
  0.118224745051E+01  0.489964141254E+02 -0.377903935128E+00
  0.118224745051E+01  0.489964141254E+02  0.377903935128E+00
  0.118228630829E+01  0.489986419088E+02 -0.377903941743E+00
  0.118228630829E+01  0.489986419088E+02  0.377903941743E+00
  0.118230287649E+01  0.489995917683E+02 -0.377903944555E+00
  0.118230287649E+01  0.489995917683E+02  0.377903944555E+00
  0.118231036691E+01  0.489999987682E+02 -0.377903499502E+00
  0.118231036691E+01  0.489999987682E+02  0.377903499502E+00
  0.118697425321E+01  0.492671763225E+02 -0.267217832591E+00
  0.118697425321E+01  0.492671763225E+02  0.267217832591E+00
  0.118890545383E+01  0.493778444599E+02 -0.118643089096E-14
  0.141894036937E+01  0.000000000000E+00 -0.747375922706E+00
  0.141894036937E+01  0.000000000000E+00  0.747375922706E+00
  0.143632379236E+01  0.995846543299E+00 -0.747374609445E+00
  0.143632379236E+01  0.995846543299E+00  0.747374609445E+00
  0.147438340055E+01  0.317612467927E+01 -0.747363649021E+00
  0.147438340055E+01  0.317612467927E+01  0.747363649021E+00
  0.155126299207E+01  0.758029535228E+01 -0.747344952420E+00
  0.155126299207E+01  0.758029535228E+01  0.747344952420E+00
  0.168406440137E+01  0.151882016086E+02 -0.747324667232E+00
  0.168406440137E+01  0.151882016086E+02  0.747324667232E+00
  0.186153955781E+01  0.253556419907E+02 -0.747316983323E+00
  0.186153955781E+01  0.253556419907E+02  0.747316983323E+00
  0.203204750581E+01  0.351242024495E+02 -0.747328701164E+00
  0.203204750581E+01  0.351242024495E+02  0.747328701164E+00
  0.215112804215E+01  0.419466093059E+02 -0.747349528947E+00
  0.215112804215E+01  0.419466093059E+02  0.747349528947E+00
  0.221700833781E+01  0.457211149919E+02 -0.747366377692E+00
  0.221700833781E+01  0.457211149919E+02  0.747366377692E+00
  0.224883640096E+01  0.475446700238E+02 -0.747375714396E+00
  0.224883640096E+01  0.475446700238E+02  0.747375714396E+00
  0.226320560464E+01  0.483679389316E+02 -0.747379865626E+00
  0.226320560464E+01  0.483679389316E+02  0.747379865626E+00
  0.226949374355E+01  0.487282103922E+02 -0.747381483704E+00
  0.226949374355E+01  0.487282103922E+02  0.747381483704E+00
  0.227220799019E+01  0.488837165289E+02 -0.747382102177E+00
  0.227220799019E+01  0.488837165289E+02  0.747382102177E+00
  0.227337236717E+01  0.489504355851E+02 -0.747382348792E+00
  0.227337236717E+01  0.489504355851E+02  0.747382348792E+00
  0.227387087589E+01  0.489789885946E+02 -0.747382450655E+00
  0.227387087589E+01  0.489789885946E+02  0.747382450655E+00
  0.227408401178E+01  0.489911956260E+02 -0.747382493510E+00
  0.227408401178E+01  0.489911956260E+02  0.747382493510E+00
  0.227417484488E+01  0.489964141320E+02 -0.747382511701E+00
  0.227417484488E+01  0.489964141320E+02  0.747382511701E+00
  0.227421394366E+01  0.489986419152E+02 -0.747382519456E+00
  0.227421394366E+01  0.489986419152E+02  0.747382519456E+00
  0.227423039375E+01  0.489995917749E+02 -0.747382522757E+00
  0.227423039375E+01  0.489995917749E+02  0.747382522757E+00
  0.227423779260E+01  0.489999972409E+02 -0.747381573834E+00
  0.227423779260E+01  0.489999972409E+02  0.747381573834E+00
  0.228346157441E+01  0.495283974576E+02 -0.528477618615E+00
  0.228346157441E+01  0.495283974576E+02  0.528477618615E+00
  0.228728183836E+01  0.497472675131E+02 -0.643252191307E-15
  0.375130981071E+01  0.000000000000E+00 -0.109079533495E+01
  0.375130981071E+01  0.000000000000E+00  0.109079533495E+01
  0.376869309064E+01  0.995846585426E+00 -0.109079504906E+01
  0.376869309064E+01  0.995846585426E+00  0.109079504906E+01
  0.380675077673E+01  0.317612475287E+01 -0.109078498902E+01
  0.380675077673E+01  0.317612475287E+01  0.109078498902E+01
  0.388362725044E+01  0.758029547821E+01 -0.109076690337E+01
  0.388362725044E+01  0.758029547821E+01  0.109076690337E+01
  0.401642545817E+01  0.151882017904E+02 -0.109074665734E+01
  0.401642545817E+01  0.151882017904E+02  0.109074665734E+01
  0.419389965017E+01  0.253556421935E+02 -0.109073886932E+01
  0.419389965017E+01  0.253556421935E+02  0.109073886932E+01
  0.436440944792E+01  0.351242026201E+02 -0.109075056029E+01
  0.436440944792E+01  0.351242026201E+02  0.109075056029E+01
  0.448349304918E+01  0.419466094187E+02 -0.109077115375E+01
  0.448349304918E+01  0.419466094187E+02  0.109077115375E+01
  0.454937628653E+01  0.457211150575E+02 -0.109078743937E+01
  0.454937628653E+01  0.457211150575E+02  0.109078743937E+01
  0.458120539724E+01  0.475446700629E+02 -0.109079614664E+01
  0.458120539724E+01  0.475446700629E+02  0.109079614664E+01
  0.459557552973E+01  0.483679389587E+02 -0.109079986578E+01
  0.459557552973E+01  0.483679389587E+02  0.109079986578E+01
  0.460186393609E+01  0.487282104146E+02 -0.109080133555E+01
  0.460186393609E+01  0.487282104146E+02  0.109080133555E+01
  0.460457804411E+01  0.488837165496E+02 -0.109080192640E+01
  0.460457804411E+01  0.488837165496E+02  0.109080192640E+01
  0.460574293698E+01  0.489504356050E+02 -0.109080217088E+01
  0.460574293698E+01  0.489504356050E+02  0.109080217088E+01
  0.460624122327E+01  0.489789886143E+02 -0.109080227378E+01
  0.460624122327E+01  0.489789886143E+02  0.109080227378E+01
  0.460645436585E+01  0.489911956455E+02 -0.109080231745E+01
  0.460645436585E+01  0.489911956455E+02  0.109080231745E+01
  0.460654544019E+01  0.489964141515E+02 -0.109080233605E+01
  0.460654544019E+01  0.489964141515E+02  0.109080233605E+01
  0.460658406334E+01  0.489986419346E+02 -0.109080234400E+01
  0.460658406334E+01  0.489986419346E+02  0.109080234400E+01
  0.460660075236E+01  0.489995917941E+02 -0.109080234738E+01
  0.460660075236E+01  0.489995917941E+02  0.109080234738E+01
  0.460660802865E+01  0.489999951619E+02 -0.109080110467E+01
  0.460660802865E+01  0.489999951619E+02  0.109080110467E+01
  0.462006977911E+01  0.497711949040E+02 -0.771311313385E+00
  0.462006977911E+01  0.497711949040E+02  0.771311313385E+00
  0.462564617337E+01  0.500906366411E+02 -0.190840554216E-15
  0.764637724718E+01  0.000000000000E+00 -0.116698927602E+01
  0.764637724718E+01  0.000000000000E+00  0.116698927602E+01
  0.766375963355E+01  0.995846647096E+00 -0.116698069900E+01
  0.766375963355E+01  0.995846647096E+00  0.116698069900E+01
  0.770181627106E+01  0.317612483284E+01 -0.116697294073E+01
  0.770181627106E+01  0.317612483284E+01  0.116697294073E+01
  0.777869107274E+01  0.758029559153E+01 -0.116695807002E+01
  0.777869107274E+01  0.758029559153E+01  0.116695807002E+01
  0.791148680975E+01  0.151882019427E+02 -0.116693801019E+01
  0.791148680975E+01  0.151882019427E+02  0.116693801019E+01
  0.808896001442E+01  0.253556423630E+02 -0.116692560729E+01
  0.808896001442E+01  0.253556423630E+02  0.116692560729E+01
[...]
POINT_DATA                 704
SCALARS phi float 1
LOOKUP_TABLE default
 -0.102101193092E-04
 -0.172966806289E-01
 -0.551452011487E-01
 -0.131592163083E+00
 -0.263631761820E+00
 -0.284288896195E+00
 -0.365914415641E+00
 -0.301572696002E+00
 -0.383197776709E+00
 -0.339414829271E+00
 -0.421037734390E+00
 -0.440069536186E+00
 -0.415852992660E+00
 -0.497472359295E+00
 -0.547886334214E+00
 -0.629501923389E+00
 -0.609566224658E+00
 -0.727933257491E+00
 -0.724326696146E+00
 -0.805940865517E+00
 -0.793416032578E+00
 -0.825051403719E+00
 -0.839333617306E+00
 -0.845583862236E+00
 -0.848281713451E+00
 -0.849439270584E+00
 -0.849934666922E+00
 -0.850146404655E+00
 -0.850236929453E+00
 -0.850275615783E+00
 -0.850292085613E+00
 -0.850299709740E+00
 -0.893832391470E+00
 -0.975448750057E+00
 -0.101220728006E+01
 -0.109382755241E+01
 -0.107769454868E+01
 -0.115931804976E+01
 -0.110933205109E+01
 -0.119095739731E+01
 -0.112361512398E+01
 -0.120524132666E+01
 -0.112986573218E+01
 -0.121149228457E+01
 -0.113256366263E+01
 -0.121419034578E+01
 -0.113372134879E+01
 -0.121534808102E+01
 -0.113421677775E+01
 -0.121584352941E+01
 -0.113442852998E+01
 -0.121605528964E+01
 -0.113451906107E+01
 -0.121614582409E+01
 -0.113455769085E+01
 -0.121618445531E+01
 -0.113457416184E+01
 -0.121620092690E+01
 -0.113458165652E+01
 -0.121620832545E+01
 -0.115117224429E+01
 -0.120889095180E+01
 -0.118195150299E+01
 -0.132992481791E+01
 -0.149135705415E+01
 -0.134720670646E+01
 -0.150863865905E+01
 -0.138504488635E+01
 -0.154647447150E+01
 -0.146147682559E+01
 -0.162290237229E+01
 -0.159350366545E+01
 -0.175492483058E+01
 -0.176994159316E+01
 -0.193136109857E+01
 -0.193945096851E+01
 -0.210087300496E+01
 -0.205783274912E+01
 -0.221925928435E+01
 -0.212332588890E+01
 -0.228475606343E+01
 -0.215496678021E+01
 -0.231639897146E+01
 -0.216925148956E+01
 -0.233068457747E+01
 -0.217550267417E+01
 -0.233693611159E+01
 -0.217820097830E+01
 -0.233963454930E+01
 -0.217935851815E+01
 -0.234079214242E+01
 -0.217985410008E+01
 -0.234128774635E+01
 -0.218006598470E+01
 -0.234149964023E+01
 -0.218015628455E+01
 -0.234158994401E+01
 -0.218019515380E+01
 -0.234162881494E+01
 -0.218021150731E+01
 -0.234164516916E+01
 -0.218021896537E+01
 -0.234165242225E+01
 -0.221303028308E+01
 -0.232718076771E+01
 -0.227390344448E+01
 -0.361156307109E+01
 -0.384717345785E+01
 -0.362884470647E+01
 -0.386445503148E+01
 -0.366668087826E+01
 -0.390228903031E+01
 -0.374310965194E+01
 -0.397871389752E+01
 -0.387513330473E+01
 -0.411073317719E+01
 -0.405157028489E+01
 -0.428716847515E+01
 -0.422108150208E+01
 -0.445668221757E+01
 -0.433946635498E+01
 -0.457507151863E+01
 -0.440496248007E+01
 -0.464057116140E+01
 -0.443660448078E+01
 -0.467221504286E+01
 -0.445089016018E+01
 -0.468650152560E+01
 -0.445714162669E+01
 -0.469275330958E+01
 -0.445983979599E+01
 -0.469545160649E+01
 -0.446099784895E+01
 -0.469660971227E+01
 -0.446149320963E+01
 -0.469710509517E+01
 -0.446170510082E+01
 -0.469731699579E+01
 -0.446179564045E+01
 -0.469740753945E+01
 -0.446183403684E+01
 -0.469744593755E+01
 -0.446185062788E+01
 -0.469746252932E+01
 -0.446185799582E+01
 -0.469746962884E+01
 -0.450974569962E+01
 -0.467634794941E+01
 -0.459859060225E+01
 -0.747561922125E+01
 -0.772768740110E+01
 -0.749290086374E+01
 -0.774496719096E+01
 -0.753073574449E+01
 -0.778280039594E+01
 -0.760716250871E+01
 -0.785922394811E+01
 -0.773918368511E+01
 -0.799124079161E+01
 -0.791562018213E+01
 -0.816767460961E+01
 -0.808513254999E+01
 -0.833718859207E+01
 -0.820352061599E+01
 -0.845558109956E+01
 -0.826901746169E+01
 -0.852108178544E+01
 -0.830066131992E+01
 -0.855272765072E+01
 -0.831494692991E+01
 -0.856701407470E+01
 -0.832119855879E+01
 -0.857326601864E+01
 -0.832389679358E+01
 -0.857596437952E+01
 -0.832505534771E+01
 -0.857712298576E+01
 -0.832555024576E+01
 -0.857761790573E+01
 -0.832576261583E+01
 -0.857783028511E+01
 -0.832585268350E+01
 -0.857792035673E+01
 -0.832589155481E+01
 -0.857795922974E+01
 -0.832590767218E+01
 -0.857797534782E+01
 -0.832591536644E+01
 -0.857798274848E+01
 -0.837714742992E+01
 -0.855538498403E+01
 -0.847219645153E+01
 -0.120978940836E+02
 -0.122756707657E+02
 -0.121151739267E+02
 -0.122929503389E+02
 -0.121530088298E+02
 -0.123307832291E+02
 -0.122294342401E+02
 -0.124072049461E+02
 -0.123614551121E+02
 -0.125392215912E+02
 -0.125378902760E+02
 -0.127156551171E+02
 -0.127074030325E+02
 -0.128851703501E+02
 -0.128257923843E+02
 -0.130035640122E+02
 -0.128912903765E+02
 -0.130690653300E+02
 -0.129229348361E+02
 -0.131007115032E+02
 -0.129372206876E+02
 -0.131149980768E+02
 -0.129434724089E+02
 -0.131212500900E+02
 -0.129461706803E+02
 -0.131239484816E+02
 -0.129473283015E+02
 -0.131251061532E+02
 -0.129478241540E+02
 -0.131256020271E+02
 -0.129480365268E+02
 -0.131258144089E+02
 -0.129481265956E+02
 -0.131259044816E+02
 -0.129481654674E+02
 -0.131259433550E+02
 -0.129481815850E+02
 -0.131259594734E+02
 -0.129481891754E+02
 -0.131259669267E+02
 -0.129843213315E+02
 -0.131100289104E+02
 -0.130513581126E+02
 -0.158418469505E+02
 -0.159351417401E+02
 -0.158591269394E+02
 -0.159524216627E+02
 -0.158969626374E+02
 -0.159902551904E+02
 -0.159733868176E+02
 -0.160666754574E+02
 -0.161054073659E+02
 -0.161986916302E+02
 -0.162818424043E+02
 -0.163751249869E+02
 -0.164513562988E+02
 -0.165446414059E+02
 -0.165697450328E+02
 -0.166630345875E+02
 -0.166352432790E+02
 -0.167285363503E+02
 -0.166668869207E+02
 -0.167601818707E+02
 -0.166811747232E+02
 -0.167744704708E+02
 -0.166874264667E+02
 -0.167807225257E+02
 -0.166901247474E+02
 -0.167834209304E+02
 -0.166912814243E+02
 -0.167845776584E+02
 -0.166917782266E+02
 -0.167850744822E+02
 -0.166919887039E+02
 -0.167852849686E+02
 -0.166920797211E+02
 -0.167853759896E+02
 -0.166921176449E+02
 -0.167854139151E+02
 -0.166921347106E+02
 -0.167854309815E+02
 -0.166921422954E+02
 -0.167854385197E+02
 -0.167111050395E+02
 -0.167770752708E+02
 -0.167462843406E+02
 -0.180424557837E+02
 -0.180847323861E+02
 -0.180597357900E+02
 -0.181020120391E+02
 -0.180975705307E+02
 -0.181398443411E+02
 -0.181739965892E+02
 -0.182162662546E+02
 -0.183060152207E+02
 -0.183482803981E+02
 -0.184824502510E+02
 -0.185247137302E+02
 -0.186519641575E+02
 -0.186942302300E+02
 -0.187703529122E+02
 -0.188126235967E+02
 -0.188358530705E+02
 -0.188781274900E+02
 -0.188674967204E+02
 -0.189097732106E+02
 -0.188817826300E+02
 -0.189240600411E+02
 -0.188880343748E+02
 -0.189303121425E+02
 -0.188907326560E+02
 -0.189330105582E+02
 -0.188918912293E+02
 -0.189341691846E+02
 -0.188923861355E+02
 -0.189346641126E+02
 -0.188925985090E+02
 -0.189348764953E+02
 -0.188926895262E+02
 -0.189349675164E+02
 -0.188927274501E+02
 -0.189350054419E+02
 -0.188927445158E+02
 -0.189350225083E+02
 -0.188927502045E+02
 -0.189350281853E+02
 -0.189013441310E+02
 -0.189312391009E+02
 -0.189172854457E+02
 -0.191012266233E+02
 -0.191191395311E+02
 -0.191185066316E+02
 -0.191364188305E+02
 -0.191563413804E+02
 -0.191742509630E+02
 -0.192327674510E+02
 -0.192506727888E+02
 -0.193647860950E+02
 -0.193826869049E+02
 -0.195412230262E+02
 -0.195591221347E+02
 -0.195615378450E+02
 -0.195688951280E+02
 -0.195788197515E+02
 -0.195861761538E+02
 -0.196166545039E+02
 -0.196240082352E+02
 -0.196930786838E+02
 -0.197004281456E+02
 -0.197107350291E+02
 -0.197286367625E+02
 -0.197527969478E+02
 -0.197557749411E+02
 -0.197700769587E+02
 -0.197730540282E+02
 -0.198079117127E+02
 -0.198108860999E+02
 -0.198250992298E+02
 -0.198324441543E+02
 -0.198307616702E+02
 -0.198319555705E+02
 -0.198291256668E+02
 -0.198470320939E+02
 -0.198480416814E+02
 -0.198492346501E+02
 -0.198622958014E+02
 -0.198627682752E+02
 -0.198750091904E+02
 -0.198751908242E+02
 -0.198795777088E+02
 -0.198800492497E+02
 -0.198801305803E+02
 -0.198801951063E+02
 -0.198821906570E+02
 -0.198822080521E+02
 -0.198830111074E+02
 -0.198843377911E+02
 -0.198873079042E+02
 -0.198858764360E+02
 -0.198870667205E+02
 -0.198922910978E+02
 -0.198924717986E+02
 -0.198974105913E+02
 -0.198974741843E+02
 -0.198994706680E+02
 -0.198994871302E+02
 -0.199002855406E+02
 -0.198946239177E+02
 -0.199125342215E+02
 -0.199174105674E+02
 -0.199178794238E+02
 -0.199301258527E+02
 -0.199303038689E+02
 -0.199262675607E+02
 -0.199441800840E+02
 -0.199352453462E+02
 -0.199353062545E+02
 -0.199373054229E+02
 -0.199373192005E+02
 -0.199381059491E+02
 -0.199405534670E+02
 -0.199584670210E+02
 -0.199468052103E+02
 -0.199647191855E+02
 -0.199495034910E+02
 -0.199674176228E+02
 -0.199506620641E+02
 -0.199685762539E+02
 -0.199511569702E+02
 -0.199690711828E+02
 -0.199513693437E+02
 -0.199692835656E+02
 -0.199514603609E+02
 -0.199693745867E+02
 -0.199514982848E+02
 -0.199694125123E+02
 -0.199515153505E+02
 -0.199694295787E+02
 -0.199515210391E+02
 -0.199694352647E+02
 -0.199551627651E+02
 -0.199678300015E+02
 -0.199619174546E+02
 -0.199623025154E+02
 -0.199634885250E+02
 -0.199938366472E+02
 -0.199943012285E+02
 -0.200015342668E+02
 -0.200088774896E+02
 -0.200065500362E+02
 -0.200067237773E+02
 -0.200116695312E+02
 -0.200117261644E+02
 -0.200137315031E+02
 -0.200137410056E+02
 -0.200145104137E+02
 -0.200163564433E+02
 -0.200193220173E+02
 -0.200943230647E+02
 -0.200955045349E+02
 -0.201258571967E+02
 -0.201263172385E+02
 -0.201385705859E+02
 -0.201387397876E+02
 -0.201436900805E+02
 -0.201437421742E+02
 -0.201457501600E+02
 -0.201457551229E+02
 -0.201465110819E+02
 -0.201710481626E+02
 -0.201783940182E+02
 -0.201927933775E+02
 -0.201957572496E+02
 -0.202707581030E+02
 -0.202719378712E+02
 -0.202894368980E+02
 -0.202967874696E+02
 -0.203022922352E+02
 -0.203027505751E+02
 -0.203150056245E+02
 -0.203151731243E+02
 -0.203201251179E+02
 -0.203201755098E+02
 -0.203221852018E+02
 -0.203221884628E+02
 -0.203229436198E+02
 -0.203549351437E+02
 -0.203622896401E+02
 -0.203623053756E+02
 -0.203652718821E+02
 -0.203865806795E+02
 -0.203939374734E+02
 -0.204008665838E+02
 -0.204082244836E+02
 -0.204071183262E+02
 -0.204144766991E+02
 -0.204098166064E+02
 -0.204171751657E+02
 -0.204109732832E+02
 -0.204183319107E+02
 -0.204114700854E+02
 -0.204188287380E+02
 -0.204116805627E+02
 -0.204190392250E+02
 -0.204117715799E+02
 -0.204191302462E+02
 -0.204118113999E+02
 -0.204191700679E+02
 -0.204118265694E+02
 -0.204191852381E+02
 -0.204118341542E+02
 -0.204191928225E+02
 -0.204133289657E+02
 -0.204185323157E+02
 -0.204161051427E+02
 -0.204402701008E+02
 -0.204414525037E+02
 -0.204718061289E+02
 -0.204722671036E+02
 -0.204806941085E+02
 -0.204836653354E+02
 -0.204845195180E+02
 -0.204846896525E+02
 -0.204896390115E+02
 -0.204896920381E+02
 -0.204916990893E+02
 -0.204917049851E+02
 -0.204924724812E+02
 -0.205461942483E+02
 -0.205491694103E+02
 -0.205586607288E+02
 -0.205598478528E+02
 -0.205778378864E+02
 -0.205808153679E+02
 -0.205901948603E+02
 -0.205906605562E+02
 -0.205921237897E+02
 -0.205951024128E+02
 -0.205983755316E+02
 -0.206013546614E+02
 -0.206010738115E+02
 -0.206040531504E+02
 -0.206029082494E+02
 -0.206030831053E+02
 -0.206022323843E+02
 -0.206052118046E+02
 -0.206027272903E+02
 -0.206057067401E+02
 -0.206029396638E+02
 -0.206059191244E+02
 -0.206030306810E+02
 -0.206060101458E+02
 -0.206030686048E+02
 -0.206060480714E+02
 -0.206030856705E+02
 -0.206060651378E+02
 -0.206030913591E+02
 -0.206060708264E+02
 -0.206036983482E+02
 -0.206058051439E+02
 -0.206048219271E+02
 -0.206080277430E+02
 -0.206080854909E+02
 -0.206100878227E+02
 -0.206100984397E+02
 -0.206108851925E+02
 -0.206241589713E+02
 -0.206253500324E+02
 -0.206556931026E+02
 -0.206561627359E+02
 -0.206558026090E+02
 -0.206569959938E+02
 -0.206684064917E+02
 -0.206685852849E+02
 -0.206700885120E+02
 -0.206712830474E+02
 -0.206735259860E+02
 -0.206735876713E+02
 -0.206755879593E+02
 -0.206756025138E+02
 -0.206763996978E+02
 -0.206763402535E+02
 -0.206775353106E+02
 -0.206790385333E+02
 -0.206802338138E+02
 -0.206801971060E+02
 -0.206813924775E+02
 -0.206806920119E+02
 -0.206818874187E+02
 -0.206809043854E+02
 -0.206820998050E+02
 -0.206809954025E+02
 -0.206821908268E+02
 -0.206810333264E+02
 -0.206822287524E+02
 -0.206810503921E+02
 -0.206822458188E+02
 -0.206810579768E+02
 -0.206822534039E+02
 -0.206812994094E+02
 -0.206821447017E+02
 -0.206817505075E+02
 -0.206873367401E+02
 -0.206878086978E+02
 -0.207000520253E+02
 -0.207002331430E+02
 -0.207016226430E+02
 -0.207020957530E+02
 -0.207051715191E+02
 -0.207052355289E+02
 -0.207072315955E+02
 -0.207072484746E+02
 -0.207080523841E+02
 -0.207078743845E+02
 -0.207083480196E+02
 -0.207105726641E+02
 -0.207110465288E+02
 -0.207117312369E+02
 -0.207122051985E+02
 -0.207122261427E+02
 -0.207127001437E+02
 -0.207124385161E+02
 -0.207129125323E+02
 -0.207125295332E+02
 -0.207130035550E+02
 -0.207125674571E+02
 -0.207130414808E+02
 -0.207125845228E+02
 -0.207130585473E+02
 -0.207125921076E+02
 -0.207130661324E+02
 -0.207126880734E+02
 -0.207130232588E+02
 -0.207128670469E+02
 -0.207143379281E+02
 -0.207145201984E+02
 -0.207194574218E+02
 -0.207195225842E+02
 -0.207205896696E+02
 -0.207207724657E+02
 -0.207215174986E+02
 -0.207215355303E+02
 -0.207223426535E+02
 -0.207232879492E+02
 -0.207234709762E+02
 -0.207244446257E+02
 -0.207246277520E+02
 -0.207249414276E+02
 -0.207251245958E+02
 -0.207251538011E+02
 -0.207253369861E+02
 -0.207252429221E+02
 -0.207254261137E+02
 -0.207252827421E+02
 -0.207254659361E+02
 -0.207252979116E+02
 -0.207254811065E+02
 -0.207253054964E+02
 -0.207254886917E+02
 -0.207253437018E+02
 -0.207254732402E+02
 -0.207254122649E+02
 -0.207257091632E+02
 -0.207257748516E+02
 -0.207277692402E+02
 -0.207277877978E+02
 -0.207284074429E+02
 -0.207284733624E+02
 -0.207285963639E+02
 -0.207295660156E+02
 -0.207296320350E+02
 -0.207300609213E+02
 -0.207301269835E+02
 -0.207302732948E+02
 -0.207303393748E+02
 -0.207303624157E+02
 -0.207304285031E+02
 -0.207304022357E+02
 -0.207304683259E+02
 -0.207304174053E+02
 -0.207304834965E+02
 -0.207304249901E+02
 -0.207304910817E+02
 -0.207304384613E+02
 -0.207304851952E+02
 -0.207304637250E+02
 -0.207304675199E+02
 -0.207304863087E+02
 -0.207312955045E+02
 -0.207316260925E+02
 -0.207316449813E+02
 -0.207321209983E+02
 -0.207321399300E+02
 -0.207323333717E+02
 -0.207323523216E+02
 -0.207324243889E+02
 -0.207324433466E+02
 -0.207324544486E+02
 -0.207324623126E+02
 -0.207324812734E+02
 -0.207324793784E+02
 -0.207324983404E+02
 -0.207324850669E+02
 -0.207325040295E+02
 -0.207324897401E+02
 -0.207325031489E+02
 -0.207324964448E+02
 -0.207329495138E+02
 -0.207331619552E+02
 -0.207332530012E+02
 -0.207332909369E+02
 -0.207333080072E+02
 -0.207333155989E+02
 -0.199002856976E+02
 -0.198830112008E+02
 -0.207332909370E+02
 -0.207332530015E+02
 -0.207329495152E+02
 -0.207324544518E+02
 -0.207312955120E+02
 -0.207285963811E+02
 -0.207333080073E+02
 -0.199381062696E+02
 -0.207331619558E+02
 -0.200145109806E+02
 -0.207080524736E+02
 -0.206763998903E+02
 -0.207223426932E+02
 -0.201465118754E+02
 -0.204924731107E+02
 -0.203229444417E+02
 -0.206108855703E+02
SCALARS phi_mu float 1
LOOKUP_TABLE default
 -0.102101193092E-04
 -0.172966806289E-01
 -0.551452011487E-01
 -0.131592163083E+00
 -0.263631761820E+00
 -0.284288896195E+00
 -0.365914415641E+00
 -0.301572696002E+00
 -0.383197776709E+00
 -0.339414829271E+00
 -0.421037734390E+00
 -0.440069536186E+00
 -0.415852992660E+00
 -0.497472359295E+00
 -0.547886334214E+00
 -0.629501923389E+00
 -0.609566224658E+00
 -0.727933257491E+00
 -0.724326696146E+00
 -0.805940865517E+00
 -0.793416032578E+00
 -0.825051403719E+00
 -0.839333617306E+00
 -0.845583862236E+00
 -0.848281713451E+00
 -0.849439270584E+00
 -0.849934666922E+00
 -0.850146404655E+00
 -0.850236929453E+00
 -0.850275615783E+00
 -0.850292085613E+00
 -0.850299709740E+00
 -0.893832391470E+00
 -0.975448750057E+00
 -0.101220728006E+01
 -0.109382755241E+01
 -0.107769454868E+01
 -0.115931804976E+01
 -0.110933205109E+01
 -0.119095739731E+01
 -0.112361512398E+01
 -0.120524132666E+01
 -0.112986573218E+01
 -0.121149228457E+01
 -0.113256366263E+01
 -0.121419034578E+01
 -0.113372134879E+01
 -0.121534808102E+01
 -0.113421677775E+01
 -0.121584352941E+01
 -0.113442852998E+01
 -0.121605528964E+01
 -0.113451906107E+01
 -0.121614582409E+01
 -0.113455769085E+01
 -0.121618445531E+01
 -0.113457416184E+01
 -0.121620092690E+01
 -0.113458165652E+01
 -0.121620832545E+01
 -0.115117224429E+01
 -0.120889095180E+01
 -0.118195150299E+01
 -0.132992481791E+01
 -0.149135705415E+01
 -0.134720670646E+01
 -0.150863865905E+01
 -0.138504488635E+01
 -0.154647447150E+01
 -0.146147682559E+01
 -0.162290237229E+01
 -0.159350366545E+01
 -0.175492483058E+01
 -0.176994159316E+01
 -0.193136109857E+01
 -0.193945096851E+01
 -0.210087300496E+01
 -0.205783274912E+01
 -0.221925928435E+01
 -0.212332588890E+01
 -0.228475606343E+01
 -0.215496678021E+01
 -0.231639897146E+01
 -0.216925148956E+01
 -0.233068457747E+01
 -0.217550267417E+01
 -0.233693611159E+01
 -0.217820097830E+01
 -0.233963454930E+01
 -0.217935851815E+01
 -0.234079214242E+01
 -0.217985410008E+01
 -0.234128774635E+01
 -0.218006598470E+01
 -0.234149964023E+01
 -0.218015628455E+01
 -0.234158994401E+01
 -0.218019515380E+01
 -0.234162881494E+01
 -0.218021150731E+01
 -0.234164516916E+01
 -0.218021896537E+01
 -0.234165242225E+01
 -0.221303028308E+01
 -0.232718076771E+01
 -0.227390344448E+01
 -0.361156307109E+01
 -0.384717345785E+01
 -0.362884470647E+01
 -0.386445503148E+01
 -0.366668087826E+01
 -0.390228903031E+01
 -0.374310965194E+01
 -0.397871389752E+01
 -0.387513330473E+01
 -0.411073317719E+01
 -0.405157028489E+01
 -0.428716847515E+01
 -0.422108150208E+01
 -0.445668221757E+01
 -0.433946635498E+01
 -0.457507151863E+01
 -0.440496248007E+01
 -0.464057116140E+01
 -0.443660448078E+01
 -0.467221504286E+01
 -0.445089016018E+01
 -0.468650152560E+01
 -0.445714162669E+01
 -0.469275330958E+01
 -0.445983979599E+01
 -0.469545160649E+01
 -0.446099784895E+01
 -0.469660971227E+01
 -0.446149320963E+01
 -0.469710509517E+01
 -0.446170510082E+01
 -0.469731699579E+01
 -0.446179564045E+01
 -0.469740753945E+01
 -0.446183403684E+01
 -0.469744593755E+01
 -0.446185062788E+01
 -0.469746252932E+01
 -0.446185799582E+01
 -0.469746962884E+01
 -0.450974569962E+01
 -0.467634794941E+01
 -0.459859060225E+01
 -0.747561922125E+01
 -0.772768740110E+01
 -0.749290086374E+01
 -0.774496719096E+01
 -0.753073574449E+01
 -0.778280039594E+01
 -0.760716250871E+01
 -0.785922394811E+01
 -0.773918368511E+01
 -0.799124079161E+01
 -0.791562018213E+01
 -0.816767460961E+01
 -0.808513254999E+01
 -0.833718859207E+01
 -0.820352061599E+01
 -0.845558109956E+01
 -0.826901746169E+01
 -0.852108178544E+01
 -0.830066131992E+01
 -0.855272765072E+01
 -0.831494692991E+01
 -0.856701407470E+01
 -0.832119855879E+01
 -0.857326601864E+01
 -0.832389679358E+01
 -0.857596437952E+01
 -0.832505534771E+01
 -0.857712298576E+01
 -0.832555024576E+01
 -0.857761790573E+01
 -0.832576261583E+01
 -0.857783028511E+01
 -0.832585268350E+01
 -0.857792035673E+01
 -0.832589155481E+01
 -0.857795922974E+01
 -0.832590767218E+01
 -0.857797534782E+01
 -0.832591536644E+01
 -0.857798274848E+01
 -0.837714742992E+01
 -0.855538498403E+01
 -0.847219645153E+01
 -0.120978940836E+02
 -0.122756707657E+02
 -0.121151739267E+02
 -0.122929503389E+02
 -0.121530088298E+02
 -0.123307832291E+02
 -0.122294342401E+02
 -0.124072049461E+02
 -0.123614551121E+02
 -0.125392215912E+02
 -0.125378902760E+02
 -0.127156551171E+02
 -0.127074030325E+02
 -0.128851703501E+02
 -0.128257923843E+02
 -0.130035640122E+02
 -0.128912903765E+02
 -0.130690653300E+02
 -0.129229348361E+02
 -0.131007115032E+02
 -0.129372206876E+02
 -0.131149980768E+02
 -0.129434724089E+02
 -0.131212500900E+02
 -0.129461706803E+02
 -0.131239484816E+02
 -0.129473283015E+02
 -0.131251061532E+02
 -0.129478241540E+02
 -0.131256020271E+02
 -0.129480365268E+02
 -0.131258144089E+02
 -0.129481265956E+02
 -0.131259044816E+02
 -0.129481654674E+02
 -0.131259433550E+02
 -0.129481815850E+02
 -0.131259594734E+02
 -0.129481891754E+02
 -0.131259669267E+02
 -0.129843213315E+02
 -0.131100289104E+02
 -0.130513581126E+02
 -0.158418469505E+02
 -0.159351417401E+02
 -0.158591269394E+02
 -0.159524216627E+02
 -0.158969626374E+02
 -0.159902551904E+02
 -0.159733868176E+02