# vtk DataFile Version 3.0
TriPan results file. Generated by TriPan, USU AeroLab (c) 2021.
ASCII
DATASET POLYDATA
POINTS                  40 float
     19.758197784400      0.757896304131      0.000000000000
     99.829590176054      0.757896304131      6.020598236873
     19.000301361100      0.000000000000      0.000000000000
     99.825329426760      0.000000000000      6.077264387850
     20.789274215700      1.788973569870      0.000000000000
     99.835386691307      1.788973569870      5.943507052738
     22.173099517800      3.172797679900      0.000000000000
     99.843166293504      3.172797679900      5.840041656830
     23.996917724600      4.996616363530      0.000000000000
     99.853419451982      4.996616363530      5.703679015864
     26.343925476100      7.343624591830      0.000000000000
     99.866613882401      7.343624591830      5.528198710771
     29.273138046300     10.272837638900      0.000000000000
     99.883081357387     10.272837638900      5.309188306918
     32.792423248300     13.792121887200      0.000000000000
     99.902866108286     13.792121887200      5.046059546240
     36.832305908200     17.832006454500      0.000000000000
     99.925577558908     17.832006454500      4.744006925730
     41.234233856200     22.233930587800      0.000000000000
     99.950324359160     22.233930587800      4.414885021970
     45.766368866000     26.766069412200      0.000000000000
     99.975803158707     26.766069412200      4.076027839358
     50.168296814000     31.167993545500      0.000000000000
    100.000549958960     31.167993545500      3.746905935599
     54.208179473900     35.207878112800      0.000000000000
    100.023261409582     35.207878112800      3.444853315089
     57.727462768600     38.727161407500      0.000000000000
    100.043046149758     38.727161407500      3.181724697014
     60.656677246100     41.656375885000      0.000000000000
    100.059513635467     41.656375885000      2.962714150558
     63.003684997600     44.003383636500      0.000000000000
    100.072708065885     44.003383636500      2.787233845465
     64.827507019000     45.827201843300      0.000000000000
    100.082961245809     45.827201843300      2.650870919290
     66.211326599100     47.211025238000      0.000000000000
    100.090740815838     47.211025238000      2.547405951203
     67.242401123000     48.242103576700      0.000000000000
    100.096537320367     48.242103576700      2.470314909679
     68.000297546400     49.000000000000      0.000000000000
    100.100798069663     49.000000000000      2.413648758695
POLYGONS                  38                 152
3                   0                   1                   3
3                   0                   3                   2
3                   4                   5                   1
3                   4                   1                   0
3                   6                   7                   5
3                   6                   5                   4
3                   8                   9                   7
3                   8                   7                   6
3                  10                  11                   9
3                  10                   9                   8
3                  12                  13                  11
3                  12                  11                  10
3                  14                  15                  13
3                  14                  13                  12
3                  16                  17                  15
3                  16                  15                  14
3                  18                  19                  17
3                  18                  17                  16
3                  20                  21                  19
3                  20                  19                  18
3                  22                  23                  21
3                  22                  21                  20
3                  24                  25                  23
3                  24                  23                  22
3                  26                  27                  25
3                  26                  25                  24
3                  28                  29                  27
3                  28                  27                  26
3                  30                  31                  29
3                  30                  29                  28
3                  32                  33                  31
3                  32                  31                  30
3                  34                  35                  33
3                  34                  33                  32
3                  36                  37                  35
3                  36                  35                  34
3                  38                  39                  37
3                  38                  37                  36
POINT_DATA                  40
SCALARS mu float 1
LOOKUP_TABLE default
     -2.201458771060
     -2.201458771060
     -2.153123526220
     -2.153123526220
     -2.219442868682
     -2.219442868682
     -2.319049772148
     -2.319049772148
     -2.379386836227
     -2.379386836227
     -2.426699130796
     -2.426699130796
     -2.468006270366
     -2.468006270366
     -2.525279890940
     -2.525279890940
     -2.570675850871
     -2.570675850871
     -2.587625846425
     -2.587625846425
     -2.591421702206
     -2.591421702206
     -2.543738005549
     -2.543738005549
     -2.443461061560
     -2.443461061560
     -2.294348792360
     -2.294348792360
     -2.092560203434
     -2.092560203434
     -1.833787494148
     -1.833787494148
     -1.515169405706
     -1.515169405706
     -1.128850305169
     -1.128850305169
     -0.661539314272
     -0.661539314272
      0.000000000000
      0.000000000000
