# vtk DataFile Version 3.0
TriPan results file. Generated by TriPan, USU AeroLab (c) 2021.
ASCII
DATASET POLYDATA
POINTS                 144 float
      0.000000000000      0.000000000000      0.000000000000
      0.750993072987      0.000000000000     -0.543790996075
      0.750993072987      0.000000000000      0.543790996075
      1.923753738400      1.923753738400      0.000000000000
      2.674746751790      1.923753738400     -0.543790996075
      2.674746751790      1.923753738400      0.543790996075
      3.592464447020      0.000000000000     -1.038844943050
      3.592464447020      0.000000000000      1.038844943050
      5.470331668850      5.470331668850      0.000000000000
      5.516218185420      1.923753738400     -1.038844943050
      5.516218185420      1.923753738400      1.038844943050
      6.221324920650      5.470331668850     -0.543790996075
      6.221324920650      5.470331668850      0.543790996075
      9.062796592710      5.470331668850     -1.038844943050
      9.062796592710      5.470331668850      1.038844943050
      9.395236968990      0.000000000000     -0.980761349201
      9.395236968990      0.000000000000      0.980761349201
     11.318990707400      1.923753738400     -0.980761349201
     11.318990707400      1.923753738400      0.980761349201
     11.382001876800     11.382001876800      0.000000000000
     12.132995605500     11.382001876800     -0.543790996075
     12.132995605500     11.382001876800      0.543790996075
     14.865568161000      5.470331668850     -0.980761349201
     14.865568161000      5.470331668850      0.980761349201
     14.974466323900     11.382001876800     -1.038844943050
     14.974466323900     11.382001876800      1.038844943050
     15.176529884300      0.000000000000     -0.411069482565
     15.176529884300      0.000000000000      0.411069482565
     17.100284576400      1.923753738400     -0.411069482565
     17.100284576400      1.923753738400      0.411069482565
     18.049325943000      0.000000000000     -0.101516798139
     18.049325943000      0.000000000000      0.101516798139
     19.000301361100      0.000000000000      0.000000000000
     19.756195068400     19.756195068400      0.000000000000
     19.973079681400      1.923753738400     -0.101516798139
     19.973079681400      1.923753738400      0.101516798139
     20.507186889600     19.756195068400     -0.543790996075
     20.507186889600     19.756195068400      0.543790996075
     20.646862030000      5.470331668850     -0.411069482565
     20.646862030000      5.470331668850      0.411069482565
     20.777238845800     11.382001876800     -0.980761349201
     20.777238845800     11.382001876800      0.980761349201
     20.924055099500      1.923753738400      0.000000000000
     23.348659515400     19.756195068400     -1.038844943050
     23.348659515400     19.756195068400      1.038844943050
     23.519659042400      5.470331668850     -0.101516798139
     23.519659042400      5.470331668850      0.101516798139
     24.470632553100      5.470331668850      0.000000000000
     26.558532714800     11.382001876800     -0.411069482565
     26.558532714800     11.382001876800      0.411069482565
     29.151432037400     19.756195068400     -0.980761349201
     29.151432037400     19.756195068400      0.980761349201
     29.243804931600     29.243804931600      0.000000000000
     29.431327819800     11.382001876800     -0.101516798139
     29.431327819800     11.382001876800      0.101516798139
     29.994798660300     29.243804931600     -0.543790996075
     29.994798660300     29.243804931600      0.543790996075
     30.382303237900     11.382001876800      0.000000000000
     32.836269378700     29.243804931600     -1.038844943050
     32.836269378700     29.243804931600      1.038844943050
     34.932723999000     19.756195068400     -0.411069482565
     34.932723999000     19.756195068400      0.411069482565
     37.617996215800     37.617996215800      0.000000000000
     37.805519104000     19.756195068400     -0.101516798139
     37.805519104000     19.756195068400      0.101516798139
     38.368991851800     37.617996215800     -0.543790996075
     38.368991851800     37.617996215800      0.543790996075
     38.639041900600     29.243804931600     -0.980761349201
     38.639041900600     29.243804931600      0.980761349201
     38.756496429400     19.756195068400      0.000000000000
     41.210460662800     37.617996215800     -1.038844943050
     41.210460662800     37.617996215800      1.038844943050
     43.529666900600     43.529666900600      0.000000000000
     44.280662536600     43.529666900600     -0.543790996075
     44.280662536600     43.529666900600      0.543790996075
     44.420333862300     29.243804931600     -0.411069482565
     44.420333862300     29.243804931600      0.411069482565
     47.013233184800     37.617996215800     -0.980761349201
     47.013233184800     37.617996215800      0.980761349201
     47.076248168900     47.076248168900      0.000000000000
     47.122131347700     43.529666900600     -1.038844943050
     47.122131347700     43.529666900600      1.038844943050
     47.293132782000     29.243804931600     -0.101516798139
     47.293132782000     29.243804931600      0.101516798139
     47.827239990200     47.076248168900     -0.543790996075
     47.827239990200     47.076248168900      0.543790996075
     48.244106292700     29.243804931600      0.000000000000
     49.000000000000     49.000000000000      0.000000000000
     49.750991821300     49.000000000000     -0.543790996075
     49.750991821300     49.000000000000      0.543790996075
     50.135513305700     49.384517669700     -0.384518325329
     50.135513305700     49.384517669700      0.384518325329
     50.294784545900     49.543792724600     -0.000000000000
     50.668708801300     47.076248168900     -1.038844943050
     50.668708801300     47.076248168900      1.038844943050
     52.592464447000     49.000000000000     -1.038844943050
     52.592464447000     49.000000000000      1.038844943050
     52.794528961200     37.617996215800     -0.411069482565
     52.794528961200     37.617996215800      0.411069482565
     52.924903869600     43.529666900600     -0.980761349201
     52.924903869600     43.529666900600      0.980761349201
     53.327037811300     49.734573364300     -0.734574317932
     53.327037811300     49.734573364300      0.734574317932
     53.631309509300     50.038845062300     -0.000000000000
     55.667324066200     37.617996215800     -0.101516798139
     55.667324066200     37.617996215800      0.101516798139
     56.471481323200     47.076248168900     -0.980761349201
     56.471481323200     47.076248168900      0.980761349201
     56.618297576900     37.617996215800      0.000000000000
     58.395236969000     49.000000000000     -0.980761349201
     58.395236969000     49.000000000000      0.980761349201
     58.706199646000     43.529666900600     -0.411069482565
     58.706199646000     43.529666900600      0.411069482565
     59.088741302500     49.693504333500     -0.693503022194
     59.088741302500     49.693504333500      0.693503022194
     59.375999450700     49.980762481700      0.000000000000
     61.578994751000     43.529666900600     -0.101516798139
     61.578994751000     43.529666900600      0.101516798139
     62.252777099600     47.076248168900     -0.411069482565
     62.252777099600     47.076248168900      0.411069482565
     62.529968261700     43.529666900600      0.000000000000
     64.176528930700     49.000000000000     -0.411069482565
     64.176528930700     49.000000000000      0.411069482565
     64.467201232900     49.290668487500     -0.290670007467
     64.467201232900     49.290668487500      0.290670007467
     64.587600708000     49.411067962600      0.000000000000
     65.125572204600     47.076248168900     -0.101516798139
     65.125572204600     47.076248168900      0.101516798139
     66.076545715300     47.076248168900      0.000000000000
     67.049324035600     49.000000000000     -0.101516798139
     67.049324035600     49.000000000000      0.101516798139
     67.121109008800     49.071784973100     -0.071783214807
     67.121109008800     49.071784973100      0.071783214807
     67.150840759300     49.101516723600     -0.000000000000
     68.000297546400     49.000000000000      0.000000000000
     20.924055099500      1.923753738400      0.000000000000
     19.000301361100      0.000000000000      0.000000000000
     24.470632553100      5.470331668850      0.000000000000
     30.382303237900     11.382001876800      0.000000000000
     38.756496429400     19.756195068400      0.000000000000
     48.244106292700     29.243804931600      0.000000000000
     56.618297576900     37.617996215800      0.000000000000
     62.529968261700     43.529666900600      0.000000000000
     66.076545715300     47.076248168900      0.000000000000
POLYGONS                 256                1024
3                  32                  34                  42
3                  32                  30                  34
3                  30                  28                  34
3                  30                  26                  28
3                  26                  17                  28
3                  26                  15                  17
3                  15                   6                  17
3                  17                   6                   9
3                   6                   1                   9
3                   9                   1                   4
3                   1                   0                   4
3                   4                   0                   3
3                   0                   5                   3
3                   0                   2                   5
3                   2                  10                   5
3                   2                   7                  10
[...]
CELL_DATA                 256
SCALARS sigma float 1
LOOKUP_TABLE default
      0.000000000000
      0.000000000000
      0.000000000000
      0.000000000000
      0.000000000000
      0.000000000000
      0.000000000000
      0.000000000000
      0.000000000000
      0.000000000000
      0.000000000000
      0.000000000000
      0.000000000000
      0.000000000000
      0.000000000000
      0.000000000000
      0.000000000000
      0.000000000000
      0.000000000000
      0.000000000000
      0.000000000000
      0.000000000000
      0.000000000000
      0.000000000000
      0.000000000000
      0.000000000000
      0.000000000000
      0.000000000000
      0.000000000000
      0.000000000000
      0.000000000000
      0.000000000000
      0.000000000000
      0.000000000000
      0.000000000000
      0.000000000000
      0.000000000000
      0.000000000000
      0.000000000000
      0.000000000000
      0.000000000000
      0.000000000000
      0.000000000000
      0.000000000000
      0.000000000000
      0.000000000000
      0.000000000000
      0.000000000000
      0.000000000000
      0.000000000000
      0.000000000000
      0.000000000000
      0.000000000000
      0.000000000000
      0.000000000000
      0.000000000000
      0.000000000000
      0.000000000000
      0.000000000000
      0.000000000000
      0.000000000000
      0.000000000000
      0.000000000000
      0.000000000000
      0.000000000000
      0.000000000000
      0.000000000000
      0.000000000000
      0.000000000000
      0.000000000000
      0.000000000000
      0.000000000000
      0.000000000000
      0.000000000000
      0.000000000000
      0.000000000000
      0.000000000000
      0.000000000000
      0.000000000000
      0.000000000000
      0.000000000000
      0.000000000000
      0.000000000000
      0.000000000000
      0.000000000000
      0.000000000000
      0.000000000000
      0.000000000000
      0.000000000000
      0.000000000000
      0.000000000000
      0.000000000000
      0.000000000000
      0.000000000000
      0.000000000000
      0.000000000000
      0.000000000000
      0.000000000000
      0.000000000000
      0.000000000000
      0.000000000000
      0.000000000000
      0.000000000000
      0.000000000000
      0.000000000000
      0.000000000000
      0.000000000000
      0.000000000000
      0.000000000000
      0.000000000000
      0.000000000000
      0.000000000000
      0.000000000000
      0.000000000000
      0.000000000000
      0.000000000000
      0.000000000000
      0.000000000000
      0.000000000000
      0.000000000000
      0.000000000000
      0.000000000000
      0.000000000000
      0.000000000000
      0.000000000000
      0.000000000000
      0.000000000000
      0.000000000000
      0.000000000000
      0.000000000000
      0.000000000000
      0.000000000000
      0.000000000000
      0.000000000000
      0.000000000000
      0.000000000000
      0.000000000000
      0.000000000000
      0.000000000000
      0.000000000000
      0.000000000000
      0.000000000000
      0.000000000000
      0.000000000000
      0.000000000000
      0.000000000000
      0.000000000000
      0.000000000000
      0.000000000000
      0.000000000000
      0.000000000000
      0.000000000000
      0.000000000000
      0.000000000000
      0.000000000000
      0.000000000000
      0.000000000000
      0.000000000000
      0.000000000000
      0.000000000000
      0.000000000000
      0.000000000000
      0.000000000000
      0.000000000000
      0.000000000000
      0.000000000000
      0.000000000000
      0.000000000000
      0.000000000000
      0.000000000000
      0.000000000000
      0.000000000000
      0.000000000000
      0.000000000000
      0.000000000000
      0.000000000000
      0.000000000000
      0.000000000000
      0.000000000000
      0.000000000000
      0.000000000000
      0.000000000000
      0.000000000000
      0.000000000000
      0.000000000000
      0.000000000000
      0.000000000000
      0.000000000000
      0.000000000000
      0.000000000000
      0.000000000000
      0.000000000000
      0.000000000000
      0.000000000000
      0.000000000000
      0.000000000000
      0.000000000000
      0.000000000000
      0.000000000000
      0.000000000000
      0.000000000000
      0.000000000000
      0.000000000000
      0.000000000000
      0.000000000000
      0.000000000000
      0.000000000000
      0.000000000000
      0.000000000000
      0.000000000000
      0.000000000000
      0.000000000000
      0.000000000000
      0.000000000000
      0.000000000000
      0.000000000000
      0.000000000000
      0.000000000000
      0.000000000000
      0.000000000000
      0.000000000000
      0.000000000000
      0.000000000000
      0.000000000000
      0.000000000000
      0.000000000000
      0.000000000000
      0.000000000000
      0.000000000000
      0.000000000000
      0.000000000000
      0.000000000000
      0.000000000000
      0.000000000000
      0.000000000000
      0.000000000000
      0.000000000000
      0.000000000000
      0.000000000000
      0.000000000000
      0.000000000000
      0.000000000000
      0.000000000000
      0.000000000000
      0.000000000000
      0.000000000000
      0.000000000000
      0.000000000000
      0.000000000000
      0.000000000000
      0.000000000000
      0.000000000000
      0.000000000000
      0.000000000000
      0.000000000000
      0.000000000000
SCALARS C_p float 1
LOOKUP_TABLE default
      0.178729402241
      0.432808055022
      0.117264732698
      0.081240551176
     -0.025663662818
     -0.059227585760
     -0.057111290796
     -0.075952305428
      0.140520288740
      0.042205341099
      0.542482171955
      0.527713376241
     -0.080764395942
      0.257602864114
     -0.441328379214
     -0.241239217060
     -0.364943950781
     -0.352992771595
     -0.286703491428
     -0.243415728962
     -0.177142848095
     -0.110787808867
     -0.525101231022
      0.040544890510
      0.137551726182
      0.187649871154
      0.073989450036
      0.114590698461
     -0.011349154395
     -0.024903889952
     -0.076229836428
     -0.078705411939
      0.042818711106
      0.031434858162
      0.456408004083
      0.464160310905
     -0.264436969648
     -0.103095231477
     -0.538443531321
     -0.427098421486
     -0.383996159457
     -0.374066940428
     -0.244239209007
     -0.194975134342
     -0.110769962940
     -0.019066890794
      0.045635588393
      0.115498599088
      0.136075286964
      0.139728216312
      0.062791771015
      0.074664464507
     -0.018025922701
     -0.011228580452
     -0.078893165917
     -0.071526405072
      0.031128423118
      0.044384365864
      0.461996176478
      0.470707156024
     -0.363668106906
     -0.266567402496
     -0.588328395089
     -0.538106078209
     -0.377816992797
     -0.393518712996
     -0.195335229690
     -0.159003203961
     -0.018684453712
      0.007028416370
      0.113474273549
      0.122137061457
      0.131192476390
      0.136188906727
      0.057396273632
      0.062898757174
     -0.023507453987
     -0.018027703145
     -0.071533652792
     -0.072008059529
      0.044660588522
      0.054656026395
      0.476463178382
      0.480712387211
     -0.398935368331
     -0.363386670566
     -0.599596085692
     -0.592218974063
     -0.370504532914
     -0.384148485033
     -0.158858524453
     -0.144808495304
      0.007000436729
      0.017702807071
      0.121907018739
      0.130230976259
      0.126836465716
      0.130622491290
      0.050872915105
      0.057174721971
     -0.030526179155
     -0.023488553320
     -0.071746211269
     -0.078170069690
      0.054642421087
      0.052122299146
      0.482583512963
      0.482591869384
     -0.396114266397
     -0.398788659641
     -0.593347911038
     -0.601704935675
     -0.360937028957
     -0.373147094092
     -0.144875943474
     -0.133094054268
      0.017737256342
      0.029819223236
      0.130675072439
      0.140350236471
      0.125541531288
      0.125109539316
      0.044545875353
      0.050079622471
     -0.043124058084
     -0.030493784266
     -0.077523165279
     -0.093930503858
      0.051659410027
      0.036979296834
      0.480320840176
      0.477238553783
     -0.368573984529
     -0.396104754069
     -0.573233819716
     -0.594409287352
     -0.342978198590
     -0.363011361397
     -0.133162726465
     -0.110279400473
      0.029928455717
      0.061054345515
      0.141790568179
      0.173404605167
      0.254709905525
      0.121383211581
      0.064294302188
      0.041440967566
     -0.060803001067
     -0.043445768214
     -0.092475486608
     -0.127070535124
      0.035555574071
      0.003862134181
      0.469066332088
      0.463001706899
     -0.326731944349
     -0.368797798341
     -0.545836791689
     -0.573385040871
     -0.317438393913
     -0.345291852638
     -0.109717050584
     -0.070736774563
      0.061253100864
      0.138266538226
      0.176684330393
      0.353533678162
    -22.027353503451
     -0.457828357717
      0.182675922025
     -0.039270971049
     -0.350697550008
     -0.064590599394
     -0.126146509606
     -0.166113610473
     -0.000920167047
     -0.060136113269
      0.441163174669
      0.432344208995
     -0.282136411013
     -0.327932852648
     -0.518259829723
     -0.543318661600
     -0.278433319070
     -0.321157216075
     -0.069273197353
     -0.271267171381
      0.091884287222
      0.198172121939
     -0.610965550099
    -21.781065277126
********************
 -31001.918914315258
 -18165.801987658677
      0.528095637072
     -0.941958311246
     -0.335016611685
     -0.184661765628
     -0.216602968070
     -0.077788753916
     -0.099005607638
      0.337357399151
      0.324418670808
     -0.254259376820
     -0.292199529340
     -0.382496970524
     -0.522897888792
     -0.267319359985
     -0.283745100653
     -0.288340540267
     -1.640160500998
      0.271710861870
 -18105.310418002762
 -30904.969946017285
********************
********************
-785158.945962947677
 -31186.641095553950
    -78.709651091798
     -0.102038242839
     -0.327505028658
     -0.285145458605
     -0.179225125603
     -0.195718200927
     -0.000954202158
     -0.308949741483
     -0.299145104862
     -0.402896587665
     -0.321842381931
     -0.284270451833
      0.593570482790
    -91.836851164724
 -31332.162630134899
-783326.981749028782
********************
********************
********************
 -32648.912260253150
   -100.692248543786
      0.023004106978
     -0.425406323423
     -0.367678414725
     -0.259297989402
     -0.272528650831
     -0.164034026429
     -0.270692216964
     -0.305526969237
     -0.323001764377
     -0.383381111237
     -0.340592163049
      0.838141760218
   -121.371737494521
 -32784.520137785286
********************
********************
VECTORS v float
    145.124792132009     24.349743389899     12.892758330049
    116.193485535727     38.735329684487      8.268672167657
    152.270921297218      2.657893922996     16.121273030640
    155.330981131814      4.193930361312     16.285485701970
    164.172221008180     -4.647313898094     16.635569728360
    166.955043046509      0.853526869708     16.367737146000
    167.581419456448      0.227150459766      1.675153963471
    168.981609833011     -5.398669720106      1.745481714900
    148.554612906980     15.028327205925    -23.263551188762
    156.810660601720     -6.769737570252    -28.499713458494
     89.838494110834     60.202426845868    -21.459355793864
     94.763881708721     50.324256523317    -32.178552415135
    139.173203727850      5.914934504187     96.491772445737
    121.145887357193     42.069836442905     57.258644250940
    190.110294295569    -26.894568358986     37.807564097237
    178.961658424149      2.540664538771     30.736860540054
    190.223981000387     -8.721658037467     -1.991371823061
    189.499540999616     -5.810933007741     -1.954985173682
    184.001235968750     -0.312627976846    -18.162392173556
    180.686534420488     -6.864841855591    -18.481415752379
    175.797240378425     -1.975545389662    -19.155569080135
    170.690974131657     -4.538701982457    -18.881547290934
    197.360384954584    -31.208112805383    -24.399728538086
    158.193099103424    -11.732864818863    -18.139627428582
    149.901686863451     15.420075208282     14.355965419299
    145.063785725473     18.935224461400     13.464245946159
    155.830976994613      8.168028849198     15.911134957152
    152.341328848229      8.792305462915     15.467857705638
    163.101441471715     -1.967805713835     16.266014067690
    164.204736192847     -1.266255123514     16.305602163835
    168.981545276033     -6.043063564441      1.751931203191
    169.158657054518     -6.510064300362      1.758378835684
    157.171452995908      5.477141369936    -26.428865851238
    158.102917350819      3.734364389920    -26.894782045261
     99.050566453277     62.786719257112    -26.258501665852
     96.794266356328     66.144044593328    -22.193694260864
    151.892918328767     11.045392620890    101.987089918330
    144.646663889976     21.827653580130     88.932746330016
    196.090407014640    -29.616093002713     39.323599730306
    190.346709630021    -18.869589540856     36.450606086050
    190.773723547035    -19.296603515282     -2.102726182465
    190.223067034842    -17.844656067055     -2.082680466381
    180.672786826606     -8.294377142888    -18.620927802445
    176.898888498250    -10.694081002029    -18.485513894445
    170.691570260164     -4.486763598540    -18.876014936852
    163.531395717423     -3.205855337158    -17.966450060781
    158.347581788613      1.977960682600    -16.692485292221
    152.372228128834      6.319568496292    -15.591179233715
    150.221589665921     13.152570226995     14.632142540122
    149.879361023543     13.438595430063     14.565106002393
    156.831652898161      6.486305237814     16.200183007864
    155.817559267853      6.998981543021     16.035657881006
    163.659556197764     -0.843016019445     16.210173638483
    163.112323877899     -0.836208491937     16.155578248193
    169.158619742471     -6.882504844218      1.762106450879
    168.619493526059     -5.814025484137      1.746014617386
    158.130623787853      4.674843408170    -26.735754819142
    157.035822863333      6.336074818690    -26.255595154120
     96.905238712847     66.466663819967    -22.040437786440
     94.058318602196     70.107364216189    -17.342772442400
    156.607929205023      7.557753613363    107.926525019653
    152.500171989872     12.810830915887    101.148452638727
    198.636500088757    -33.325500904859     40.413474869687
    196.094749595369    -29.468691071434     39.298674527301
    189.897608600398    -23.271550576245     -2.133743948606
    190.773151488019    -25.006764845777     -2.159877050262
    176.894712416406    -11.128324654694    -18.527893218739
    174.175669573190    -11.094499973145    -18.256624143706
    163.562664483808     -0.481494027691    -17.676260948642
    161.496842312716      0.562886724221    -17.341138573779
    152.409752623567      9.649974214409    -15.239663020185
    151.625022555830     10.305828134131    -15.085849513909
    150.687524896681     12.625572562042     14.738108860747
    150.220305445111     13.038595604089     14.644172691240
    157.297759302417      5.961143358823     16.306995252134
    156.829123563104      6.265931300984     16.223656431732
    164.097183149582     -1.002126630040     16.268981823330
    163.659293215874     -0.870362014843     16.212842406777
    168.619491869475     -5.830560668443      1.746180116540
    168.654777545688     -5.890303626313      1.747131317779
    157.018440259746      5.746033659490    -26.355366420269
    156.182108455871      6.886504753886    -26.010941644891
     93.777533290882     69.291065704165    -17.730546439083
     92.179823243595     71.196787689387    -15.193755088394
    157.939253400242      5.437357532740    110.426179774639
    156.478077806353      7.180244215610    108.105854186131
    198.965207322410    -35.306875622596     40.815918581637
    198.593078537128    -34.799421164568     40.662702389747
    189.121233903355    -25.327576530908     -2.146552800308
    189.897270989663    -26.641502064676     -2.167472548541
    174.177332684740    -10.921563759753    -18.239746710189
    173.135920056798    -10.608193048299    -18.106251352982
    161.502152766321      1.025571592341    -17.291855056340
    160.631388801740      1.591892797934    -17.137004635065
    151.628280665275     10.594998883751    -15.055328634135
    150.863521887566     11.271046399767    -14.901492156894
    151.047893292140     12.887710238578     14.748654148692
    150.694056982853     13.205312833379     14.676918339057
    157.839021081985      6.060345861384     16.354606400284
    157.303149481387      6.430773016841     16.256971845651
    164.660100814070     -0.926178315919     16.316968088071
    164.099973760392     -0.711947520709     16.240662416314
    168.654840008531     -5.266813768848      1.740891041524
    169.134126526815     -6.039316224826      1.753420983421
    156.182858179553      6.911952122572    -26.006638438476
    156.394908908086      6.631919325684    -26.092388692715
     92.090308624930     70.936532537389    -15.317377485566
     92.086975376685     70.940431416651    -15.312112157683
    157.735996825415      5.291409967922    110.384402113421
    157.845149635830      5.163773835359    110.556139920960
    198.519833286729    -35.510917993254     40.773902725406
    198.942742987902    -36.069406440253     40.944857643638
    188.418646116294    -25.545309568534     -2.141699584713
    189.121098663928    -26.677505650740     -2.160063734822
    173.135118635537    -10.691525622350    -18.114384258795
    172.261618989838    -10.357439770826    -17.995388082449
    160.627767874916      1.276411344219    -17.170608546062
    159.637785486345      1.960745534989    -16.990173036663
    150.857549648580     10.740984903132    -14.957438206830
    149.961359194058     11.545405490588    -14.775957766665
    151.025860341653     14.577774002467     14.565887147742
    151.066530575391     14.541821438972     14.574066661631
    158.327346437307      7.281005577054     16.275717055016
    157.856545491433      7.587200974538     16.191971388349
    165.672726340206     -0.228983434744     16.348040030236
    164.669708183838      0.072834444736     16.219471506384
    169.134291584410     -4.391748955836      1.736931100250
    170.352155058788     -6.453740699633      1.769761230584
    156.419850968482      7.478563390508    -25.949228266050
    157.648167579100      5.803559183704    -26.455075546717
     92.195581338007     71.256160332232    -15.162123657614
     93.391702808153     69.829446665360    -17.061274558010
    156.600919923472      6.620229550042    108.600030546893
    157.729874757012      5.273610357296    110.392856896623
    197.437507286602    -34.434031216077     40.397742099117
    198.508531996749    -35.894540394523     40.838768958174
    187.267915217738    -24.653923615645     -2.121258754819
    188.418540247026    -26.602072452123     -2.152276328263
    172.260783515651    -10.444315720747    -18.003866560874
    170.540971413675     -9.926809610985    -17.783388636750
    159.626615695242      0.987551079270    -17.093834110943
    157.044650083311      2.666792523916    -16.634698430205
    149.941356231022      9.770086376207    -14.963338459621
    146.975678588971     12.391751017290    -14.366887462503
    137.086407747244     29.619582271165     11.472126095777
    151.063718045468     17.937751476231     14.211249549234
    156.403128286786     12.598341234912     15.495416915651
    158.376923162311     11.600485107362     15.815621633202
    167.075833277793      2.901574991880     16.177816059555