# vtk DataFile Version 3.0
TriPan results file. Generated by TriPan, USU AeroLab (c) 2021.
ASCII
DATASET POLYDATA
POINTS                  50 float
     19.580198288000      0.579897820950      0.000000000000
     99.828589496799      0.579897820950      6.033906844787
     19.000301361100      0.000000000000      0.000000000000
     99.825329426760      0.000000000000      6.077264387850
     20.321611404400      1.321311235430      0.000000000000
     99.832757580083      1.321311235430      5.978473112289
     21.262266159100      2.261965751650      0.000000000000
     99.838045761897      2.261965751650      5.908142546386
     22.444129943800      3.443829536440      0.000000000000
     99.844689974921      3.443829536440      5.819777342912
     23.911006927500      4.910706520080      0.000000000000
     99.852936477849      4.910706520080      5.710102366138
     25.704246521000      6.703944683070      0.000000000000
     99.863017729190      6.703944683070      5.576026016893
     27.856279373200      8.855978012080      0.000000000000
     99.875116047872      8.855978012080      5.415123531065
     30.382303237900     11.382001876800      0.000000000000
     99.889316872772     11.382001876800      5.226258607988
     33.271335601800     14.271034240700      0.000000000000
     99.905558462293     14.271034240700      5.010252384610
     36.479064941400     17.478763580300      0.000000000000
     99.923591705493     17.478763580300      4.770417930374
     39.925552368200     20.925249099700      0.000000000000
     99.942967201169     20.925249099700      4.512732089853
     43.500301361100     24.500000000000      0.000000000000
     99.963063758934     24.500000000000      4.245456430664
     47.075050354000     28.074750900300      0.000000000000
     99.983160316698     28.074750900300      3.978180771475
     50.521537780800     31.521236419700      0.000000000000
    100.002535812375     31.521236419700      3.720494930955
     53.729267120400     34.728965759300      0.000000000000
    100.020569055574     34.728965759300      3.480660476719
     56.618297576900     37.617996215800      0.000000000000
    100.036810634373     37.617996215800      3.264654395953
     59.144321441700     40.144020080600      0.000000000000
    100.051011459274     40.144020080600      3.075789472868
     61.296356201200     42.296054840100      0.000000000000
    100.063109788678     42.296054840100      2.914886844436
     63.089595794700     44.089294433600      0.000000000000
    100.073191040019     44.089294433600      2.780810495190
     64.556472778300     45.556171417200      0.000000000000
    100.081437542946     45.556171417200      2.671135518424
     65.738334655800     46.738033294700      0.000000000000
    100.088081745249     46.738033294700      2.582770457546
     66.678993225100     47.678688049300      0.000000000000
    100.093369948508     47.678688049300      2.512439606435
     67.420402526900     48.420101165800      0.000000000000
    100.097538010347     48.420101165800      2.457006159146
     68.000297546400     49.000000000000      0.000000000000
    100.100798069663     49.000000000000      2.413648758695
POLYGONS                  48                 192
3                   0                   1                   3
3                   0                   3                   2
3                   4                   5                   1
3                   4                   1                   0
3                   6                   7                   5
3                   6                   5                   4
3                   8                   9                   7
3                   8                   7                   6
3                  10                  11                   9
3                  10                   9                   8
3                  12                  13                  11
3                  12                  11                  10
3                  14                  15                  13
3                  14                  13                  12
3                  16                  17                  15
3                  16                  15                  14
3                  18                  19                  17
3                  18                  17                  16
3                  20                  21                  19
3                  20                  19                  18
3                  22                  23                  21
3                  22                  21                  20
3                  24                  25                  23
3                  24                  23                  22
3                  26                  27                  25
3                  26                  25                  24
3                  28                  29                  27
3                  28                  27                  26
3                  30                  31                  29
3                  30                  29                  28
3                  32                  33                  31
3                  32                  31                  30
3                  34                  35                  33
3                  34                  33                  32
3                  36                  37                  35
3                  36                  35                  34
3                  38                  39                  37
3                  38                  37                  36
3                  40                  41                  39
3                  40                  39                  38
3                  42                  43                  41
3                  42                  41                  40
3                  44                  45                  43
3                  44                  43                  42
3                  46                  47                  45
3                  46                  45                  44
3                  48                  49                  47
3                  48                  47                  46
POINT_DATA                  50
SCALARS mu float 1
LOOKUP_TABLE default
     -2.334811136736
     -2.334811136736
     -2.316657152216
     -2.316657152216
     -2.355624493717
     -2.355624493717
     -2.382773138726
     -2.382773138726
     -2.413921416175
     -2.413921416175
     -2.452055054721
     -2.452055054721
     -2.496009396016
     -2.496009396016
     -2.540976027820
     -2.540976027820
     -2.583943180078
     -2.583943180078
     -2.623642187795
     -2.623642187795
     -2.655403131091
     -2.655403131091
     -2.677334176241
     -2.677334176241
     -2.682498413576
     -2.682498413576
     -2.667179843736
     -2.667179843736
     -2.623616996469
     -2.623616996469
     -2.553120479497
     -2.553120479497
     -2.445196717389
     -2.445196717389
     -2.298790818134
     -2.298790818134
     -2.117195440254
     -2.117195440254
     -1.901198198424
     -1.901198198424
     -1.649006838184
     -1.649006838184
     -1.363708795512
     -1.363708795512
     -1.032391358186
     -1.032391358186
     -0.611738935604
     -0.611738935604
      0.000000000000
      0.000000000000
