# vtk DataFile Version 3.0
MachLine results file. Generated by MachLine, USU AeroLab (c) 2022.
ASCII
DATASET POLYDATA
POINTS                 125 float
  0.533011799034E+00 -0.266882875775E+00  0.802914660913E+00
 -0.695412037520E+00 -0.442623744953E+00 -0.566115110623E+00
  0.882054361437E+00 -0.438969609950E+00 -0.171130900220E+00
  0.733620438239E+00  0.612396468074E+00  0.294570226752E+00
  0.926231508298E+00  0.189668729582E+00 -0.325762131094E+00
  0.212605869903E+00 -0.975340369937E+00 -0.592444668640E-01
  0.554858039955E+00  0.435188019109E+00  0.709044387553E+00
 -0.229310223102E+00  0.739126287347E+00  0.633331787402E+00
  0.956142089546E+00 -0.283500473834E+00 -0.736191954188E-01
  0.362870290257E+00  0.873374621503E+00 -0.324872164034E+00
  0.164380773202E+00  0.467567400048E+00  0.868538823435E+00
  0.809449103955E+00 -0.168620593780E+00  0.562458214857E+00
 -0.842313491727E+00  0.538957917784E+00  0.568722357274E-02
 -0.166460363394E+00 -0.444759562930E-01 -0.985044586164E+00
  0.492920930887E+00  0.168641391899E+00  0.853574271421E+00
  0.627782365849E+00 -0.483838255167E+00 -0.609745720744E+00
 -0.117546237493E+00  0.984318594790E+00 -0.131528650881E+00
 -0.563023328388E+00  0.501252277218E+00 -0.657077534446E+00
  0.941791314863E+00 -0.302738587971E+00 -0.146213770222E+00
  0.656286584958E+00 -0.750317398122E+00 -0.794463371088E-01
  0.916500030133E+00  0.381271295385E+00  0.121078049547E+00
 -0.820592323080E+00 -0.359476421190E+00 -0.444302759287E+00
  0.426498972262E+00 -0.146455213328E+00 -0.892552237770E+00
 -0.570632778667E+00  0.305947775645E+00 -0.762085422042E+00
  0.738504427067E+00  0.311353538518E+00  0.598055336281E+00
 -0.686801321142E+00 -0.212553586835E+00  0.695071879737E+00
 -0.743854458223E+00  0.160913554263E+00  0.648681256887E+00
  0.407267905964E+00  0.820087389569E+00  0.401981997409E+00
 -0.190640465661E+00  0.212695488606E+00  0.958340671149E+00
 -0.492949221189E+00 -0.607555507528E+00 -0.622798017500E+00
  0.106948746428E+00 -0.985091687431E+00 -0.134745437740E+00
 -0.387041900628E+00  0.863377218875E+00 -0.323694833271E+00
 -0.313178977907E+00 -0.756899082128E+00  0.573605009803E+00
  0.119568712859E+00  0.442744879051E+00 -0.888639575407E+00
  0.811157351755E+00  0.471377367849E+00 -0.346160552018E+00
  0.227568914078E+00  0.882547476976E+00 -0.411487958789E+00
 -0.796324993271E+00 -0.461208291205E+00  0.391348204566E+00
  0.693868539747E+00 -0.654011232086E+00  0.301356529472E+00
  0.412453182825E+00 -0.711102434087E+00  0.569399420629E+00
 -0.702970037549E+00  0.233325582324E+00 -0.671857350143E+00
  0.732500850693E+00  0.574458137207E+00  0.365294884073E+00
 -0.632325971161E+00 -0.503153801787E-03 -0.774702273800E+00
  0.508904328753E+00  0.518741600012E+00  0.686966910843E+00
  0.485187107691E+00  0.722769730237E+00  0.492135537818E+00
  0.361975169129E+00  0.717292618654E+00 -0.595369865007E+00
  0.207246468214E+00 -0.923527067041E+00  0.322717613177E+00
  0.112883561451E+00 -0.942725100815E+00 -0.313889607740E+00
  0.443586791484E+00 -0.731651129096E+00  0.517607364431E+00
  0.163886435917E+00 -0.952158249778E+00 -0.257945543674E+00
  0.274244885367E+00  0.529769274716E+00 -0.802579752060E+00
  0.288730899279E+00  0.929104194437E+00 -0.231084105210E+00
 -0.605330208455E-01  0.558129755521E+00  0.827542705478E+00
  0.688150225609E+00  0.234566056371E+00 -0.686606169644E+00
 -0.102126876546E-02  0.986333976878E+00  0.164755100274E+00
 -0.608797242088E+00  0.659406758760E+00  0.441076687809E+00
  0.183211488593E-01 -0.922655387118E+00 -0.385190046766E+00
 -0.143863925907E+00  0.615474724378E-01  0.987681669091E+00
  0.538254775264E+00  0.842526079987E+00  0.207750197963E-01
 -0.863256356453E+00  0.437124500471E+00 -0.252409655384E+00
 -0.657216776848E+00  0.591920506171E+00 -0.466579277942E+00
  0.610578816505E+00 -0.741485291883E+00  0.278196101261E+00
  0.948357826370E+00  0.297842512313E+00 -0.109120442730E+00
 -0.581664260458E+00 -0.800945277047E+00 -0.141962499564E+00
 -0.234968400393E+00 -0.889956111388E+00 -0.390855434425E+00
  0.303982435748E+00 -0.369127545707E+00 -0.878259377267E+00
 -0.524660170625E+00 -0.540440798080E+00 -0.657765497066E+00
  0.966326552184E+00 -0.962761789409E-01 -0.238629193338E+00
 -0.184897911022E+00 -0.648310141823E+00 -0.738584269064E+00
  0.640967054113E+00 -0.562911486703E+00 -0.521815957671E+00
  0.973090550220E+00  0.107319118586E+00 -0.203905340437E+00
 -0.896480701307E+00  0.391424161410E+00  0.207628220741E+00
  0.860244637767E+00  0.314929205006E+00 -0.400997205760E+00
  0.728407418833E-01  0.592926562585E+00  0.801955309044E+00
  0.180061964598E+00 -0.977828762163E+00  0.106904634098E+00
  0.951749618590E-01 -0.676657195044E+00  0.730121063270E+00
  0.228608804766E+00  0.208507515285E+00  0.950927247718E+00
 -0.876637338818E-02 -0.921452923825E-01  0.995706982897E+00
 -0.170535341021E+00  0.833053368750E+00 -0.526250683874E+00
 -0.665364283570E-01  0.418739563315E+00  0.905665546334E+00
 -0.786500926353E+00  0.452434711806E+00 -0.420379738330E+00
  0.717395544552E+00  0.578494450859E+00 -0.388185268888E+00
  0.276408221855E+00  0.957684653109E+00 -0.802408878953E-01
  0.229112221106E+00  0.872692598357E+00  0.431178871134E+00
  0.425608674229E-01 -0.289426483155E+00  0.956253566484E+00
  0.179276010155E+00  0.636412856749E+00 -0.750225824634E+00
 -0.489459249523E+00  0.694784740772E+00  0.526976097225E+00
 -0.391964359198E+00  0.918955753660E+00 -0.434081090881E-01
 -0.657799537728E+00  0.734982454999E+00 -0.164622474187E+00
 -0.220058993646E+00 -0.975218958234E+00  0.228478186353E-01
  0.950158826727E+00  0.235682620060E+00  0.204087987386E+00
  0.272395187131E+00  0.939112023896E+00 -0.209450396521E+00
 -0.507152030629E+00 -0.854864289786E+00  0.109562146185E+00
 -0.677918701359E+00 -0.625717700858E+00  0.385880283484E+00
 -0.764760178690E+00 -0.544696559443E+00 -0.344162065344E+00
 -0.137783903450E+00 -0.367858549366E+00 -0.919617139688E+00
  0.664159263929E+00 -0.605383191397E+00 -0.438638420242E+00
  0.534055619918E+00  0.165789283917E+00  0.829034684541E+00
 -0.342454014579E+00  0.199838312680E+00  0.918035890738E+00
  0.648437734365E+00  0.664757540126E-01 -0.758359729139E+00
  0.758567562477E+00  0.584808256124E+00  0.287357889619E+00
 -0.477546334947E+00  0.371264588716E+00 -0.796311561604E+00
 -0.364238805676E+00  0.272972145665E+00  0.890402324869E+00
  0.557016461718E+00  0.658315382542E-01  0.827888198941E+00
 -0.560911374430E+00  0.530598203814E+00 -0.635487195893E+00
 -0.157310919154E+00 -0.987533941100E+00 -0.547630266828E-02
 -0.529285403977E+00 -0.118242556222E+00 -0.840164066736E+00
  0.240789273662E+00  0.698302842553E+00 -0.674087283496E+00
 -0.153470142646E+00  0.890912280471E+00 -0.427460201449E+00
 -0.979927058527E+00  0.161366241863E+00  0.117063640617E+00
 -0.178661453917E+00 -0.434678964187E+00 -0.882685834812E+00
 -0.584959481231E-01 -0.176647630684E+00  0.982534395646E+00
 -0.182488541514E+00  0.829326651506E+00 -0.528124263141E+00
  0.765659557938E+00 -0.627810248596E+00 -0.140070457615E+00
  0.878071722291E+00  0.377034596984E+00  0.294677727680E+00
  0.383334136769E+00 -0.955728128290E-01 -0.918651608084E+00
  0.586631488389E+00  0.772867090834E+00  0.241950318735E+00
 -0.766883867532E+00 -0.192183531720E+00 -0.612335385107E+00
 -0.966384254171E+00  0.751501332094E-01  0.245873810660E+00
 -0.118618554731E+00 -0.960199027065E+00  0.252878363836E+00
  0.681615549833E+00 -0.279566272664E+00  0.676197413049E+00
  0.684605658433E+00 -0.629168079981E+00  0.368052468507E+00
 -0.786260946011E+00  0.161967162332E+00  0.596288825239E+00
  0.624007496887E+00  0.682201436421E+00  0.381071966923E+00
  0.654691080170E+00 -0.714864286925E+00 -0.245659603567E+00
 -0.742866138815E+00 -0.631839355415E+00 -0.221198844369E+00
POLYGONS                 246                 984
3                  92                  25                  36
3                 117                  36                  25
3                  32                  25                  92
3                  53                  85                   7
3                  75                  56                  76
3                  28                  56                  75
3                  83                  32                  74
3                  36                 117                 124
3                  92                  36                 124
3                 109                  64                  67
3                  62                 124                  29
3                  58                 116                 108
3                 108                  12                  58
3                 105                 100                  13
3                   1                 116                 105
3                  69                   8                  66
3                  66                   4                  69
3                  74                  32                 118
3                 118                  45                  74
3                 118                  88                 104
3                  37                   8                 120
3                   2                   8                  37
3                  19                  37                  60
3                  60                  37                 120
3                   2                  37                 112
3                 112                  37                  19
3                 120                 119                  38
3                  74                  45                  38
3                 120                   8                  11
3                  11                 119                 120
3                 102                 119                  11
3                  97                  26                  25
3                  25                  56                  97
3                  97                  56                  28
3                 121                 117                  25
[...]
CELL_DATA                 246
NORMALS normals float
 -0.630037650228E+00 -0.473919435083E+00  0.615185279689E+00
 -0.880540571699E+00 -0.157984921684E+00  0.446865825625E+00
 -0.531401987585E+00 -0.514849365867E+00  0.672712463135E+00
 -0.289033789076E+00  0.897629448941E+00  0.332747413464E+00
  0.575680639292E-01  0.102457680555E+00  0.993070159511E+00
  0.192959752811E-01  0.196279673185E+00  0.980358075007E+00
 -0.217041318935E+00 -0.514085676205E+00  0.829824670274E+00
 -0.953305646343E+00 -0.302005764796E+00  0.928805788331E-03
 -0.806717191665E+00 -0.583702090041E+00  0.921913377383E-01
  0.834786478884E-01 -0.558929487419E+00 -0.825002511172E+00
 -0.565141757041E+00 -0.724028830796E+00 -0.395470664683E+00
 -0.957291354035E+00  0.184256947766E-01 -0.288537271877E+00
 -0.943152041622E+00  0.328119744978E+00 -0.529307031935E-01
 -0.389483917692E+00  0.122939422543E+00 -0.912791419901E+00
 -0.606643611208E+00 -0.308357424802E+00 -0.732734076968E+00
  0.999126716687E+00 -0.366239175243E-01  0.201120030535E-01
  0.939053058738E+00  0.272490802168E-01 -0.342690590039E+00
 -0.321450572212E-01 -0.852879511619E+00  0.521117293857E+00
 -0.140239418700E-01 -0.856857350910E+00  0.515362793812E+00
 -0.136700518274E+00 -0.982763657508E+00  0.124453050528E+00
  0.892568579179E+00 -0.367739371654E+00  0.260938854904E+00
  0.864126843294E+00 -0.488277313052E+00  0.121942872928E+00
  0.705654492245E+00 -0.700356853085E+00  0.107480304760E+00
  0.632010381692E+00 -0.693403096244E+00  0.346056387823E+00
  0.854127601751E+00 -0.508571705109E+00  0.108723781621E+00
  0.764017340101E+00 -0.639397522970E+00  0.863036015762E-01
  0.602727623600E+00 -0.524716522389E+00  0.601158866592E+00
  0.188139163278E+00 -0.816171825280E+00  0.546321523336E+00
  0.894189181167E+00 -0.356630964019E+00  0.270629015050E+00
  0.778612843632E+00 -0.411161903837E+00  0.474033678724E+00
  0.694020663983E+00 -0.645526303829E-01  0.717055280906E+00
 -0.558308070598E+00  0.177397088425E-01  0.829444031286E+00
 -0.413603783482E+00 -0.140953963382E+00  0.899479788820E+00
 -0.263459087115E+00  0.104624150055E+00  0.958980237879E+00
 -0.873336311679E+00 -0.106557889001E+00  0.475320000625E+00
 -0.777047948805E+00 -0.406833672509E-01  0.628125265283E+00
 -0.498691475127E-01  0.708662805738E+00  0.703782705024E+00
  0.342766376254E+00 -0.209535526637E-01  0.939186967510E+00
  0.377251510824E+00  0.372171535786E+00  0.848038705208E+00
  0.369769063809E+00  0.363598086755E+00  0.855024719384E+00
  0.389503728878E-01  0.490760782733E+00  0.870423300804E+00
  0.997760746938E+00 -0.222413050546E-01  0.630778583867E-01
  0.962552239363E+00 -0.119156462352E+00  0.243505490652E+00
 -0.314953297260E+00  0.900430017947E+00  0.300050334652E+00
 -0.208126678374E+00  0.975205207543E+00  0.752202694028E-01
 -0.916770111290E+00  0.830533444304E-01 -0.390684917836E+00
 -0.404809951400E+00 -0.911284456718E+00 -0.754290540331E-01
 -0.746049675040E+00 -0.660251719274E+00  0.864728256108E-01
 -0.739186008939E+00 -0.669254928974E+00  0.755108219590E-01
 -0.325502955400E+00 -0.923309809313E+00  0.203830375686E+00
 -0.476490966986E+00 -0.798565206212E+00  0.367763469920E+00
 -0.359478546216E+00 -0.871256129737E+00  0.334197443446E+00
 -0.355376153592E+00 -0.429207290127E+00  0.830354678171E+00
 -0.295799230516E+00 -0.460130089845E+00  0.837127896827E+00
  0.510181366703E-01 -0.183067545110E+00  0.981775648332E+00
 -0.140041176507E+00 -0.715307139193E-01  0.987558517683E+00
 -0.402671443446E+00 -0.163776439610E+00  0.900573698518E+00
 -0.761363620388E+00 -0.321215693776E+00 -0.563157096752E+00
 -0.957383450216E+00  0.178182480597E-01 -0.288269733564E+00
 -0.970068474764E+00 -0.236253011337E+00 -0.561397266000E-01
 -0.956998294803E+00 -0.289409894518E+00 -0.199041879790E-01
  0.102079775920E+00 -0.174226076392E+00 -0.979400323490E+00
  0.909782518987E-01 -0.189725096408E+00 -0.977613085773E+00
  0.782277537810E-01 -0.518478440975E+00 -0.851504858931E+00
 -0.324120876221E+00 -0.215127252655E+00 -0.921230656656E+00
 -0.356668363566E+00 -0.275235176534E+00 -0.892767201475E+00
  0.365872585906E+00 -0.783585728922E+00 -0.502126135859E+00
  0.818020846974E+00 -0.386881407191E+00 -0.425634433154E+00
  0.786575424151E+00 -0.535414940017E+00 -0.307619804511E+00
  0.436985400168E+00 -0.878815085491E+00 -0.191644998769E+00
  0.697251218453E+00 -0.699661732059E+00 -0.155930109532E+00
  0.748663627102E+00 -0.591714021186E+00 -0.298960349523E+00
  0.271291107184E+00 -0.714481975075E+00 -0.644915996433E+00
  0.296398388151E+00 -0.741577751735E+00 -0.601839209119E+00
  0.212639285532E+00 -0.708836682150E+00 -0.672558616246E+00
 -0.935143213165E-01 -0.973314586745E+00 -0.209556166549E+00
 -0.321804491429E-01 -0.972412809324E+00 -0.231036245979E+00
 -0.631302088742E+00 -0.610654655524E+00 -0.478077989911E+00
 -0.576367849680E+00 -0.711639747612E+00 -0.401707569601E+00
 -0.755432081238E+00 -0.472911852432E+00 -0.453515987001E+00
 -0.947470173825E+00 -0.315142750481E+00 -0.546380502061E-01
 -0.349930079849E+00 -0.516809871228E+00 -0.781317154693E+00
 -0.355577269208E+00 -0.558475756698E+00 -0.749446218753E+00
 -0.427551006707E+00 -0.362459748220E+00 -0.828144351900E+00
 -0.617485620865E+00 -0.572686458538E+00 -0.539204718295E+00
 -0.585466397437E+00 -0.326913233389E+00 -0.741860388016E+00
  0.918195734459E+00 -0.388245799495E+00 -0.786243753296E-01
  0.852311160483E+00 -0.294702439404E+00 -0.432106651100E+00
  0.972929104487E+00 -0.180320184967E+00 -0.144546146732E+00
  0.453765591290E+00 -0.887910012693E+00  0.755817274239E-01
  0.455021343085E+00 -0.886874744021E+00  0.800547672175E-01
  0.420945828061E+00 -0.890799877589E+00  0.171114546215E+00
  0.584203659574E-01 -0.969833262487E+00  0.236665383644E+00
 -0.677833592881E-02 -0.994319763133E+00  0.106217996616E+00
  0.208469113799E-01 -0.999500947559E+00  0.237331438137E-01
  0.899816900217E-01 -0.995939736024E+00  0.270881334872E-02
  0.344582615311E+00 -0.508374508935E+00  0.789188304456E+00
  0.535873403667E+00 -0.502206625287E+00  0.678695956051E+00
  0.284794538251E+00 -0.454251195871E+00  0.844125536891E+00
  0.640254864217E+00 -0.103327340175E+00  0.761181430159E+00
  0.301204920151E+00 -0.111035602945E+00  0.947072695708E+00
  0.304903016742E+00 -0.996600414043E-01  0.947154700421E+00
  0.313407780326E+00 -0.935434195482E-01  0.945000101529E+00
  0.418532213777E+00 -0.847391642630E+00  0.326738718293E+00
  0.268657750014E+00 -0.829040847198E+00  0.490422559671E+00
  0.563879420473E+00 -0.709624324755E+00  0.422461024099E+00
  0.595894270722E+00 -0.556483984653E+00  0.578995330677E+00
 -0.571712158940E+00  0.431506122508E+00  0.697816360913E+00
 -0.561033853117E+00  0.141086177621E+00  0.815681130186E+00
 -0.396867609207E+00  0.528664370196E+00  0.750339979241E+00
 -0.333506767131E+00  0.527448190014E+00  0.781390838908E+00
 -0.268362013852E+00  0.269514603475E+00  0.924847937790E+00
 -0.936379445098E+00  0.238140285591E+00  0.257842469691E+00
 -0.885813004373E+00  0.243548942312E+00  0.394992701176E+00
 -0.939768894648E+00  0.341802338784E+00 -0.236344131024E-02
 -0.606864892490E+00  0.440060437553E+00  0.661862382647E+00
 -0.698226173223E+00  0.428119223425E+00  0.573754426179E+00
 -0.775013549779E+00  0.422985965559E+00  0.469507050638E+00
 -0.758636655612E+00  0.605999343845E+00  0.239238834687E+00
 -0.442513343428E+00  0.857791074633E+00  0.261488839472E+00
  0.501734905427E+00  0.319325049073E+00  0.803923875569E+00
  0.514839118818E+00  0.108507621438E+00  0.850392131799E+00
  0.372147788940E-01  0.487350999570E+00  0.872412782718E+00
 -0.225848235623E+00  0.366753307011E+00  0.902487997849E+00
 -0.277155586375E+00  0.478812769499E+00  0.833020475562E+00
  0.195403767354E-01  0.236573082594E+00  0.971417186521E+00
  0.838442747453E-01  0.320822072021E+00  0.943421080799E+00
  0.992625860091E+00  0.119862433677E+00  0.180803448747E-01
  0.950400739705E+00  0.228405093714E+00 -0.211115009258E+00
  0.910171132349E+00  0.325901765996E+00 -0.255688382135E+00
  0.895783841013E+00  0.368290956702E+00 -0.248863579882E+00
  0.884415758066E+00  0.968660509589E-01  0.456536674383E+00
  0.626646586351E+00  0.276184765712E+00  0.728722190552E+00
  0.750015284467E+00  0.620213981376E-01  0.658506202885E+00
  0.691211996438E+00  0.150668732075E+00  0.706770761389E+00
  0.297529414375E+00  0.608156377631E+00  0.735949772694E+00
  0.293110856040E+00  0.677888142320E+00  0.674205971920E+00
  0.372466885892E+00  0.423104513766E+00  0.825984860239E+00
  0.765075350911E+00  0.639250659036E+00 -0.775777181276E-01
  0.724253074126E+00  0.419150831576E+00 -0.547512616300E+00
  0.523188583795E+00  0.765628760424E+00  0.374281053486E+00
  0.603635256949E+00  0.586188594322E+00  0.540377098381E+00
 -0.270401576964E+00  0.610180311343E+00 -0.744689851431E+00
 -0.938634842827E-01  0.670879417709E+00 -0.735602102507E+00
 -0.194600182225E+00  0.860691746962E+00 -0.470468368532E+00
 -0.293878225541E+00  0.850735213266E+00 -0.435758173145E+00
 -0.229198883084E+00  0.935880502288E+00 -0.267573461744E+00
 -0.285122169296E+00  0.939217827689E+00 -0.191246492066E+00
 -0.452186571244E+00  0.724138876264E+00 -0.520720839481E+00
 -0.420567748341E+00  0.727564032733E+00 -0.542008622929E+00
 -0.418369000714E+00  0.124816099220E+00 -0.899660113941E+00
 -0.748071476946E+00  0.598197461472E+00 -0.287313178376E+00
 -0.907232011616E+00  0.117640411517E+00 -0.403845032999E+00
  0.129893732603E+00  0.118528258738E+00 -0.984417934676E+00
  0.370245115296E+00  0.231567592672E+00 -0.899608250642E+00
 -0.180166962706E+00  0.291646712283E+00 -0.939405163262E+00
  0.154127976092E+00  0.542619527162E+00 -0.825717031269E+00
 -0.191874664437E+00  0.584972565422E+00 -0.788029955555E+00
 -0.156007140265E+00  0.605724343864E+00 -0.780230601449E+00
  0.721405975798E+00  0.417838225623E+00 -0.552254140131E+00
  0.835550672532E+00  0.117853686283E+00 -0.536624246807E+00
  0.543152671558E+00  0.495163832500E+00 -0.678084031934E+00
  0.573150521969E+00  0.508696038104E+00 -0.642438183784E+00
  0.306058791805E+00 -0.684607489624E+00 -0.661544103677E+00
  0.824442132679E+00 -0.353764067680E+00 -0.441753499456E+00
  0.839150244213E+00 -0.296205257341E+00 -0.456168075561E+00
  0.377336339551E+00 -0.793314589691E+00 -0.477775311875E+00
  0.400309501835E+00 -0.805337785020E+00 -0.437245188379E+00
  0.429975924685E+00 -0.878571031992E+00 -0.207927020696E+00
  0.205520044157E+00 -0.964987417425E+00 -0.162974831373E+00
  0.697802577538E-01 -0.971299233030E+00 -0.227395064903E+00
 -0.487442814650E+00 -0.775247408043E+00 -0.401734935959E+00
 -0.120012175834E+00 -0.967887805611E+00 -0.220885204123E+00
 -0.315122441850E+00 -0.757481259850E+00 -0.571769173372E+00
 -0.918501279772E-01 -0.811466707496E+00 -0.577135457770E+00
 -0.269053128913E+00 -0.945171059485E+00 -0.185100194853E+00
 -0.361258803840E+00 -0.915759841048E+00 -0.175715651472E+00
  0.719566515164E-01  0.996790663880E+00 -0.350800898687E-01
  0.854421075902E-01  0.985829912652E+00 -0.144357298296E+00
  0.340465065936E+00  0.924501818272E+00  0.171405737621E+00
  0.336623986137E-01  0.951904347801E+00 -0.304540564716E+00
  0.550420864416E-01  0.958274336914E+00 -0.280500737846E+00
  0.402442546474E-01  0.859152702136E+00 -0.510134329742E+00
  0.596617941065E+00  0.767584803928E+00 -0.234223400149E+00
  0.533124935561E+00  0.732029684524E+00 -0.424158395012E+00
  0.354591301381E+00  0.809360399100E+00 -0.468188800970E+00
  0.263183636206E+00  0.713531396516E+00  0.649312959843E+00
  0.317933735779E+00  0.768698834642E+00  0.554995712843E+00
  0.401163798799E-01  0.789411947837E+00  0.612551591850E+00
 -0.669715890211E-01  0.895570962835E+00  0.439849356930E+00
  0.258332654779E+00  0.948838345290E+00  0.181576523762E+00
  0.305926013065E+00  0.934195223952E+00  0.183544430791E+00
  0.881597677246E+00  0.166564208093E+00  0.441635483241E+00
 -0.562579561494E+00  0.746709926308E+00 -0.354864090806E+00
 -0.747470703974E+00  0.599766085341E+00 -0.285601452335E+00
 -0.787020663058E+00  0.593009248278E+00 -0.170113219288E+00
 -0.504470901044E+00  0.845205353926E+00 -0.176456849385E+00
 -0.654178571962E+00  0.742206595490E+00  0.145532695970E+00
 -0.607243224439E+00  0.780881233556E+00  0.146561132135E+00
 -0.654107507331E+00  0.377809461874E+00 -0.655288775558E+00
 -0.705957598278E+00  0.400950732742E+00 -0.583834205359E+00
 -0.342451149130E+00  0.572646213524E+00 -0.744851343958E+00
 -0.554373009716E+00  0.410776804324E+00 -0.723832151212E+00
 -0.688165786673E+00  0.461454226707E+00 -0.559899854176E+00
 -0.692096178349E+00  0.456214121388E+00 -0.559349224868E+00
 -0.428164874068E+00  0.123055637271E+00 -0.895283279611E+00
 -0.613269346999E+00  0.155345036150E+00 -0.774447304712E+00
 -0.655664663370E+00 -0.164036154431E+00 -0.737018309981E+00
 -0.787992377030E+00  0.323552842964E-01 -0.614834245403E+00
  0.394444948165E+00  0.233762446679E+00 -0.888689091522E+00
  0.431324386834E+00  0.266090470557E+00 -0.862064460932E+00
  0.813042508110E+00 -0.180036450434E+00 -0.553668453608E+00
  0.846208988183E+00 -0.431810335401E-01 -0.531098622349E+00
  0.836203231890E+00  0.360418166727E-01 -0.547234083759E+00
  0.297803027753E+00 -0.223427769050E+00 -0.928112810319E+00
  0.526206757532E+00 -0.339566093659E+00 -0.779616133982E+00
  0.517412696091E+00 -0.268952755954E-05 -0.855736000129E+00
  0.650874920734E+00 -0.220603612890E+00 -0.726426791589E+00
  0.210804605845E-01  0.767400981756E+00 -0.640820838755E+00
  0.628739609664E-01  0.818474714953E+00 -0.571091941823E+00
  0.232151629360E+00  0.801700725729E+00 -0.550800841822E+00
  0.362472012829E+00  0.609506100905E+00 -0.705064786297E+00
  0.287661067448E+00  0.616132115295E+00 -0.733234155490E+00
  0.460261411730E+00  0.874053206762E+00 -0.155532712384E+00
  0.441317490168E+00  0.887571907479E+00 -0.132117303661E+00
  0.371972000105E+00  0.917103948857E+00 -0.143377746280E+00
  0.175215458684E+00  0.937295922419E+00 -0.301290386264E+00
  0.269712968380E+00  0.906318441952E+00 -0.325333362053E+00
  0.967599039558E+00  0.248666062665E+00  0.437868464827E-01
  0.918877172152E+00  0.333044907277E+00  0.211532106865E+00
  0.777893450866E+00  0.626014728565E+00 -0.546565524033E-01
  0.833565915035E+00  0.546209982743E+00 -0.825985474650E-01
  0.406709284604E+00  0.893085140877E+00  0.192318717138E+00
  0.525094969806E+00  0.770617915177E+00  0.361141664022E+00
  0.846382509403E+00  0.493834830136E+00  0.199408646554E+00
  0.776347461258E+00  0.629435751276E+00 -0.330946281761E-01
  0.787275358254E+00  0.418538000765E+00  0.452795154791E+00
  0.811605023870E+00  0.478609189647E+00  0.335008251860E+00
  0.632653397277E+00  0.558496957874E+00  0.536498673771E+00
  0.669355590829E+00  0.500780345275E+00  0.548800636672E+00
  0.662677138126E+00  0.509498076266E+00  0.548881335888E+00
  0.661844878944E+00  0.696852356193E+00  0.276329784649E+00
  0.684645082332E+00  0.637730719149E+00  0.352931496316E+00
  0.742030599736E+00  0.585776318333E+00  0.325970388128E+00
  0.726918113887E+00  0.684391568808E+00  0.565529508364E-01
  0.745102299830E+00  0.666344869115E+00  0.284091216414E-01
SCALARS inclination float 1
LOOKUP_TABLE default
  0.100000000000E+01
  0.100000000000E+01
  0.100000000000E+01
  0.100000000000E+01
  0.100000000000E+01
  0.100000000000E+01
  0.100000000000E+01
  0.100000000000E+01
  0.100000000000E+01
  0.100000000000E+01
  0.100000000000E+01
  0.100000000000E+01
  0.100000000000E+01
  0.100000000000E+01
  0.100000000000E+01
  0.100000000000E+01
  0.100000000000E+01
  0.100000000000E+01
  0.100000000000E+01
  0.100000000000E+01
  0.100000000000E+01
  0.100000000000E+01
  0.100000000000E+01
  0.100000000000E+01
  0.100000000000E+01
  0.100000000000E+01
  0.100000000000E+01
  0.100000000000E+01
  0.100000000000E+01
  0.100000000000E+01
  0.100000000000E+01
  0.100000000000E+01
  0.100000000000E+01
  0.100000000000E+01
  0.100000000000E+01
  0.100000000000E+01
  0.100000000000E+01
  0.100000000000E+01
  0.100000000000E+01
  0.100000000000E+01
  0.100000000000E+01
  0.100000000000E+01
  0.100000000000E+01
  0.100000000000E+01
  0.100000000000E+01
  0.100000000000E+01
  0.100000000000E+01
  0.100000000000E+01
  0.100000000000E+01
  0.100000000000E+01
  0.100000000000E+01
  0.100000000000E+01
  0.100000000000E+01
  0.100000000000E+01
  0.100000000000E+01
  0.100000000000E+01
  0.100000000000E+01
  0.100000000000E+01
  0.100000000000E+01
  0.100000000000E+01
  0.100000000000E+01
  0.100000000000E+01
  0.100000000000E+01
  0.100000000000E+01
  0.100000000000E+01
  0.100000000000E+01
  0.100000000000E+01
  0.100000000000E+01
  0.100000000000E+01
  0.100000000000E+01
  0.100000000000E+01
  0.100000000000E+01
  0.100000000000E+01
  0.100000000000E+01
  0.100000000000E+01
  0.100000000000E+01
  0.100000000000E+01
  0.100000000000E+01
  0.100000000000E+01
  0.100000000000E+01
  0.100000000000E+01
  0.100000000000E+01
  0.100000000000E+01
  0.100000000000E+01
  0.100000000000E+01
  0.100000000000E+01
  0.100000000000E+01
  0.100000000000E+01
  0.100000000000E+01
  0.100000000000E+01
  0.100000000000E+01
  0.100000000000E+01
  0.100000000000E+01
  0.100000000000E+01
  0.100000000000E+01
  0.100000000000E+01
  0.100000000000E+01
  0.100000000000E+01
  0.100000000000E+01
  0.100000000000E+01
  0.100000000000E+01
  0.100000000000E+01
  0.100000000000E+01
  0.100000000000E+01
  0.100000000000E+01
  0.100000000000E+01
  0.100000000000E+01
  0.100000000000E+01
  0.100000000000E+01
  0.100000000000E+01
  0.100000000000E+01
  0.100000000000E+01
  0.100000000000E+01
  0.100000000000E+01
  0.100000000000E+01
  0.100000000000E+01
  0.100000000000E+01
  0.100000000000E+01
  0.100000000000E+01
  0.100000000000E+01
  0.100000000000E+01
  0.100000000000E+01
  0.100000000000E+01
  0.100000000000E+01
  0.100000000000E+01
  0.100000000000E+01
  0.100000000000E+01
  0.100000000000E+01
  0.100000000000E+01
  0.100000000000E+01
  0.100000000000E+01
  0.100000000000E+01
  0.100000000000E+01
  0.100000000000E+01
  0.100000000000E+01
  0.100000000000E+01
  0.100000000000E+01
  0.100000000000E+01
  0.100000000000E+01
  0.100000000000E+01
  0.100000000000E+01
  0.100000000000E+01
  0.100000000000E+01
  0.100000000000E+01
  0.100000000000E+01
  0.100000000000E+01
  0.100000000000E+01
  0.100000000000E+01
  0.100000000000E+01
  0.100000000000E+01
  0.100000000000E+01
  0.100000000000E+01
  0.100000000000E+01
  0.100000000000E+01
  0.100000000000E+01
  0.100000000000E+01
  0.100000000000E+01
  0.100000000000E+01
  0.100000000000E+01
  0.100000000000E+01
  0.100000000000E+01
  0.100000000000E+01
  0.100000000000E+01
  0.100000000000E+01
  0.100000000000E+01
  0.100000000000E+01
  0.100000000000E+01
  0.100000000000E+01
  0.100000000000E+01
  0.100000000000E+01
  0.100000000000E+01
  0.100000000000E+01
  0.100000000000E+01
  0.100000000000E+01
  0.100000000000E+01
  0.100000000000E+01
  0.100000000000E+01
  0.100000000000E+01
  0.100000000000E+01
  0.100000000000E+01
  0.100000000000E+01
  0.100000000000E+01
  0.100000000000E+01
  0.100000000000E+01
  0.100000000000E+01
  0.100000000000E+01
  0.100000000000E+01
  0.100000000000E+01
  0.100000000000E+01
  0.100000000000E+01
  0.100000000000E+01
  0.100000000000E+01
  0.100000000000E+01
  0.100000000000E+01
  0.100000000000E+01
  0.100000000000E+01
  0.100000000000E+01
  0.100000000000E+01
  0.100000000000E+01
  0.100000000000E+01
  0.100000000000E+01
  0.100000000000E+01
  0.100000000000E+01
  0.100000000000E+01
  0.100000000000E+01
  0.100000000000E+01
  0.100000000000E+01
  0.100000000000E+01
  0.100000000000E+01
  0.100000000000E+01
  0.100000000000E+01
  0.100000000000E+01
  0.100000000000E+01
  0.100000000000E+01
  0.100000000000E+01
  0.100000000000E+01
  0.100000000000E+01
  0.100000000000E+01
  0.100000000000E+01
  0.100000000000E+01
  0.100000000000E+01
  0.100000000000E+01
  0.100000000000E+01
  0.100000000000E+01
  0.100000000000E+01
  0.100000000000E+01
  0.100000000000E+01
  0.100000000000E+01
  0.100000000000E+01
  0.100000000000E+01
  0.100000000000E+01
  0.100000000000E+01
  0.100000000000E+01