# vtk DataFile Version 3.0
MachLine results file. Generated by MachLine, USU AeroLab (c) 2022.
ASCII
DATASET POLYDATA
POINTS                 125 float
  0.702141357586E+00  0.129884057312E+00 -0.700091169508E+00
  0.216457705555E+00  0.200234351083E+00  0.955537684423E+00
  0.208947587623E+00 -0.948140036866E+00  0.239523226678E+00
 -0.766710445599E+00 -0.519801970893E+00  0.376777127312E+00
 -0.477258346548E+00  0.876842336055E+00  0.580688242643E-01
 -0.119563411501E-01  0.521688848054E+00  0.853052045143E+00
  0.915441370007E+00 -0.401927066141E+00  0.205361043923E-01
 -0.453327139966E+00  0.507964611255E+00 -0.732438705888E+00
 -0.529769340806E+00  0.327267671346E+00  0.782457869047E+00
  0.720117484981E+00 -0.356246872455E-01 -0.692937002536E+00
  0.281373807883E+00 -0.251073031487E+00 -0.926170131832E+00
  0.389328375750E+00  0.317235656027E+00  0.864745600961E+00
 -0.584489750755E-01 -0.984421435902E+00 -0.165825673068E+00
  0.310834504565E+00  0.263742923342E+00 -0.913138314363E+00
  0.705435612190E+00  0.437252980562E-01  0.707423985573E+00
  0.730765408702E+00  0.198263640337E+00 -0.653202454347E+00
 -0.429680845794E+00  0.238345761029E+00  0.870956754929E+00
 -0.948507085538E+00 -0.121665453701E-01  0.316522169615E+00
 -0.297116053625E+00  0.845847244567E+00  0.443017482203E+00
  0.369724327477E+00 -0.922140448639E+00  0.113846012915E+00
 -0.799838448427E-01 -0.894828835297E+00 -0.439185541754E+00
 -0.130751289978E-01  0.372566944464E+00  0.927913203319E+00
 -0.175979055487E+00  0.117176970156E-01 -0.984324167948E+00
 -0.849014754066E+00 -0.113661311651E-01  0.528246872627E+00
 -0.405186981710E+00  0.468571468169E+00  0.785025024487E+00
  0.237278539182E+00 -0.230366384003E+00  0.943732072129E+00
  0.417236187397E+00 -0.883781477257E+00  0.211764643847E+00
 -0.873416789200E+00  0.459060603834E+00  0.162500690312E+00
  0.427326868085E-01  0.399674401792E+00 -0.915660575776E+00
  0.416931947978E+00 -0.431001064781E+00  0.800253605374E+00
 -0.313126764251E-01 -0.763826790335E+00 -0.644661268156E+00
  0.699013951703E+00  0.693005330695E+00  0.176417422477E+00
 -0.138355636316E+00 -0.865596929757E+00  0.481248036977E+00
 -0.663126091714E+00 -0.691644207227E+00  0.286167917660E+00
  0.434512499861E+00 -0.556164208953E+00  0.708435078285E+00
  0.249381452623E+00  0.934024132104E+00 -0.255749509747E+00
  0.269998712103E+00 -0.353017620991E+00  0.895812064405E+00
 -0.318501740361E+00 -0.445868716200E+00  0.836515229569E+00
  0.552850884128E+00 -0.574249321375E+00 -0.603815879899E+00
 -0.742562283471E+00  0.179496148810E+00 -0.645276985277E+00
  0.671658828770E+00  0.620817243752E+00 -0.404302322026E+00
  0.657396067702E+00 -0.630559482818E+00 -0.412583505241E+00
  0.773639171085E+00 -0.633605385754E+00 -0.516218050096E-02
 -0.482744339646E+00 -0.184354254966E+00 -0.856137495509E+00
  0.750005676904E-01 -0.319021189926E+00  0.944775314678E+00
  0.743380397706E+00 -0.559885213998E+00  0.365942798061E+00
  0.195774159356E+00  0.980538876264E+00 -0.146966208106E-01
  0.492693617738E+00 -0.262169445406E+00 -0.829771161789E+00
 -0.671526479730E+00 -0.220141074149E+00 -0.707523917966E+00
 -0.987548172080E+00  0.140911306812E+00  0.699472046236E-01
  0.672914623448E+00 -0.650913839687E+00 -0.351421517347E+00
  0.837747646897E+00  0.532225040535E+00 -0.122128564828E+00
 -0.776336288326E+00  0.276918099565E+00 -0.566231696005E+00
 -0.220392982439E+00 -0.806337203404E-01 -0.972072598336E+00
  0.998327412290E+00  0.555926417120E-01  0.158693433510E-01
 -0.457223014896E+00  0.436573833219E+00  0.774822820261E+00
 -0.531727895172E-01  0.482562977668E+00  0.874245747510E+00
  0.528176333666E+00 -0.483684342082E+00  0.697910608732E+00
 -0.827204774205E-02 -0.872451864368E+00 -0.488630041633E+00
 -0.543348965759E+00 -0.544492452400E+00  0.638983466678E+00
 -0.915014718092E-01  0.152132623263E+00 -0.984115412742E+00
 -0.930485526169E+00 -0.201719823563E+00  0.305787178232E+00
  0.441393693028E+00  0.205475015007E+00 -0.873471021822E+00
 -0.162649968012E+00  0.858538397729E+00  0.486268246477E+00
 -0.566503167076E+00  0.560376865844E+00 -0.604195274658E+00
  0.276478316009E+00  0.203543946400E+00 -0.939217548101E+00
 -0.609728017262E+00 -0.566456570941E+00  0.554399403141E+00
 -0.768223138211E+00  0.176732892995E+00  0.615303741619E+00
  0.429578885006E+00  0.506252600744E-01 -0.901609152903E+00
 -0.277505597006E+00 -0.950343792692E+00 -0.140845018804E+00
  0.338314069944E+00  0.211444373458E+00 -0.916970483173E+00
 -0.145131964757E+00  0.985780861683E+00  0.846924172825E-01
 -0.791539090869E+00  0.433124276795E+00  0.431125536796E+00
  0.984853505178E+00 -0.950793589756E-01  0.144994788992E+00
 -0.785570940585E+00  0.611539272393E+00 -0.943292935905E-01
  0.397672597783E+00  0.908271763882E+00  0.129995799576E+00
  0.530510828966E+00 -0.846698906792E+00 -0.407335437669E-01
  0.642670071218E+00 -0.546000487784E+00  0.537455716222E+00
 -0.415342757233E+00  0.184731301637E+00 -0.890710244810E+00
 -0.921118914609E+00 -0.293306328249E+00 -0.255951837187E+00
  0.909989712649E+00  0.149660119145E+00  0.386678899878E+00
 -0.460874712427E+00  0.774659502618E+00 -0.433009416121E+00
 -0.651246515454E+00  0.108448536551E+00  0.751077153846E+00
 -0.425918806523E+00  0.672489971951E+00  0.605268872383E+00
  0.758747920096E+00 -0.471768224156E+00 -0.449150683431E+00
 -0.461230382129E+00 -0.833124539111E+00  0.305237672858E+00
 -0.931367450267E+00 -0.257758833484E+00 -0.257128482173E+00
 -0.435832765108E+00 -0.881041871462E+00 -0.183888611908E+00
  0.973999294222E+00  0.919217933081E-01  0.207064624621E+00
  0.174133105814E-01 -0.398510408761E+00  0.916998490033E+00
 -0.328384539586E+00  0.921354425636E+00  0.208013500815E+00
 -0.212234734660E+00  0.581487434999E+00 -0.785384479311E+00
 -0.489446570350E+00 -0.651599887178E+00  0.579533986753E+00
 -0.617393495913E+00  0.328904246375E+00 -0.714595877347E+00
 -0.486000222204E+00  0.150105819994E+00 -0.860971559821E+00
 -0.342106836245E+00  0.688505203503E+00 -0.639471263892E+00
  0.770934824914E-01  0.993040177356E+00 -0.890382003027E-01
  0.166612438033E-01  0.926698411591E+00  0.375436355337E+00
 -0.979312120230E+00 -0.182015894986E+00  0.884193708648E-01
 -0.239415820469E+00 -0.689093436926E+00  0.683981213262E+00
 -0.473918833504E+00  0.985802105086E-02 -0.880513349513E+00
  0.633501274407E+00 -0.105319787051E+00  0.766540199716E+00
  0.721914881858E+00 -0.280051170019E-01  0.691414938205E+00
  0.588286110828E+00 -0.319521612069E+00 -0.742849507792E+00
  0.843755037024E-01  0.344492977707E+00  0.934989498703E+00
 -0.128695299938E+00 -0.811533069889E+00 -0.569957538989E+00
  0.954302037332E+00  0.264404868624E+00 -0.139275579306E+00
  0.709923786831E+00 -0.624876911620E-01  0.701500894757E+00
  0.606113562259E+00 -0.725105134796E+00 -0.326877489496E+00
  0.603606761645E+00 -0.759942571569E+00  0.241135159636E+00
  0.385696191507E+00 -0.498334793967E-01  0.921279041435E+00
  0.565798912552E+00  0.617202107372E+00 -0.546747793054E+00
  0.163041703861E+00  0.464150810013E+00  0.870621288717E+00
 -0.538694694458E+00 -0.573831818870E+00  0.616867141138E+00
  0.378811265746E+00 -0.188986284649E-01  0.925280966402E+00
  0.482327903589E+00 -0.656300148950E+00  0.580198162620E+00
 -0.764792300081E+00  0.571149222040E+00 -0.298129676316E+00
  0.443522335506E+00  0.118689177402E+00 -0.888369752454E+00
  0.310083150881E+00  0.857198748939E+00  0.411167538064E+00
  0.224488091694E+00 -0.113447348340E+00  0.967850606159E+00
  0.307636626154E+00  0.750147870710E+00  0.585352781080E+00
  0.378711484675E+00  0.824958167697E+00 -0.419549321208E+00
  0.450684067150E+00 -0.793383124965E+00 -0.409178553492E+00
  0.349767744123E+00 -0.786016216054E-01  0.933533240036E+00
  0.758903357790E+00  0.198987375365E+00 -0.620056221628E+00
POLYGONS                 246                 984
3                 122                  30                  38
3                  38                  30                  10
3                 105                  87                  48
3                  48                  43                 105
3                 105                  43                  30
3                 105                  20                  87
3                  98                  17                  49
3                   6                  84                  54
3                  42                  84                   6
3                  52                 116                  64
3                  49                 116                  52
3                  64                 116                  81
3                  80                  51                  31
3                  88                  51                  80
3                  35                  81                  96
3                 120                  31                 118
3                   8                  82                  16
3                 119                  16                  44
3                  21                  16                 119
3                  11                  31                 120
3                  11                  80                  31
3                  22                  10                  53
3                  30                  43                  53
3                  53                  10                  30
3                 100                  43                  48
3                 100                  53                  43
3                  22                  53                 100
3                  76                  42                 109
3                  12                 122                  76
3                 103                  84                  38
3                  67                  72                  17
3                  67                  82                   8
3                   8                  72                  67
3                  49                  17                  27
3                  17                  72                  27
[...]
CELL_DATA                 246
NORMALS normals float
  0.274990720975E+00 -0.706965895139E+00 -0.651597518786E+00
  0.241542464381E+00 -0.576034628220E+00 -0.780923392525E+00
 -0.547932395965E+00 -0.630755061947E+00 -0.549470782918E+00
 -0.440738406916E+00 -0.566513980617E+00 -0.696284113300E+00
 -0.329839181631E+00 -0.539641872268E+00 -0.774591998381E+00
 -0.331275474122E+00 -0.846867783389E+00 -0.416018650668E+00
 -0.989120205679E+00 -0.168673771004E-01  0.146139352359E+00
  0.941668795521E+00 -0.173537554070E+00 -0.288348048145E+00
  0.844333175201E+00 -0.493684967544E+00 -0.208270598204E+00
 -0.730692677883E+00  0.475261053468E+00 -0.490117477290E+00
 -0.930413868569E+00  0.266128480316E+00 -0.252003303827E+00
 -0.626280169510E+00  0.651168710847E+00 -0.428663573554E+00
  0.888839474369E+00  0.417877820033E+00  0.187996054021E+00
  0.891410420758E+00  0.413883955380E+00  0.184628094402E+00
 -0.975583587379E-01  0.902175211062E+00 -0.420193116538E+00
  0.561211952061E+00  0.701607257815E+00  0.439076759400E+00
 -0.550753839586E+00  0.189165773037E+00  0.812949271783E+00
 -0.148216960194E+00 -0.322859101048E-02  0.988949598772E+00
 -0.139594498400E+00  0.131279505732E-01  0.990121726320E+00
  0.662859012567E+00  0.490295507018E+00  0.565887131199E+00
  0.672277493481E+00  0.479351368859E+00  0.564150012791E+00
  0.394180282204E-01 -0.150014024346E+00 -0.987897773836E+00
 -0.196146551563E+00 -0.467394574689E+00 -0.862014409312E+00
 -0.701923685496E-01 -0.446837341850E+00 -0.891857287533E+00
 -0.608562146807E+00 -0.715339218800E-01 -0.790275275771E+00
 -0.369131144085E+00 -0.992066974057E-01 -0.924067221395E+00
 -0.329032613388E+00  0.330404211303E-01 -0.943740361487E+00
  0.652567665165E+00 -0.755091724892E+00  0.631817171346E-01
  0.262192943589E+00 -0.945394219765E+00 -0.193609476954E+00
  0.669308554943E+00 -0.425536267148E+00 -0.609052496606E+00
 -0.890153183092E+00  0.209664607245E+00  0.404559097166E+00
 -0.660215753132E+00  0.265775721349E+00  0.702480195634E+00
 -0.680350411005E+00  0.385764293578E+00  0.623144628514E+00
 -0.922801908001E+00  0.244397381415E+00  0.297836462756E+00
 -0.920254055065E+00  0.246089898214E+00  0.304256858810E+00
  0.234727283181E+00 -0.781179637809E+00 -0.578499331031E+00
 -0.326280477319E-01 -0.822519777622E+00 -0.567799811484E+00
 -0.864413537308E-01 -0.854556365043E+00 -0.512114549031E+00
  0.211121132633E+00 -0.933178622192E+00 -0.290870291435E+00
  0.771896457641E-01 -0.945613336929E+00 -0.316001860135E+00
 -0.972347947228E+00 -0.104279058761E+00  0.208962550295E+00
 -0.656315208582E+00 -0.598275200082E+00 -0.459692431905E+00
 -0.759881356135E+00 -0.640818314118E+00 -0.109234668894E+00
  0.746342972533E+00 -0.638545360411E+00  0.187701864799E+00
  0.831459984473E+00 -0.528063276405E+00  0.172694731628E+00
  0.829590009546E+00 -0.515080445814E+00 -0.215574929899E+00
 -0.179543208318E+00 -0.938921167806E+00 -0.293583509401E+00
 -0.291087338830E+00 -0.887261319907E+00 -0.357820501605E+00
 -0.237971234137E+00 -0.873613989160E-01  0.967335349144E+00
 -0.420431557568E+00 -0.113629294672E+00  0.900180920034E+00
  0.107346246653E+00 -0.678000352218E+00  0.727181068044E+00
 -0.203666788433E+00 -0.188187865878E+00  0.960783621023E+00
 -0.119008546515E+00 -0.555007004807E+00  0.823288643473E+00
  0.117053538427E+00 -0.719393954568E+00  0.684668392196E+00
 -0.117688893620E+00 -0.979199483482E+00  0.165280657872E+00
 -0.133481816454E+00 -0.977550315738E+00  0.163027558642E+00
  0.686938376288E+00  0.421013737476E+00 -0.592336981826E+00
  0.754990383076E+00  0.125315819112E+00 -0.643650112206E+00
 -0.309140604342E+00  0.388672433221E+00 -0.867966489216E+00
 -0.328834252923E+00  0.551739337740E-01 -0.942774560081E+00
 -0.423189122416E+00  0.891777704061E-01 -0.901641997654E+00
 -0.492585424777E+00  0.305214437212E+00 -0.814986961009E+00
 -0.464882289679E+00  0.344690222953E+00 -0.815520145026E+00
 -0.687157815843E+00  0.430274512864E+00 -0.585387034111E+00
 -0.568674459588E+00  0.452613643415E+00 -0.686840773983E+00
  0.298503663792E+00  0.574607768147E+00 -0.762050835239E+00
 -0.664164852557E+00  0.697220079022E+00  0.269757687630E+00
  0.963390635718E+00  0.257801632521E+00  0.735989217323E-01
  0.911027170897E+00  0.387439482082E+00  0.141138731788E+00
  0.235948222674E+00  0.653057798279E+00 -0.719613749399E+00
  0.143326579129E+00  0.701335600693E+00 -0.698273490057E+00
 -0.944429061918E-01  0.898273367644E+00 -0.429168375409E+00
 -0.340408145421E+00  0.587672980754E+00 -0.734004606404E+00
  0.221044805586E-01  0.815450297224E+00 -0.578404879558E+00
  0.932623378667E-02  0.835709386577E+00 -0.549092744944E+00
 -0.451656700216E+00  0.612362114110E+00 -0.648859666147E+00
 -0.475981762487E+00  0.680088008666E+00 -0.557603499136E+00
 -0.224326031810E+00  0.942545476360E+00 -0.247559803777E+00
 -0.290279227063E+00  0.934897620432E+00 -0.204216575346E+00
  0.136373019858E+00  0.843148883816E+00  0.520098412970E+00
  0.521428722971E+00  0.796137276894E+00  0.307046451210E+00
  0.523789407936E+00  0.839360333479E+00 -0.145323386680E+00
  0.196962038493E+00  0.952007131214E+00  0.234282687175E+00
  0.678301134205E+00  0.449691181063E+00  0.581107058132E+00
 -0.922035193132E-01  0.366987022322E-01  0.995063674486E+00
 -0.431268706962E+00  0.344478392645E+00  0.833871656429E+00
 -0.386907792367E+00  0.358299319224E+00  0.849661084227E+00
 -0.636738169126E+00  0.465538002812E+00  0.614685994566E+00
  0.575616401280E-01  0.447563508010E+00  0.892397648968E+00
  0.245321500199E+00  0.341572170678E+00  0.907273836148E+00
  0.377307341534E+00  0.551391956432E+00  0.744047095557E+00
  0.143615494626E+00  0.661542708190E+00  0.736027061285E+00
  0.338782061972E-01  0.448191794638E+00  0.893295238073E+00
 -0.214234031559E+00  0.630016423238E+00  0.746446974790E+00
 -0.237845690304E+00  0.354506495797E+00  0.904297833704E+00
 -0.242532446268E+00  0.361787765474E+00  0.900159777629E+00
  0.536600286085E+00 -0.835542984376E+00  0.118017177704E+00
 -0.891580874520E+00 -0.422918715980E+00  0.161936110437E+00
 -0.854853668030E+00 -0.518356451377E+00  0.230606932090E-01
 -0.851507750725E+00 -0.523951175464E+00  0.202414472188E-01
 -0.661200617284E+00 -0.620722163872E+00  0.421328540430E+00
 -0.752776064069E+00  0.187870780222E-01  0.658008543307E+00
 -0.889045629306E+00  0.188833644069E+00  0.417060815565E+00
 -0.899454636660E+00 -0.109474941875E+00  0.423079890437E+00
 -0.752871932593E+00 -0.296870510661E+00  0.587411059662E+00
 -0.792756108159E+00 -0.288319937166E+00  0.537037584168E+00
 -0.828109842193E+00 -0.255268146665E+00 -0.499071400264E+00
 -0.950259417327E+00  0.106279099444E+00 -0.292765764398E+00
 -0.990931978523E+00 -0.327275577537E-01 -0.130317768946E+00
 -0.957745309936E+00 -0.278501133395E+00 -0.718403785668E-01
  0.460522674608E+00 -0.789352244414E+00  0.406007266451E+00
  0.317622092081E+00 -0.830881064221E+00  0.456894805990E+00
  0.187564946782E+00 -0.815259434665E+00  0.547879042242E+00
  0.150806599198E+00 -0.751096637849E+00  0.642737279337E+00
  0.816587115310E+00 -0.284064865423E+00  0.502486452894E+00
  0.606590974488E+00 -0.680375404200E+00  0.411262323863E+00
  0.587548025568E+00 -0.690845044769E+00  0.421331747878E+00
  0.897538506624E+00 -0.324236462300E+00  0.298823268242E+00
  0.992256053604E+00  0.167425284921E-01  0.123075634575E+00
  0.978251348183E+00 -0.178304809814E+00 -0.105979689451E+00
  0.933531775485E+00 -0.629575427236E-01  0.352923181406E+00
  0.864816718804E+00 -0.239523488710E+00  0.441271505122E+00
  0.490248430700E+00 -0.841246540394E+00 -0.227948973393E+00
  0.664175506053E+00 -0.734948808243E+00 -0.136825240438E+00
  0.703647533778E+00 -0.689863281907E+00 -0.170202234076E+00
  0.660377859691E+00 -0.541346508873E+00 -0.520427746917E+00
  0.740403038326E+00 -0.558653101320E+00 -0.373778080180E+00
  0.618967092474E+00 -0.684642717376E+00 -0.384894905109E+00
  0.533062905691E+00 -0.687072501916E+00 -0.493736078981E+00
  0.548013326427E+00 -0.705137270923E+00 -0.449958690564E+00
 -0.381427205582E+00 -0.576962016816E+00  0.722238269544E+00
 -0.583363553265E+00 -0.230122681040E+00  0.778929083032E+00
 -0.718633948494E+00 -0.279793016905E+00  0.636616930157E+00
 -0.662335902439E+00 -0.231761483921E+00  0.712458958054E+00
 -0.192283082106E+00 -0.965688618144E+00  0.174564340925E+00
 -0.576324367240E+00 -0.815691011863E+00  0.499839663367E-01
 -0.415372375172E+00 -0.907158333094E+00  0.673019215311E-01
 -0.623097896251E+00  0.167552643865E+00 -0.763986337064E+00
 -0.702192071910E+00  0.285701725378E+00 -0.652150916785E+00
 -0.658745576164E+00  0.949365671798E-04 -0.752365773325E+00
 -0.639158084264E+00  0.518581173532E-01 -0.767325015221E+00
 -0.861053662550E+00 -0.747068801584E-01 -0.502996493295E+00
 -0.908882134615E+00  0.227898809657E-01 -0.416429930125E+00
  0.945513326936E-01 -0.554070031694E-01 -0.993976915972E+00
 -0.259036446736E+00  0.157260435591E+00 -0.952979157516E+00
 -0.225669500870E+00  0.356233887069E+00 -0.906736286955E+00
 -0.205645272374E+00  0.362853020041E+00 -0.908871667397E+00
  0.124801729181E+00 -0.271208627236E-01 -0.991810963439E+00
  0.166263160904E+00  0.310559932937E+00 -0.935900149258E+00
  0.876222069166E-01  0.221089649780E+00 -0.971309279074E+00
  0.772307102812E+00 -0.256452207776E+00 -0.581183279244E+00
  0.789366454436E+00  0.593213446864E-01 -0.611049571373E+00
  0.929731126617E+00 -0.113466638214E+00 -0.350321786663E+00
  0.931639145204E+00 -0.686977089275E-01 -0.356832072426E+00
  0.927533587739E+00 -0.378355972980E-01 -0.371819729431E+00
  0.334865057792E+00 -0.509393942709E+00 -0.792706253414E+00
  0.415123391423E+00 -0.479679280753E+00 -0.773033218891E+00
  0.614696893559E+00 -0.149274714414E+00 -0.774509385796E+00
  0.442279165445E+00  0.471693809193E+00 -0.762819828126E+00
  0.560327371127E+00  0.404328808058E+00 -0.722877204054E+00
  0.586413936999E+00  0.276577446292E+00 -0.761330158798E+00
  0.577431248305E+00  0.151876595014E+00 -0.802188664447E+00
 -0.607234554603E+00  0.765278332049E+00 -0.213577316662E+00
 -0.587455750465E+00  0.788154709202E+00 -0.183597101309E+00
 -0.691110102282E+00  0.700157602885E+00  0.179293495830E+00
 -0.926045155936E+00  0.340888049994E+00 -0.161974400873E+00
 -0.926562577688E+00  0.362055065576E+00 -0.101970187397E+00
  0.624168817064E+00  0.771182044985E+00 -0.125265882420E+00
  0.589449721838E+00  0.797769648212E+00 -0.126935471072E+00
  0.570884854812E+00  0.808606939940E+00 -0.142285976916E+00
  0.534421098554E+00  0.735849460747E+00 -0.415836098167E+00
  0.720085582344E+00  0.428197794501E+00 -0.546006779157E+00
  0.840124902751E+00  0.374456091003E+00 -0.392393659083E+00
  0.841795083228E+00  0.390225287453E+00 -0.372968179454E+00
 -0.552918226888E+00  0.769059774440E+00  0.320668828721E+00
 -0.313677235231E+00  0.949065046728E+00  0.297006595399E-01
 -0.148435833623E+00  0.949742817061E+00  0.275600044880E+00
  0.300543799521E-01  0.742311047793E+00  0.669381089194E+00
  0.604762950230E-01  0.803622436215E+00  0.592058778967E+00
 -0.191437587567E+00  0.926751557159E+00  0.323238613674E+00
 -0.164685442090E+00  0.936526335462E+00  0.309511111512E+00
  0.436967556662E-01  0.994281656726E+00  0.974401387652E-01
  0.631965252193E-01  0.984291703003E+00  0.164851577489E+00
  0.186708688225E+00  0.957940804971E+00  0.217920352223E+00
  0.192706495353E+00  0.970568983171E+00 -0.144430106126E+00
  0.391905195264E+00  0.915638848161E+00 -0.895310988597E-01
  0.652792475640E+00 -0.146523806309E-01  0.757395069624E+00
  0.150956866634E+00 -0.421779101136E+00  0.894043854775E+00
  0.172291918549E+00 -0.588843659502E+00  0.789669956036E+00
  0.225723074551E+00 -0.555421961139E+00  0.800347136373E+00
  0.666004693763E+00 -0.134489346172E-01  0.745826302864E+00
  0.830923984150E+00  0.676404633262E-01  0.552259088006E+00
  0.878514982501E+00 -0.175545110825E+00  0.444291953097E+00
  0.879772054695E+00 -0.169494169166E+00  0.444154093077E+00
 -0.474862672114E+00  0.554293340249E+00  0.683567359949E+00
 -0.263919178481E+00  0.756331291377E+00  0.598589713337E+00
 -0.618737720401E+00  0.510967503645E+00  0.596720909280E+00
 -0.214194584645E+00  0.633574012325E+00  0.743441087656E+00
 -0.169699295663E+00  0.690119310078E+00  0.703517936451E+00
 -0.581520894440E+00  0.742733582404E+00  0.331934142411E+00
 -0.621434019517E+00  0.713061089523E+00  0.324597661720E+00
 -0.426281451528E-01  0.102529054035E+00  0.993816197453E+00
  0.620001193992E-01  0.440910798984E+00  0.895406975924E+00
  0.229319831341E+00  0.339880535557E+00  0.912082033867E+00
  0.314088699234E+00 -0.925813517783E+00  0.210279859484E+00
  0.497292060413E+00 -0.862203359164E+00  0.964674768844E-01
  0.151092413976E+00 -0.988456216336E+00 -0.111978044971E-01
  0.261595697134E+00 -0.946340586075E+00 -0.189755596463E+00
 -0.334562512474E+00 -0.786983126859E+00  0.518387387275E+00
 -0.348487053893E+00 -0.797749871267E+00  0.492089337583E+00
 -0.385204342838E+00 -0.588432442194E+00  0.710890199139E+00
 -0.578775266981E+00 -0.688728994578E+00  0.436659549717E+00
 -0.546608447573E+00 -0.723101169457E+00  0.422307830584E+00
  0.406250923341E+00 -0.125885931594E+00 -0.905048573012E+00
  0.214174519239E+00 -0.257178002734E-01 -0.976456793749E+00
  0.567184488863E+00 -0.739414099629E-01 -0.820264849598E+00
  0.587112886852E+00  0.370206286183E-01 -0.808658105227E+00
  0.588780386451E+00  0.290320554410E-01 -0.807771500046E+00
  0.391563569529E+00  0.165007923665E+00 -0.905234972891E+00
  0.349436885316E+00  0.109419983669E+00 -0.930548832869E+00
  0.326192797787E+00  0.952794641420E-01 -0.940489278187E+00
  0.303805813651E+00  0.227423971331E+00 -0.925192069170E+00
  0.387687937904E+00  0.268324501386E+00 -0.881873020769E+00
  0.566457482639E+00 -0.297109076878E+00  0.768669055446E+00
  0.457764589917E+00 -0.483188781566E+00  0.746311048817E+00
  0.711688854378E+00 -0.312458742395E+00  0.629180823654E+00
  0.711109354115E+00 -0.312215297736E+00  0.629956422580E+00
  0.514530159429E+00 -0.572178831506E+00  0.638647085497E+00
  0.552064402282E+00 -0.564869243896E+00  0.613308758321E+00
  0.531990908347E+00  0.133928878967E+00  0.836091339995E+00
  0.544406064464E+00  0.688331469335E-01  0.835992843784E+00
  0.240390586745E+00  0.442164249594E-01  0.969668641118E+00
  0.376493967620E+00  0.152777174633E+00  0.913734877991E+00
 -0.584724407909E+00 -0.545426123166E+00  0.600506212261E+00
 -0.554187595473E+00 -0.618420812181E+00  0.557164076449E+00
 -0.403106657260E+00 -0.590790774762E+00  0.698907206522E+00
  0.109683871655E+00 -0.189288156905E+00  0.975776327830E+00
  0.178790462837E+00 -0.316303310583E+00  0.931657762332E+00
  0.433709904402E+00 -0.245255758006E+00  0.867032486121E+00
  0.401684217301E+00 -0.238309937642E+00  0.884227438611E+00
  0.262755356459E+00  0.554138189585E-02  0.964846576269E+00
  0.302105619158E+00 -0.160779174724E+00  0.939618141507E+00
  0.531016338191E+00  0.856975287152E-02  0.847318244764E+00
  0.352774531511E+00 -0.424104159900E-01  0.934746749945E+00
  0.477879292239E+00 -0.230018141741E+00  0.847775345548E+00
  0.474536410228E+00 -0.230818690135E+00  0.849433886569E+00
SCALARS inclination float 1
LOOKUP_TABLE default
  0.100000000000E+01
  0.100000000000E+01
  0.100000000000E+01
  0.100000000000E+01
  0.100000000000E+01
  0.100000000000E+01
  0.100000000000E+01
  0.100000000000E+01
  0.100000000000E+01
  0.100000000000E+01
  0.100000000000E+01
  0.100000000000E+01
  0.100000000000E+01
  0.100000000000E+01
  0.100000000000E+01
  0.100000000000E+01
  0.100000000000E+01
  0.100000000000E+01
  0.100000000000E+01
  0.100000000000E+01
  0.100000000000E+01
  0.100000000000E+01
  0.100000000000E+01
  0.100000000000E+01
  0.100000000000E+01
  0.100000000000E+01
  0.100000000000E+01
  0.100000000000E+01
  0.100000000000E+01
  0.100000000000E+01
  0.100000000000E+01
  0.100000000000E+01
  0.100000000000E+01
  0.100000000000E+01
  0.100000000000E+01
  0.100000000000E+01
  0.100000000000E+01
  0.100000000000E+01
  0.100000000000E+01
  0.100000000000E+01
  0.100000000000E+01
  0.100000000000E+01
  0.100000000000E+01
  0.100000000000E+01
  0.100000000000E+01
  0.100000000000E+01
  0.100000000000E+01
  0.100000000000E+01
  0.100000000000E+01
  0.100000000000E+01
  0.100000000000E+01
  0.100000000000E+01
  0.100000000000E+01
  0.100000000000E+01
  0.100000000000E+01
  0.100000000000E+01
  0.100000000000E+01
  0.100000000000E+01
  0.100000000000E+01
  0.100000000000E+01
  0.100000000000E+01
  0.100000000000E+01
  0.100000000000E+01
  0.100000000000E+01
  0.100000000000E+01
  0.100000000000E+01
  0.100000000000E+01
  0.100000000000E+01
  0.100000000000E+01
  0.100000000000E+01
  0.100000000000E+01
  0.100000000000E+01
  0.100000000000E+01
  0.100000000000E+01
  0.100000000000E+01
  0.100000000000E+01
  0.100000000000E+01
  0.100000000000E+01
  0.100000000000E+01
  0.100000000000E+01
  0.100000000000E+01
  0.100000000000E+01
  0.100000000000E+01
  0.100000000000E+01
  0.100000000000E+01
  0.100000000000E+01
  0.100000000000E+01
  0.100000000000E+01
  0.100000000000E+01
  0.100000000000E+01
  0.100000000000E+01
  0.100000000000E+01
  0.100000000000E+01
  0.100000000000E+01
  0.100000000000E+01
  0.100000000000E+01
  0.100000000000E+01
  0.100000000000E+01
  0.100000000000E+01
  0.100000000000E+01
  0.100000000000E+01
  0.100000000000E+01
  0.100000000000E+01
  0.100000000000E+01
  0.100000000000E+01
  0.100000000000E+01
  0.100000000000E+01
  0.100000000000E+01
  0.100000000000E+01
  0.100000000000E+01
  0.100000000000E+01
  0.100000000000E+01
  0.100000000000E+01
  0.100000000000E+01
  0.100000000000E+01
  0.100000000000E+01
  0.100000000000E+01
  0.100000000000E+01
  0.100000000000E+01
  0.100000000000E+01
  0.100000000000E+01
  0.100000000000E+01
  0.100000000000E+01
  0.100000000000E+01
  0.100000000000E+01
  0.100000000000E+01
  0.100000000000E+01
  0.100000000000E+01
  0.100000000000E+01
  0.100000000000E+01
  0.100000000000E+01
  0.100000000000E+01
  0.100000000000E+01
  0.100000000000E+01
  0.100000000000E+01
  0.100000000000E+01
  0.100000000000E+01
  0.100000000000E+01
  0.100000000000E+01
  0.100000000000E+01
  0.100000000000E+01
  0.100000000000E+01
  0.100000000000E+01
  0.100000000000E+01
  0.100000000000E+01
  0.100000000000E+01
  0.100000000000E+01
  0.100000000000E+01
  0.100000000000E+01
  0.100000000000E+01
  0.100000000000E+01
  0.100000000000E+01
  0.100000000000E+01
  0.100000000000E+01
  0.100000000000E+01
  0.100000000000E+01
  0.100000000000E+01
  0.100000000000E+01
  0.100000000000E+01
  0.100000000000E+01
  0.100000000000E+01
  0.100000000000E+01
  0.100000000000E+01
  0.100000000000E+01
  0.100000000000E+01
  0.100000000000E+01
  0.100000000000E+01
  0.100000000000E+01
  0.100000000000E+01
  0.100000000000E+01
  0.100000000000E+01
  0.100000000000E+01
  0.100000000000E+01
  0.100000000000E+01
  0.100000000000E+01
  0.100000000000E+01
  0.100000000000E+01
  0.100000000000E+01
  0.100000000000E+01
  0.100000000000E+01
  0.100000000000E+01
  0.100000000000E+01
  0.100000000000E+01
  0.100000000000E+01
  0.100000000000E+01
  0.100000000000E+01
  0.100000000000E+01
  0.100000000000E+01
  0.100000000000E+01
  0.100000000000E+01
  0.100000000000E+01
  0.100000000000E+01
  0.100000000000E+01
  0.100000000000E+01
  0.100000000000E+01
  0.100000000000E+01
  0.100000000000E+01
  0.100000000000E+01
  0.100000000000E+01
  0.100000000000E+01
  0.100000000000E+01
  0.100000000000E+01
  0.100000000000E+01
  0.100000000000E+01
  0.100000000000E+01
  0.100000000000E+01
  0.100000000000E+01
  0.100000000000E+01
  0.100000000000E+01
  0.100000000000E+01
  0.100000000000E+01
  0.100000000000E+01
  0.100000000000E+01
  0.100000000000E+01
  0.100000000000E+01
  0.100000000000E+01
  0.100000000000E+01
  0.100000000000E+01
  0.100000000000E+01
  0.100000000000E+01
  0.100000000000E+01
  0.100000000000E+01
  0.100000000000E+01
  0.100000000000E+01
  0.100000000000E+01
  0.100000000000E+01
  0.100000000000E+01
  0.100000000000E+01
  0.100000000000E+01
  0.100000000000E+01
  0.100000000000E+01
  0.100000000000E+01
  0.100000000000E+01