# vtk DataFile Version 3.0
MachLine results file. Generated by MachLine, USU AeroLab (c) 2022.
ASCII
DATASET POLYDATA
POINTS                 125 float
 -0.569608594142E+00  0.172169624802E+00  0.803681323520E+00
  0.161738046359E+00 -0.683496717937E+00  0.711809694321E+00
 -0.646601665109E+00  0.247277651253E+00  0.721637062428E+00
  0.302396746886E+00 -0.846754360310E+00 -0.437679404095E+00
 -0.441881169915E+00  0.843323727214E+00 -0.305853106561E+00
  0.429554415001E+00 -0.564508646035E+00  0.704849624462E+00
  0.345320588106E-02  0.721858795794E-01  0.997385218538E+00
 -0.821399924160E+00 -0.408488710718E+00  0.398044140525E+00
 -0.643400754059E+00  0.277273633202E+00  0.713550840521E+00
  0.420662292535E+00  0.847923062959E+00  0.322598380253E+00
 -0.747958365926E+00  0.587062070936E+00 -0.309703741839E+00
  0.663831155334E+00 -0.704568818909E+00  0.250820606467E+00
 -0.874312134970E+00  0.484279711817E+00 -0.324260908442E-01
 -0.527376443773E+00  0.783532102941E+00  0.328559781796E+00
  0.966559094068E+00  0.793738042053E-02 -0.256321118260E+00
  0.571101330786E+00  0.786635092994E+00  0.234624168501E+00
 -0.636415413112E+00 -0.108125936808E+00  0.763730452282E+00
  0.345345742409E-01  0.904643533952E+00  0.424767512482E+00
 -0.242910780097E+00 -0.684504932634E-02  0.970024483306E+00
  0.260738269417E+00 -0.377206904501E-02  0.965402157837E+00
 -0.160101585095E+00  0.587681810886E+00 -0.793093671394E+00
  0.306025133772E+00  0.479328875720E+00  0.822552397359E+00
 -0.695474624474E+00  0.116657034589E+00  0.709017759294E+00
 -0.808173602916E-01 -0.996538160221E+00  0.194999871304E-01
 -0.140659123544E+00 -0.511793816822E+00 -0.847515250616E+00
 -0.693153567687E+00 -0.239640943918E+00  0.679786988402E+00
  0.985067204270E-01 -0.988832715210E+00  0.111831513270E+00
 -0.857574618059E+00  0.476919669160E+00  0.192648393790E+00
  0.978771049094E+00 -0.193765702123E+00  0.667988483102E-01
  0.876787270541E+00  0.260991814266E+00 -0.403890276070E+00
  0.148634382963E+00 -0.760307556282E+00 -0.632329218099E+00
 -0.699309872244E+00 -0.586985161694E+00 -0.407938871075E+00
  0.259430003719E+00 -0.364194621522E+00  0.894459809508E+00
 -0.518877296833E+00 -0.821567311297E+00 -0.236206485598E+00
 -0.409394894164E+00  0.680569225495E+00  0.607635869532E+00
 -0.669624131614E+00 -0.843264949803E-02 -0.742652282554E+00
 -0.266155936630E+00  0.915947534490E+00  0.300335032021E+00
  0.752536524795E+00  0.636926896484E+00  0.167370569049E+00
  0.552637694756E+00  0.830796444113E+00 -0.660972524621E-01
  0.577467146050E+00  0.492974983610E+00  0.650774431557E+00
 -0.946028037541E+00 -0.288905357070E+00 -0.146849061429E+00
 -0.381542387255E+00 -0.122076330184E+00 -0.916254755151E+00
 -0.965165052335E+00 -0.261534784112E+00  0.748187486387E-02
 -0.400570102154E+00  0.398478585301E+00 -0.825080850776E+00
  0.543163007157E+00  0.333500854684E+00 -0.770552482042E+00
  0.863594212118E+00  0.190824432423E+00  0.466680911102E+00
 -0.779063132676E+00  0.460645076007E+00 -0.425284315789E+00
  0.150928527120E-01  0.506769256302E+00 -0.861949607961E+00
 -0.516855202866E+00  0.327170032811E-01 -0.855447425016E+00
 -0.854884430395E+00 -0.360424474062E+00  0.373184685063E+00
  0.300663498831E+00  0.554298991673E+00  0.776114739134E+00
 -0.773838282864E+00 -0.625091759099E+00 -0.102149912777E+00
  0.726968304630E+00  0.991049534722E-01 -0.679481634969E+00
 -0.222997562865E+00  0.815437133792E+00 -0.534166984931E+00
  0.168573907595E+00  0.673879123679E+00 -0.719353712959E+00
  0.889766679928E-01 -0.995620998278E+00 -0.286701995364E-01
 -0.362413989626E+00 -0.173876742561E+00 -0.915654399061E+00
 -0.793083788715E+00 -0.527230147417E-01  0.606826489034E+00
 -0.958099196730E+00 -0.165717711427E+00  0.233631267909E+00
 -0.561783725909E+00  0.636924039960E+00 -0.527945842511E+00
 -0.722034931266E+00 -0.677124647694E+00 -0.142013272327E+00
 -0.225762624957E-01  0.615934783189E+00  0.787473590179E+00
 -0.384926698311E+00  0.877047055357E+00 -0.287436774990E+00
  0.378128607585E+00  0.801036490219E+00  0.464068203460E+00
 -0.212596807326E+00 -0.593271055379E+00  0.776422599081E+00
  0.470358445237E+00  0.522653976904E+00  0.711052567269E+00
 -0.374039857827E+00 -0.293630640017E+00  0.879701785834E+00
 -0.915753693223E+00  0.217811387926E+00  0.337569804097E+00
  0.377180918383E+00  0.495860243233E+00 -0.782212997839E+00
 -0.172332693396E+00  0.976878921398E+00  0.126526739131E+00
  0.440864683171E+00  0.262036715073E+00  0.858472533682E+00
  0.870909544616E-01  0.668634852426E+00 -0.738473154402E+00
  0.187967593611E+00 -0.703664588431E+00  0.685218454758E+00
  0.930777099611E+00 -0.233619442383E+00  0.281204457612E+00
 -0.542192899336E+00 -0.626805031450E+00  0.559591201198E+00
  0.342050564931E+00 -0.543484147046E-01  0.938108554939E+00
  0.899077818976E+00 -0.226999219148E+00  0.374339992427E+00
  0.744188075328E+00 -0.374442981211E+00 -0.553151482292E+00
 -0.651674676416E+00  0.753694638922E+00 -0.852320795132E-01
 -0.939924833512E+00  0.159615772757E+00  0.301768309197E+00
 -0.193067387271E+00 -0.824928792200E+00 -0.531241443951E+00
 -0.637443464096E+00 -0.264892715812E+00 -0.723531394752E+00
  0.183828386422E+00  0.674294393669E+00  0.715216187605E+00
  0.860455912717E-01 -0.333942949169E+00 -0.938657692092E+00
 -0.725793826850E-01  0.994628955128E+00  0.737934606142E-01
  0.539189227018E+00 -0.409660161425E+00  0.735835259830E+00
  0.256703611192E+00 -0.868117597752E+00 -0.424823601597E+00
 -0.674288083875E+00  0.540160751195E+00  0.503549344963E+00
  0.903496390100E+00 -0.910853869066E-01 -0.418805116215E+00
  0.187536147968E+00  0.371489795546E+00  0.909299469378E+00
  0.506487097355E+00  0.183864889279E+00 -0.842415884645E+00
  0.254749136351E+00  0.424997786095E+00  0.868607943403E+00
  0.823666257434E+00 -0.563981149251E+00  0.591536951789E-01
  0.806454301539E+00  0.328606198067E+00  0.491578504535E+00
  0.705711157272E+00 -0.629387857243E+00 -0.325334731711E+00
 -0.342436194066E-01  0.127081510926E+00 -0.991300995718E+00
 -0.352345240635E+00  0.480934317597E-01 -0.934633539535E+00
 -0.930475950931E-01  0.966706873008E+00 -0.238369391338E+00
 -0.500873369075E+00 -0.792921226533E+00  0.346989620399E+00
 -0.756900107504E+00  0.222369206192E+00 -0.614535729961E+00
  0.192759706413E+00  0.145370616752E+00 -0.970417992088E+00
  0.876840626540E+00  0.480779973793E+00  0.106416623329E-02
 -0.547084763110E+00  0.798579692224E+00 -0.250935723124E+00
  0.609688306748E+00 -0.501193644491E+00 -0.614072552177E+00
 -0.580101947130E-01  0.883996264710E+00 -0.463880826600E+00
  0.518108769228E+00 -0.712932484208E+00  0.472536322636E+00
 -0.993839280659E-01  0.881157470162E+00  0.462260043288E+00
 -0.692800606139E-01  0.692522394223E+00 -0.718061979707E+00
  0.431756806767E+00  0.791586558229E+00 -0.432408118150E+00
 -0.391475630855E+00 -0.839383319145E+00  0.377070913738E+00
  0.306094260338E+00 -0.917675109232E+00  0.253335148930E+00
 -0.381329882612E+00  0.806927872519E+00 -0.451059784485E+00
 -0.836080207627E+00  0.469329508843E+00  0.284076923639E+00
 -0.233316046017E+00  0.212481508955E+00  0.948902118779E+00
  0.537574161778E+00  0.795822589492E+00 -0.278712085572E+00
  0.776381871517E+00  0.507526868174E+00 -0.373694618186E+00
  0.907869518536E-01  0.962469995347E+00 -0.255752297020E+00
  0.136167975727E+00  0.305197136481E-01  0.990215546972E+00
  0.529864586469E+00  0.479134515481E-01 -0.846727713711E+00
  0.883948991668E+00 -0.449816815340E+00  0.127667586989E+00
 -0.128305173770E+00 -0.899239309509E+00 -0.418218180640E+00
  0.194628483491E+00  0.940562874760E+00 -0.278318580116E+00
  0.659748050856E+00 -0.522171959089E+00  0.540434042722E+00
  0.300648233290E+00 -0.385484093235E+00 -0.872360392087E+00
 -0.133827428610E+00 -0.125872431970E+00 -0.982978306079E+00
POLYGONS                 246                 984
3                  81                  31                  40
3                  58                  79                  42
3                  81                  56                  24
3                  24                  31                  81
3                  79                  58                  57
3                  94                  92                  11
3                  28                  92                  94
3                  95                  43                  47
3                  96                  43                  95
3                 107                  47                  20
3                  20                  47                  43
3                  97                 104                  62
3                  67                  27                  79
3                  79                  57                  67
3                 112                  67                  87
3                  27                  67                 112
3                 124                  24                  56
3                 124                  96                  95
3                  24                 124                  83
3                 115                  68                 108
3                 108                 104                 121
3                  95                  47                 100
3                 100                  47                  68
3                 100                 124                  95
3                 100                  83                 124
3                  44                  68                 115
3                 115                  29                  44
3                  44                  29                  52
3                  88                  29                  14
3                  52                  29                  88
3                  88                  14                  28
3                  28                  94                  88
3                 103                 118                  77
3                 118                  52                  77
3                  52                  88                  77
[...]
CELL_DATA                 246
NORMALS normals float
 -0.838607861637E+00 -0.290459570738E+00 -0.460836296495E+00
 -0.998504174300E+00  0.540417901281E-01  0.830053160254E-02
 -0.415135607983E+00 -0.433690850994E+00 -0.799734126287E+00
 -0.455826229226E+00 -0.576717513369E+00 -0.677952327618E+00
 -0.909956915246E+00 -0.356982874678E-01  0.413163459986E+00
  0.619925787896E+00 -0.782583336623E+00 -0.570555759086E-01
  0.902653974454E+00 -0.373768741158E+00 -0.213337128824E+00
 -0.170049790810E+00  0.337508269740E+00 -0.925835426252E+00
 -0.231765466331E+00  0.261091551261E+00 -0.937078422799E+00
 -0.356126332613E-01  0.601834367109E+00 -0.797826506779E+00
 -0.179903985883E+00  0.381908385311E+00 -0.906521120048E+00
 -0.216591571946E+00  0.905200243424E+00 -0.365650940470E+00
 -0.942444786118E+00  0.297247051164E+00  0.153107856406E+00
 -0.877739770256E+00  0.732678953550E-01  0.473502598959E+00
 -0.803372102000E+00  0.356005176419E+00  0.477340109451E+00
 -0.909014313003E+00  0.339391912078E+00  0.241880360449E+00
 -0.204934884509E+00 -0.320939615713E+00 -0.924661806380E+00
 -0.184980231710E+00  0.405169874156E-01 -0.981906659315E+00
 -0.120399057775E+00 -0.326893489653E+00 -0.937360503387E+00
  0.575200588299E+00  0.578248824524E+00 -0.578595350964E+00
  0.190793790491E+00  0.835940405387E+00 -0.514588542578E+00
  0.617848601424E-01  0.314659386006E+00 -0.947191692244E+00
  0.210163679392E+00  0.374383378590E+00 -0.903143573138E+00
  0.970372008904E-01 -0.708655614526E-01 -0.992754679588E+00
  0.113483924177E+00 -0.908243332024E-01 -0.989379775138E+00
  0.586057153914E+00  0.556861462694E+00 -0.588593513141E+00
  0.723163802287E+00  0.366241827798E+00 -0.585577525724E+00
  0.728134661390E+00  0.339661919809E+00 -0.595356779683E+00
  0.909930495626E+00  0.862152114104E-01 -0.405701159045E+00
  0.853071272579E+00  0.865138318685E-01 -0.514572405786E+00
  0.942019030529E+00 -0.267503744425E+00 -0.202587987897E+00
  0.903160743653E+00 -0.369727418151E+00 -0.218179530183E+00
  0.581607693448E+00 -0.244217349554E+00 -0.775944828644E+00
  0.662886243536E+00 -0.170392909122E+00 -0.729073442563E+00
  0.770411603875E+00 -0.138031981380E+00 -0.622425202520E+00
  0.708803465265E+00 -0.526491387604E+00 -0.469472540632E+00
  0.888571970103E+00 -0.372880397885E+00 -0.267207901867E+00
 -0.141773817119E+00  0.101036977112E+00  0.984729259256E+00
 -0.885297414739E+00 -0.155078397272E+00  0.438405267026E+00
 -0.916628743330E+00 -0.356976954148E+00  0.179886634045E+00
  0.727893194222E+00 -0.884581949141E-01  0.679960767661E+00
 -0.861512115100E+00 -0.491635269019E+00  0.126852819411E+00
 -0.845211296704E+00 -0.515038868791E+00  0.142663336420E+00
 -0.888120829893E+00 -0.458708395325E+00 -0.287749816497E-01
 -0.843811387743E+00 -0.467274289251E+00 -0.263888386483E+00
 -0.317409569725E+00 -0.737190705840E+00  0.596490593614E+00
 -0.515721250042E+00 -0.200095999736E+00 -0.833062532554E+00
 -0.260119269432E+00 -0.107176221754E+00 -0.959609932817E+00
 -0.260475737853E+00 -0.593854597675E-01 -0.963652300967E+00
 -0.869961476407E+00 -0.144318705808E+00 -0.471528515280E+00
 -0.352501908687E-01  0.965426390517E+00  0.258281452173E+00
 -0.421222600708E+00  0.906954111598E+00 -0.240002245460E-02
 -0.212126687107E+00  0.974492550430E+00 -0.732566568581E-01
 -0.279079619656E+00  0.956291700984E+00 -0.872968986959E-01
  0.197293377975E-02  0.775188666691E+00  0.631726711931E+00
  0.322687749130E-01  0.791107531999E+00  0.610825342450E+00
  0.912132814210E+00  0.335797077123E+00  0.235061805141E+00
  0.895690089791E+00  0.390775934848E+00 -0.212210819218E+00
  0.956073912773E+00  0.257573495382E+00 -0.139923435460E+00
  0.986160207758E+00  0.154803356139E+00  0.593629982677E-01
  0.978765925157E+00  0.160345233112E+00  0.127697572296E+00
  0.261330406855E+00  0.963937634979E+00  0.503056092697E-01
  0.191385636207E+00  0.963233926604E+00  0.188552223252E+00
  0.388686976324E+00 -0.437458318430E+00  0.810896204253E+00
 -0.288662297604E-01 -0.245476143286E+00  0.968972757025E+00
  0.664976244125E+00  0.242096012572E+00  0.706538120307E+00
  0.685449833928E+00  0.155736402002E+00  0.711269778818E+00
  0.363870537681E+00 -0.715793163908E+00  0.596018773455E+00
  0.101058674021E+00  0.904905957165E+00 -0.413439660763E+00
 -0.110776144218E-01  0.938230017048E+00 -0.345834818330E+00
  0.208012713556E+00  0.978096046977E+00  0.767032515443E-02
  0.144390622126E-01  0.995835158740E+00 -0.900213869040E-01
 -0.760998493378E+00  0.644089493355E+00  0.776531881283E-01
 -0.776698946628E+00  0.617322741344E+00 -0.125105472804E+00
 -0.870693612610E+00  0.430942010672E+00 -0.237026615379E+00
 -0.957753553353E+00  0.276165732798E+00  0.802534676419E-01
 -0.989878897536E+00  0.116226778904E+00 -0.814315914045E-01
 -0.983506020605E+00  0.112217173043E+00 -0.141856312895E+00
 -0.962484333161E+00  0.124920413511E+00 -0.240870917108E+00
 -0.248152445736E+00  0.696683989585E+00 -0.673091213975E+00
 -0.769688894699E-01  0.798001865590E+00 -0.597719677247E+00
 -0.250324895484E+00  0.887886552525E+00 -0.385998596559E+00
 -0.218292810175E+00  0.903483658493E+00 -0.368870611274E+00
 -0.384801081086E+00  0.606667110581E+00 -0.695617096494E+00
 -0.369454863626E+00  0.679053058767E+00 -0.634342216097E+00
 -0.357990042332E+00  0.656254006657E+00 -0.664209160083E+00
 -0.681235262739E+00  0.578168494278E+00 -0.449043103751E+00
 -0.385594929649E-02 -0.836582828606E+00 -0.547826891032E+00
 -0.766294317817E-01 -0.702157108514E+00 -0.707886519965E+00
 -0.443854610305E+00 -0.598932762672E+00 -0.666537793909E+00
 -0.344100393262E+00 -0.862887590621E+00 -0.370162025752E+00
 -0.464825567020E+00 -0.727245845795E+00 -0.505025417199E+00
  0.515730132020E+00 -0.706215902577E+00 -0.485058274719E+00
  0.403525065861E+00 -0.674447871143E+00 -0.618294096958E+00
  0.116962646876E+00 -0.568788549281E+00 -0.814124883198E+00
  0.116115308362E+00 -0.566205637744E+00 -0.816044368249E+00
  0.366739765655E+00 -0.602619403511E+00 -0.708767803162E+00
  0.563508745889E+00 -0.251489839662E+00 -0.786899456000E+00
  0.314088792947E+00 -0.110346077069E+00 -0.942959157875E+00
  0.265950573432E+00 -0.122568400575E+00 -0.956162789315E+00
  0.614391144177E+00  0.654229275504E+00 -0.441030131658E+00
  0.372885487693E+00  0.884274061353E+00 -0.281097487514E+00
  0.385437492315E+00  0.674141289080E+00 -0.630056713222E+00
  0.198140165980E+00  0.524555761390E+00 -0.827998627908E+00
  0.190665454658E+00  0.834388244495E+00 -0.517148858500E+00
  0.621334180325E+00  0.131340617644E+00 -0.772459370140E+00
  0.631391192136E+00  0.204484808623E+00 -0.748018131823E+00
  0.366418270039E+00  0.923716758137E-01 -0.925853727588E+00
  0.326796588588E+00  0.307860109250E+00 -0.893546944945E+00
  0.377813965100E+00  0.323951042011E+00 -0.867359400800E+00
 -0.300558412216E+00  0.485474659241E+00  0.820962237914E+00
 -0.176735758834E+00  0.741906898563E+00  0.646791021439E+00
 -0.710252555500E+00 -0.153091288617E-01  0.703780461493E+00
 -0.830421086153E+00  0.155830872140E+00  0.534899578389E+00
  0.789053183745E+00 -0.563492252771E+00  0.244686645095E+00
  0.909950570901E+00 -0.377694200123E+00 -0.171280616858E+00
 -0.398451111495E+00 -0.915467433967E+00  0.561790805668E-01
 -0.272114474908E+00 -0.945169660488E+00 -0.180576923884E+00
 -0.545938927842E-01 -0.975956181921E+00 -0.211019046157E+00
 -0.403580211262E+00 -0.913147495673E+00  0.573119902336E-01
 -0.737470952921E+00 -0.642515887920E+00  0.208110373045E+00
 -0.694571818383E+00 -0.626156953116E+00  0.354256205553E+00
 -0.451434257382E+00 -0.743576244396E+00  0.493255998475E+00
 -0.926473602882E-01 -0.835210408480E+00  0.542070143246E+00
 -0.103176604103E+00 -0.825470228721E+00  0.554935572713E+00
  0.279460899668E-01 -0.502766511644E+00  0.863970399276E+00
  0.287941129281E+00 -0.604654456146E+00  0.742618943154E+00
  0.259934610690E+00 -0.538158449147E+00  0.801760239583E+00
 -0.683230445087E+00 -0.445915183815E+00  0.578235080006E+00
 -0.723523830566E+00 -0.121575096248E+00  0.679509207130E+00
 -0.798648769975E+00 -0.281200033255E+00  0.532058909817E+00
 -0.819113170528E+00 -0.233374555793E+00  0.524013292365E+00
 -0.439869078564E+00  0.212292329133E+00 -0.872609397562E+00
 -0.431830300099E+00 -0.232890651785E-01 -0.901654152855E+00
 -0.541057561624E+00 -0.147740383181E+00 -0.827906694131E+00
 -0.565610156183E+00 -0.131669249349E+00 -0.814093581843E+00
 -0.648402044423E+00  0.435594057005E+00 -0.624365763227E+00
 -0.606950312832E+00  0.425830858608E+00 -0.671028611619E+00
 -0.958578372644E+00  0.117071957051E+00 -0.259656812682E+00
 -0.887998746798E+00 -0.849233192537E-01 -0.451936118862E+00
 -0.580949924991E+00  0.249033973834E+00 -0.774905971412E+00
 -0.615841054154E+00  0.191368803933E+00 -0.764275982156E+00
  0.531390923222E+00  0.370724140769E+00  0.761700267933E+00
  0.133004127150E+00  0.544956406711E+00  0.827848063926E+00
  0.133660851748E+00  0.548901094992E+00  0.825131725621E+00
  0.369460671414E+00  0.680741926614E+00  0.632526079801E+00
  0.870422709825E+00  0.420838319886E+00  0.255459223237E+00
  0.703905093465E+00  0.569480773686E+00  0.424510621535E+00
  0.664728592374E+00  0.615161008464E+00  0.423925503060E+00
  0.182297708743E+00  0.813847086522E+00  0.551743115179E+00
  0.229668195012E+00  0.901134081016E+00  0.367708972193E+00
  0.370166929199E+00  0.682128869295E+00  0.630616087808E+00
  0.498477516183E+00  0.661868678029E+00  0.559866072292E+00
  0.593756490534E+00  0.661688861489E+00  0.457843947792E+00
  0.538433334803E+00  0.738128441316E+00  0.406516848474E+00
 -0.532832015064E-01 -0.277729417056E+00  0.959180520725E+00
 -0.612345356202E-01 -0.354582285283E+00  0.933017542499E+00
 -0.447558586053E+00 -0.759851032184E-01  0.891020525094E+00
 -0.543495930726E+00 -0.272325854255E+00  0.794009321349E+00
 -0.441569418940E+00 -0.495686867536E+00  0.747870963208E+00
 -0.530016738540E+00 -0.433010709989E+00  0.729098060553E+00
  0.680161268237E+00 -0.393434158770E-01  0.732005973211E+00
  0.677127980497E+00 -0.263795215887E-01  0.735392289101E+00
  0.448788653761E+00 -0.240898110218E+00  0.860556125275E+00
 -0.238057096066E-01 -0.242704709254E+00  0.969808080135E+00
  0.187236064782E-01 -0.998720204390E+00  0.469827617741E-01
 -0.294742696697E-01 -0.893147770852E+00  0.448796531682E+00
 -0.119442834912E+00 -0.942981775634E+00  0.310674717367E+00
 -0.619828635530E+00  0.691642161005E+00 -0.370733844823E+00
 -0.671808349341E+00  0.702914385200E+00 -0.233634134566E+00
 -0.441866577523E+00  0.896354129369E+00 -0.360998951587E-01
  0.442204778020E+00 -0.891983906527E+00 -0.939129639288E-01
  0.308878034952E+00 -0.950773415694E+00  0.249854264427E-01
  0.509961398524E+00 -0.856943140776E+00 -0.747517591251E-01
  0.492071613187E+00 -0.865734306682E+00 -0.914857241859E-01
  0.491026721947E+00 -0.820833230717E+00  0.291762858644E+00
  0.290949604277E+00 -0.823216678205E+00  0.487506542004E+00
  0.377641408857E-02 -0.895606344075E+00  0.444831445773E+00
  0.621625368785E-01 -0.872051290719E+00 -0.485450682732E+00
  0.227234069399E+00 -0.810709814444E+00 -0.539550066692E+00
  0.726734800996E-01 -0.957957673588E+00 -0.277552987559E+00
  0.390197412550E+00 -0.911755872305E+00 -0.128246670741E+00
  0.382575748181E+00  0.906949101022E+00 -0.176292725483E+00
  0.266616172026E+00  0.962601223067E+00  0.481113517097E-01
  0.427517412037E+00  0.897818514410E+00  0.105597242331E+00
  0.650385693766E+00  0.756266793221E+00  0.711265549284E-01
  0.738767843216E+00  0.669602785528E+00 -0.765126358404E-01
  0.739498852976E+00  0.655906762037E+00 -0.151419173031E+00
  0.733467267972E+00  0.660477274879E+00 -0.160609888181E+00
  0.431379167787E-01  0.797070581306E+00 -0.602343430738E+00
  0.857564091584E-01  0.805464757565E+00 -0.586406311877E+00
 -0.103918958352E-01  0.609395314916E+00 -0.792798435076E+00
  0.156172254425E+00  0.554218498852E+00 -0.817589189311E+00
 -0.446209790406E+00  0.892209930351E+00  0.697012419481E-01
 -0.550661911974E+00  0.680249221213E+00  0.483769010728E+00
 -0.700052025929E+00  0.644171269325E+00  0.308172900769E+00
 -0.706500374030E+00  0.688790437630E+00  0.162557542194E+00
 -0.711000188527E+00  0.667052658425E+00  0.222529734650E+00
 -0.393573705863E+00  0.440300020776E+00  0.806991716041E+00
 -0.531251177076E+00  0.489797108462E+00  0.691282127208E+00
 -0.789892367103E+00  0.323409613334E+00  0.521033847649E+00
 -0.803155616495E+00  0.245066921669E+00  0.543031545673E+00
  0.786886096396E+00 -0.517107030417E+00  0.336764888895E+00
  0.813232588821E+00 -0.455779438569E+00  0.361825731337E+00
  0.657404450233E+00 -0.633407237266E+00  0.408184591322E+00
  0.746861194985E+00 -0.261534391177E+00  0.611390315312E+00
  0.556906614720E+00 -0.523353145970E+00  0.644946902531E+00
  0.533131931970E+00 -0.605985352476E+00  0.590383007630E+00
  0.938078922299E+00 -0.311228229234E+00  0.152134561706E+00
  0.853315055572E+00 -0.411874055769E+00  0.319707957545E+00
  0.972205009381E+00  0.543695341230E-01  0.227730923446E+00
  0.946830816858E+00  0.933519064221E-02  0.321596421720E+00
 -0.560521108950E+00 -0.826114861439E+00  0.578819672334E-01
 -0.655957842228E+00 -0.745162887714E+00  0.120214724530E+00
 -0.640741169050E+00 -0.708812433037E+00 -0.295018116489E+00
 -0.776638419594E+00 -0.573448638478E+00 -0.260747817323E+00
  0.186428975433E+00  0.526950344078E+00  0.829196944034E+00
  0.389491043589E+00  0.504967789080E+00  0.770262461084E+00
  0.371279033878E+00  0.371095647775E+00  0.851140352236E+00
  0.438040939641E+00  0.404531941867E+00  0.802791407034E+00
  0.309770698906E+00  0.297620519340E+00  0.903030531359E+00
  0.119034070158E+00  0.212244875633E+00  0.969939690346E+00
 -0.212766284037E-01  0.294285788594E+00  0.955480601433E+00
  0.105410839784E+00  0.514667794581E+00  0.850885195592E+00
 -0.650121425900E-01  0.399785547319E+00  0.914300244707E+00
  0.204315609239E+00 -0.189765461565E+00  0.960335462960E+00
  0.140708030195E+00 -0.191695807209E+00  0.971315586067E+00
  0.378620832426E+00  0.112973234476E+00  0.918631217380E+00
  0.272915935914E+00  0.194106888859E+00  0.942252305713E+00
  0.241712773522E+00  0.189429308734E+00  0.951678239800E+00
 -0.528422680778E+00  0.745015095632E+00 -0.407089643345E+00
 -0.529038726043E+00  0.744845544647E+00 -0.406599484711E+00
 -0.381283083611E+00  0.846656580883E+00 -0.371208626246E+00
 -0.460174976678E+00  0.871034342114E+00 -0.171866709103E+00
 -0.301899092474E+00  0.819554047105E+00  0.487019611347E+00
 -0.363402795176E+00  0.813628925057E+00  0.453813156232E+00
 -0.444653146985E+00  0.892728587474E+00  0.729331747761E-01
 -0.837799054249E-01  0.953630092503E+00  0.289085755651E+00
 -0.851876568074E-01  0.952498913773E+00  0.292384819014E+00
 -0.402013666050E+00  0.416851186863E+00  0.815242356799E+00
 -0.404845363170E+00  0.105186273961E+00  0.908314967228E+00
 -0.460889206168E+00 -0.166179920116E-01  0.887302080455E+00
 -0.609870175205E+00  0.324978336399E-01  0.791834742989E+00
 -0.784320349563E+00  0.238119131572E+00  0.572835812813E+00
 -0.638502175285E+00  0.166305136660E+00  0.751437005794E+00
 -0.566108672422E+00  0.270340633327E+00  0.778740594152E+00
SCALARS inclination float 1
LOOKUP_TABLE default
  0.100000000000E+01
  0.100000000000E+01
  0.100000000000E+01
  0.100000000000E+01
  0.100000000000E+01
  0.100000000000E+01
  0.100000000000E+01
  0.100000000000E+01
  0.100000000000E+01
  0.100000000000E+01
  0.100000000000E+01
  0.100000000000E+01
  0.100000000000E+01
  0.100000000000E+01
  0.100000000000E+01
  0.100000000000E+01
  0.100000000000E+01
  0.100000000000E+01
  0.100000000000E+01
  0.100000000000E+01
  0.100000000000E+01
  0.100000000000E+01
  0.100000000000E+01
  0.100000000000E+01
  0.100000000000E+01
  0.100000000000E+01
  0.100000000000E+01
  0.100000000000E+01
  0.100000000000E+01
  0.100000000000E+01
  0.100000000000E+01
  0.100000000000E+01
  0.100000000000E+01
  0.100000000000E+01
  0.100000000000E+01
  0.100000000000E+01
  0.100000000000E+01
  0.100000000000E+01
  0.100000000000E+01
  0.100000000000E+01
  0.100000000000E+01
  0.100000000000E+01
  0.100000000000E+01
  0.100000000000E+01
  0.100000000000E+01
  0.100000000000E+01
  0.100000000000E+01
  0.100000000000E+01
  0.100000000000E+01
  0.100000000000E+01
  0.100000000000E+01
  0.100000000000E+01
  0.100000000000E+01
  0.100000000000E+01
  0.100000000000E+01
  0.100000000000E+01
  0.100000000000E+01
  0.100000000000E+01
  0.100000000000E+01
  0.100000000000E+01
  0.100000000000E+01
  0.100000000000E+01
  0.100000000000E+01
  0.100000000000E+01
  0.100000000000E+01
  0.100000000000E+01
  0.100000000000E+01
  0.100000000000E+01
  0.100000000000E+01
  0.100000000000E+01
  0.100000000000E+01
  0.100000000000E+01
  0.100000000000E+01
  0.100000000000E+01
  0.100000000000E+01
  0.100000000000E+01
  0.100000000000E+01
  0.100000000000E+01
  0.100000000000E+01
  0.100000000000E+01
  0.100000000000E+01
  0.100000000000E+01
  0.100000000000E+01
  0.100000000000E+01
  0.100000000000E+01
  0.100000000000E+01
  0.100000000000E+01
  0.100000000000E+01
  0.100000000000E+01
  0.100000000000E+01
  0.100000000000E+01
  0.100000000000E+01
  0.100000000000E+01
  0.100000000000E+01
  0.100000000000E+01
  0.100000000000E+01
  0.100000000000E+01
  0.100000000000E+01
  0.100000000000E+01
  0.100000000000E+01
  0.100000000000E+01
  0.100000000000E+01
  0.100000000000E+01
  0.100000000000E+01
  0.100000000000E+01
  0.100000000000E+01
  0.100000000000E+01
  0.100000000000E+01
  0.100000000000E+01
  0.100000000000E+01
  0.100000000000E+01
  0.100000000000E+01
  0.100000000000E+01
  0.100000000000E+01
  0.100000000000E+01
  0.100000000000E+01
  0.100000000000E+01
  0.100000000000E+01
  0.100000000000E+01
  0.100000000000E+01
  0.100000000000E+01
  0.100000000000E+01
  0.100000000000E+01
  0.100000000000E+01
  0.100000000000E+01
  0.100000000000E+01
  0.100000000000E+01
  0.100000000000E+01
  0.100000000000E+01
  0.100000000000E+01
  0.100000000000E+01
  0.100000000000E+01
  0.100000000000E+01
  0.100000000000E+01
  0.100000000000E+01
  0.100000000000E+01
  0.100000000000E+01
  0.100000000000E+01
  0.100000000000E+01
  0.100000000000E+01
  0.100000000000E+01
  0.100000000000E+01
  0.100000000000E+01
  0.100000000000E+01
  0.100000000000E+01
  0.100000000000E+01
  0.100000000000E+01
  0.100000000000E+01
  0.100000000000E+01
  0.100000000000E+01
  0.100000000000E+01
  0.100000000000E+01
  0.100000000000E+01
  0.100000000000E+01
  0.100000000000E+01
  0.100000000000E+01
  0.100000000000E+01
  0.100000000000E+01
  0.100000000000E+01
  0.100000000000E+01
  0.100000000000E+01
  0.100000000000E+01
  0.100000000000E+01
  0.100000000000E+01
  0.100000000000E+01
  0.100000000000E+01
  0.100000000000E+01
  0.100000000000E+01
  0.100000000000E+01
  0.100000000000E+01
  0.100000000000E+01
  0.100000000000E+01
  0.100000000000E+01
  0.100000000000E+01
  0.100000000000E+01
  0.100000000000E+01
  0.100000000000E+01
  0.100000000000E+01
  0.100000000000E+01
  0.100000000000E+01
  0.100000000000E+01
  0.100000000000E+01
  0.100000000000E+01
  0.100000000000E+01
  0.100000000000E+01
  0.100000000000E+01
  0.100000000000E+01
  0.100000000000E+01
  0.100000000000E+01
  0.100000000000E+01
  0.100000000000E+01
  0.100000000000E+01
  0.100000000000E+01
  0.100000000000E+01
  0.100000000000E+01
  0.100000000000E+01
  0.100000000000E+01
  0.100000000000E+01
  0.100000000000E+01
  0.100000000000E+01
  0.100000000000E+01
  0.100000000000E+01
  0.100000000000E+01
  0.100000000000E+01
  0.100000000000E+01
  0.100000000000E+01
  0.100000000000E+01
  0.100000000000E+01
  0.100000000000E+01
  0.100000000000E+01
  0.100000000000E+01
  0.100000000000E+01
  0.100000000000E+01
  0.100000000000E+01
  0.100000000000E+01
  0.100000000000E+01
  0.100000000000E+01
  0.100000000000E+01
  0.100000000000E+01
  0.100000000000E+01
  0.100000000000E+01
  0.100000000000E+01
  0.100000000000E+01
  0.100000000000E+01
  0.100000000000E+01
  0.100000000000E+01
  0.100000000000E+01
  0.100000000000E+01
  0.100000000000E+01
  0.100000000000E+01
  0.100000000000E+01
  0.100000000000E+01
  0.100000000000E+01