# vtk DataFile Version 3.0
PyPan mesh file. Generated by PyPan, USU AeroLab (c) 2020.
ASCII
DATASET POLYDATA
POINTS 8342 float
-4.79848623276      -3.0                0.0                 
-4.79848623276      3.0                 0.0                 
-4.7968044281       -2.99755358696      0.0                 
-4.7968044281       2.99755358696       0.0                 
-4.79591321945      -3.00016570091      0.0                 
-4.79591321945      3.00016570091       0.0                 
-4.79591226578      -3.00016474724      -1.73087828443e-05  
-4.79591226578      -3.00016474724      1.73087828443e-05   
-4.79591226578      3.00016474724       -1.73087828443e-05  
-4.79591226578      3.00016474724       1.73087828443e-05   
-4.79590940475      -3.00016188622      -3.44279287674e-05  
-4.79590940475      -3.00016188622      3.44279287674e-05   
-4.79590940475      3.00016188622       -3.44279287674e-05  
-4.79590940475      3.00016188622       3.44279287674e-05   
-4.79590511322      -3.00015759468      -5.11698708578e-05  
-4.79590511322      -3.00015759468      5.11698708578e-05   
-4.79590511322      3.00015759468       -5.11698708578e-05  
-4.79590511322      3.00015759468       5.11698708578e-05   
-4.7958984375       -3.00015115738      -6.73511895002e-05  
-4.7958984375       -3.00015115738      6.73511895002e-05   
-4.7958984375       3.00015115738       -6.73511895002e-05  
-4.7958984375       3.00015115738       6.73511895002e-05   
-4.79589080811      -3.00014328957      -8.27945914352e-05  
-4.79589080811      -3.00014328957      8.27945914352e-05   
-4.79589080811      3.00014328957       -8.27945914352e-05  
-4.79589080811      3.00014328957       8.27945914352e-05   
-4.79588127136      -3.00013399124      -9.73308779066e-05  
-4.79588127136      -3.00013399124      9.73308779066e-05   
-4.79588127136      3.00013399124       -9.73308779066e-05  
-4.79588127136      3.00013399124       9.73308779066e-05   
-4.79587030411      -3.00012302399      -0.000110800792754  
-4.79587030411      -3.00012302399      0.000110800792754   
-4.79587030411      3.00012302399       -0.000110800792754  
-4.79587030411      3.00012302399       0.000110800792754   
-4.79585838318      -3.00011086464      -0.000123056743178  
-4.79585838318      -3.00011086464      0.000123056743178   
-4.79585838318      3.00011086464       -0.000123056743178  
-4.79585838318      3.00011086464       0.000123056743178   
-4.7958445549       -3.00009727478      -0.000133964465931  
-4.7958445549       -3.00009727478      0.000133964465931   
-4.7958445549       3.00009727478       -0.000133964465931  
-4.7958445549       3.00009727478       0.000133964465931   
-4.79583024979      -3.00008273125      -0.000143404438859  
-4.79583024979      -3.00008273125      0.000143404438859   
-4.79583024979      3.00008273125       -0.000143404438859  
-4.79583024979      3.00008273125       0.000143404438859   
-4.79581451416      -3.00006723404      -0.000151273241499  
-4.79581451416      -3.00006723404      0.000151273241499   
-4.79581451416      3.00006723404       -0.000151273241499  
-4.79581451416      3.00006723404       0.000151273241499   
-4.79579877853      -3.00005125999      -0.000157484668307  
-4.79579877853      -3.00005125999      0.000157484668307   
-4.79579877853      3.00005125999       -0.000157484668307  
-4.79579877853      3.00005125999       0.000157484668307   
-4.7957816124       -3.00003433228      -0.000161970659974  
-4.7957816124       -3.00003433228      0.000161970659974   
-4.7957816124       3.00003433228       -0.000161970659974  
-4.7957816124       3.00003433228       0.000161970659974   
-4.7957649231       -3.00001740456      -0.000164682074683  
-4.7957649231       -3.00001740456      0.000164682074683   
-4.7957649231       3.00001740456       -0.000164682074683  
-4.7957649231       3.00001740456       0.000164682074683   
-4.79574728012      -3.0                -0.00016558918287   
-4.79574728012      -3.0                0.00016558918287    
-4.79574728012      3.0                 -0.00016558918287   
-4.79574728012      3.0                 0.00016558918287    
-4.79406261444      -2.99755358696      -0.000165757970535  
-4.79406261444      -2.99755358696      0.000165757970535   
-4.79406261444      2.99755358696       -0.000165757970535  
-4.79406261444      2.99755358696       0.000165757970535   
-4.79176425934      -2.99022269249      0.0                 
-4.79176425934      2.99022269249       0.0                 
-4.78901433945      -2.99022269249      -0.000166263780557  
-4.78901433945      -2.99022269249      0.000166263780557   
-4.78901433945      2.99022269249       -0.000166263780557  
-4.78901433945      2.99022269249       0.000166263780557   
-4.78821754456      -3.0006570816       0.0                 
-4.78821754456      3.0006570816        0.0                 
-4.78821372986      -3.00065350533      -6.86810381012e-05  
-4.78821372986      -3.00065350533      6.86810381012e-05   
-4.78821372986      3.00065350533       -6.86810381012e-05  
-4.78821372986      3.00065350533       6.86810381012e-05   
-4.7882027626       -3.00064277649      -0.000136609596666  
-4.7882027626       -3.00064277649      0.000136609596666   
-4.7882027626       3.00064277649       -0.000136609596666  
-4.7882027626       3.00064277649       0.000136609596666   
-4.78818511963      -3.0006248951       -0.000203041432542  
-4.78818511963      -3.0006248951       0.000203041432542   
-4.78818511963      3.0006248951        -0.000203041432542  
-4.78818511963      3.0006248951        0.000203041432542   
-4.7881603241       -3.00060033798      -0.000267248717137  
-4.7881603241       -3.00060033798      0.000267248717137   
-4.7881603241       3.00060033798       -0.000267248717137  
-4.7881603241       3.00060033798       0.000267248717137   
-4.78812932968      -3.00056910515      -0.000328527938109  
-4.78812932968      -3.00056910515      0.000328527938109   
-4.78812932968      3.00056910515       -0.000328527938109  
-4.78812932968      3.00056910515       0.000328527938109   
-4.78809165955      -3.00053167343      -0.000386207742849  
-4.78809165955      -3.00053167343      0.000386207742849   
-4.78809165955      3.00053167343       -0.000386207742849  
-4.78809165955      3.00053167343       0.000386207742849   
-4.7880487442       -3.00048828125      -0.000439656199887  
-4.7880487442       -3.00048828125      0.000439656199887   
-4.7880487442       3.00048828125       -0.000439656199887  
-4.7880487442       3.00048828125       0.000439656199887   
-4.78800010681      -3.00043964386      -0.000488287652843  
-4.78800010681      -3.00043964386      0.000488287652843   
-4.78800010681      3.00043964386       -0.000488287652843  
-4.78800010681      3.00043964386       0.000488287652843   
-4.78794622421      -3.0003862381       -0.000531569356099  
-4.78794622421      -3.0003862381       0.000531569356099   
-4.78794622421      3.0003862381        -0.000531569356099  
-4.78794622421      3.0003862381        0.000531569356099   
-4.78788900375      -3.0003285408       -0.000569027091842  
-4.78788900375      -3.0003285408       0.000569027091842   
-4.78788900375      3.0003285408        -0.000569027091842  
-4.78788900375      3.0003285408        0.000569027091842   
-4.78782749176      -3.00026726723      -0.000600250437856  
-4.78782749176      -3.00026726723      0.000600250437856   
-4.78782749176      3.00026726723       -0.000600250437856  
-4.78782749176      3.00026726723       0.000600250437856   
-4.78776311874      -3.00020313263      -0.000624897249509  
-4.78776311874      -3.00020313263      0.000624897249509   
-4.78776311874      3.00020313263       -0.000624897249509  
-4.78776311874      3.00020313263       0.000624897249509   
-4.78769683838      -3.00013661385      -0.000642697617877  
-4.78769683838      -3.00013661385      0.000642697617877   
-4.78769683838      3.00013661385       -0.000642697617877  
-4.78769683838      3.00013661385       0.000642697617877   
-4.7876291275       -3.00006866455      -0.000653456430882  
-4.7876291275       -3.00006866455      0.000653456430882   
-4.7876291275       3.00006866455       -0.000653456430882  
-4.7876291275       3.00006866455       0.000653456430882   
-4.78756046295      -3.0                -0.000657055876218  
-4.78756046295      -3.0                0.000657055876218   
-4.78756046295      3.0                 -0.000657055876218  
-4.78756046295      3.0                 0.000657055876218   
-4.7858672142       -2.99755358696      -0.000657725613564  
-4.7858672142       -2.99755358696      0.000657725613564   
-4.7858672142       2.99755358696       -0.000657725613564  
-4.7858672142       2.99755358696       0.000657725613564   
-4.78338241577      -2.97803068161      0.0                 
-4.78338241577      2.97803068161       0.0                 
-4.78079366684      -2.99022269249      -0.00065973267192   
-4.78079366684      -2.99022269249      0.00065973267192    
-4.78079366684      2.99022269249       -0.00065973267192   
-4.78079366684      2.99022269249       0.00065973267192    
-4.7806186676       -2.97803068161      -0.000167104968568  
-4.7806186676       -2.97803068161      0.000167104968568   
-4.7806186676       2.97803068161       -0.000167104968568  
-4.7806186676       2.97803068161       0.000167104968568   
-4.77547359467      -3.00145888329      0.0                 
-4.77547359467      3.00145888329       0.0                 
-4.77546548843      -3.00145101547      -0.00015249667922   
-4.77546548843      -3.00145101547      0.00015249667922    
-4.77546548843      3.00145101547       -0.00015249667922   
-4.77546548843      3.00145101547       0.00015249667922    
-4.77544164658      -3.0014269352       -0.000303322565742  
-4.77544164658      -3.0014269352       0.000303322565742   
-4.77544164658      3.0014269352        -0.000303322565742  
[...]
CELL_DATA 16680
SCALARS panel_area float 1
LOOKUP_TABLE default
1.68129040059e-05   
1.67716323879e-05   
5.02520497404e-05   
5.01291253197e-05   
8.31335286968e-05   
8.29301349654e-05   
0.00011509361608    
0.000114811802822   
0.000145780765827   
0.000145424463828   
0.000174860199221   
0.000174432551445   
0.000202014057365   
0.000201519776595   
0.00022694818739    
0.000226392859337   
0.000249393257368   
0.000248783042007   
0.000269106500161   
0.000268448399381   
0.000285876051188   
0.000285176780571   
0.000299522853162   
0.000298789998224   
0.00030990312218    
0.000309144964415   
0.000316912616507   
0.000316137399362   
0.000320488106667   
0.00031970409871    
0.000320610932598   
0.000319826468787   
0.000317309863138   
0.000316533674888   
0.000310664180097   
0.000309904228852   
0.000300805087774   
0.000300069086711   
0.000287916851313   
0.000287212520017   
0.000272236956694   
0.000271571000843   
0.000254055394985   
0.000253433910598   
0.000233717748282   
0.000233146015329   
0.000211639037225   
0.000211121324273   
0.000188339643504   
0.000187878720423   
0.000164527328522   
0.000164124609092   
0.00014126247346    
0.000140917323536   
0.000120264664402   
0.000119970284431   
0.000104317130634   
0.000104062033405   
9.71622438203e-05   
9.69245994783e-05   
9.71622438203e-05   
9.69245994783e-05   
0.000104317130634   
0.000104062033405   
0.000120264664402   
0.000119970284431   
0.00014126247346    
0.000140917323536   
0.000164527328522   
0.000164124609092   
0.000188339643504   
0.000187878720423   
0.000211639037225   
0.000211121324273   
0.000233717748282   
0.000233146015329   
0.000254055394985   
0.000253433910598   
0.000272236956694   
0.000271571000843   
0.000287916851313   
0.000287212520017   
0.000300805087774   
0.000300069086711   
0.000310664180097   
0.000309904228852   
0.000317309863138   
0.000316533674888   
0.000320610932598   
0.000319826468787   
0.000320488106667   
0.00031970409871    
0.000316912616507   
0.000316137399362   
0.00030990312218    
0.000309144964415   
0.000299522853162   
0.000298789998224   
0.000285876051188   
0.000285176780571   
0.000269106500161   
0.000268448399381   
0.000249393257368   
0.000248783042007   
0.00022694818739    
0.000226392859337   
0.000202014057365   
0.000201519776595   
0.000174860199221   
0.000174432551445   
0.000145780765827   
0.000145424463828   
0.00011509361608    
0.000114811802822   
8.31335286968e-05   
8.29301349654e-05   
5.02520497404e-05   
5.01291253197e-05   
1.68129040059e-05   
1.67716323879e-05   
5.0260190773e-05    
4.98909207256e-05   
0.000150223862515   
0.000149119613863   
0.000248519896756   
0.000246694001407   
0.000344061015482   
0.000341532982383   
0.000435799052908   
0.000432596304029   
0.000522728657291   
0.000518886495682   
0.000603901964907   
0.000599463597061   
0.000678440113712   
0.000673454773474   
0.000745537685213   
0.000740058852892   
0.000804469616801   
0.00079855685611    
0.0008546001058     
0.000848319925253   
0.000895395276344   
0.000888814872079   
0.000926426351095   
0.000919618089499   
0.000947381143173   
0.000940418627674   
0.00095806943806    
0.000951028744998   
0.000958436327152   
0.000951392804094   
0.000948568618586   
0.000941597777518   
0.000928701907306   
0.00092187674325    
0.000899228653296   
0.00089262010644    
0.000860700497475   
0.000854375198689   
0.000813826978656   
0.000807846113041   
0.000759474967354   
0.000753893535659   
0.000698677493448   
0.000693543191438   
0.00063267544542    
0.000628025507925   
0.000563023342322   
0.000558885779717   
0.000491837906404   
0.00048822367636    
0.000422291520037   
0.000419187259425   
0.000359519212129   
0.000356878172874   
0.000311846147697   
0.000309553748935   
0.000290457080346   
0.000288322748884   
0.000290457080346   
0.000288322748884   
0.000311846147697   
0.000309553748935   
0.000359519212129   
0.000356878172874   
0.000422291520037   
0.000419187259425   
0.000491837906404   
0.00048822367636    
0.000563023342322   
0.000558885779717   
0.00063267544542    
0.000628025507925   
0.000698677493448   
0.000693543191438   
0.000759474967354   
0.000753893535659   
0.000813826978656   
0.000807846113041   
0.000860700497475   
0.000854375198689   
0.000899228653296   
0.00089262010644    
0.000928701907306   
0.00092187674325    
0.000948568618586   
0.000941597777518   
0.000958436327152   
0.000951392804094   
0.00095806943806    
0.000951028744998   
0.000947381143173   
0.000940418627674   
0.000926426351095   
0.000919618089499   
0.000895395276344   
0.000888814872079   
0.0008546001058     
0.000848319925253   
0.000804469616801   
0.00079855685611    
0.000745537685213   
0.000740058852892   
0.000678440113712   
0.000673454773474   
0.000603901964907   
0.000599463597061   
0.000522728657291   
0.000518886495682   
0.000435799052908   
0.000432596304029   
0.000344061015482   
0.000341532982383   
0.000248519896756   
0.000246694001407   
0.000150223862515   
0.000149119613863   
5.0260190773e-05    
4.98909207256e-05   
8.2970696784e-05    
8.19496072358e-05   
0.000247992195419   
0.000244939299208   
0.000410262491353   
0.000405210294775   
0.000567983647575   
0.00056099115962    
0.000719425790876   
0.000710568057704   
0.0008629300571     
0.000852303964572   
0.000996933128825   
0.00098466039628    
0.00111998360722    
0.00110619416306    
0.00123074896696    
0.00121559606761    
0.00132803355894    
0.00131168186915    
0.00141079167544    
0.00139342145905    
0.00147813649068    
0.00145993672127    
0.00152936352173    
0.00151053420765    
0.00156395566389    
0.00154469997602    
0.0015816007593     
0.00156212778121    
0.00158220613906    
0.0015627256174     
0.00156591663134    
0.0015466365042     
0.00153311983445    
0.00151424382249    
0.00148446475189    
0.00146618783003    
0.00142086186752    
0.00140336789803    
0.00134348207515    
0.00132694072105    
0.0012537566005     
0.00123832023333    
0.00115339140057    
0.00113919039307    
0.00104443293683    
0.0010315735238     
0.000929450311403   
0.00091800717394    
0.000811936530653   
0.000801939245249   
0.000697126108229   
0.00068854387312    
0.000593503216657   
0.000586194297936   
0.000514801708685   
0.00050846411259    
0.000479493218845   
0.000473589177888   
0.000479493218845   
0.000473589177888   
0.000514801708685   
0.00050846411259    
0.000593503216657   
0.000586194297936   
0.000697126108229   
0.00068854387312    
0.000811936530653   
0.000801939245249   
0.000929450311403   
0.00091800717394    
0.00104443293683    
0.0010315735238     
0.00115339140057    
0.00113919039307    
0.0012537566005     
0.00123832023333    
0.00134348207515    
0.00132694072105    
0.00142086186752    
0.00140336789803    
0.00148446475189    
0.00146618783003    
0.00153311983445    
0.00151424382249    
0.00156591663134    
0.0015466365042     
0.00158220613906    
0.0015627256174     
0.0015816007593     
0.00156212778121    
0.00156395566389    
0.00154469997602    
0.00152936352173    
0.00151053420765    
0.00147813649068    
0.00145993672127    
0.00141079167544    
0.00139342145905    
0.00132803355894    
0.00131168186915    
0.00123074896696    
0.00121559606761    
0.00111998360722    
0.00110619416306    
0.000996933128825   
0.00098466039628    
0.0008629300571     
0.000852303964572   
0.000719425790876   
0.000710568057704   
0.000567983647575   
0.00056099115962    
0.000410262491353   
0.000405210294775   
0.000247992195419   
0.000244939299208   
8.2970696784e-05    
8.19496072358e-05   
0.000114354978122   
0.000112366282131   
0.000341795756066   
0.000335850331785   
0.000565442810858   
0.000555606631751   
0.000782824151712   
0.000769206307357   
0.000991548298117   
0.000974300784739   
0.00118933098369    
0.00116864437133    
0.00137402513908    
0.00135012213497    
0.0015436169937     
0.00151676492205    
0.00169627973152    
0.00166677173815    
0.0018303608465     
0.00179852414336    
0.00194442279737    
0.00191059856856    
0.00203724018545    
0.00200180330067    
0.00210784554312    
0.00207117941412    
0.00215552147167    
0.00211802582114    
0.00217984068369    
0.00214192157391    
0.00218067493732    
0.00214274235722    
0.00215822373215    
0.00212068146265    
0.00211302199176    
0.00207626588818    
0.00204596312753    
0.00201037346109    
0.00195830231973    
0.00192423769981    
0.0018516536338     
0.00181944405583    
0.00172798968804    
0.00169793119705    
0.00158966113026    
0.00156200883252    
0.0014394890531     
0.00141444970427    
0.00128101522987    
0.00125873110998    
0.00111905059061    
0.00109958527738    
0.000960815144085   
0.000944100945639   
0.000817994013592   
0.000803765275767   
0.000709525550153   
0.000697183523899   
0.000660860208615   
0.000649365123032   
0.000660860208615   
0.000649365123032   
0.000709525550153   
0.000697183523899   
0.000817994013592   
0.000803765275767   
0.000960815144085   
0.000944100945639   
0.00111905059061    
0.00109958527738    
0.00128101522987    
0.00125873110998    
0.0014394890531     
0.00141444970427    
0.00158966113026    
0.00156200883252    
0.00172798968804    
0.00169793119705    
0.0018516536338     
0.00181944405583    
0.00195830231973    
0.00192423769981    
0.00204596312753    
0.00201037346109    
0.00211302199176    
0.00207626588818    
0.00215822373215    
0.00212068146265    
0.00218067493732    
0.00214274235722    
0.00217984068369    
0.00214192157391    
0.00215552147167    
0.00211802582114    
0.00210784554312    
0.00207117941412    
0.00203724018545    
0.00200180330067    
0.00194442279737    
0.00191059856856    
0.0018303608465     
0.00179852414336    
0.00169627973152    
0.00166677173815    
0.0015436169937     
0.00151676492205    
0.00137402513908    
0.00135012213497    
0.00118933098369    
0.00116864437133    
0.000991548298117   
0.000974300784739   
0.000782824151712   
0.000769206307357   
0.000565442810858   
0.000555606631751   
0.000341795756066   
0.000335850331785   
0.000114354978122   
0.000112366282131   
0.000143841608093   
0.00014058189664    
0.000429926582159   
0.000420181817059   
0.000711239599205   
0.000695123207483   
0.00098467148399    
0.000962357417856   
0.00124721571513    
0.00121895111361    
0.00149599751573    
0.00146209450272    
0.00172830972556    
0.00168914250856    
0.0019416314489     
0.00189763084448    
0.00213365723854    
0.00208530807133    
0.00230231529422    
0.00225013794719    
0.00244578318346    
0.00239035708224    
0.00256253566178    
0.00250446539018    
0.00265134494823    
0.00259125996409    
0.00271131360578    
0.00264987012642    
0.00274190294785    
0.00267976630942    
0.00274295369876    
0.00268079452371    
0.00271471329354    
0.00265319215124    
0.00265785618493    
0.00259762363772    
0.00257350636925    
0.00251518660951    
0.00246324277961    
0.00240742086162    
0.00232909510159    
0.00227631365856    
0.00217354482672    
0.00212428819439    
0.00199954878537    
0.00195423543752    
0.00181065625265    
0.00176962354514    
0.00161131897237    
0.00157480388299    
0.00140759421598    
0.00137569503496    
0.0012085564858     
0.00118116886287    
0.00102891025621    
0.0010055936201     
0.000892473875415   
0.000872248147653   
0.000831261506032   
0.000812422989013   
0.000831261506032   
0.000812422989013   
0.000892473875415   
0.000872248147653   
0.00102891025621    
0.0010055936201     
0.0012085564858     
0.00118116886287    
0.00140759421598    
0.00137569503496    
0.00161131897237    
0.00157480388299    
0.00181065625265    
0.00176962354514    
0.00199954878537    
0.00195423543752    
0.00217354482672    
0.00212428819439    
0.00232909510159    
0.00227631365856    
0.00246324277961    
0.00240742086162    
0.00257350636925    
0.00251518660951    
0.00265785618493    
0.00259762363772    
0.00271471329354    
0.00265319215124    
0.00274295369876    
0.00268079452371    
0.00274190294785    
0.00267976630942    
0.00271131360578    
0.00264987012642    
0.00265134494823    
0.00259125996409    
0.00256253566178    
0.00250446539018    
0.00244578318346    
0.00239035708224    
0.00230231529422    
0.00225013794719    
0.00213365723854    
0.00208530807133    
0.0019416314489     
0.00189763084448    
0.00172830972556    
0.00168914250856    
0.00149599751573    
0.00146209450272    
0.00124721571513    
0.00121895111361    
0.00098467148399    
0.000962357417856   
0.000711239599205   
0.000695123207483   
0.000429926582159   
0.000420181817059   
0.000143841608093   
0.00014058189664    
0.000170885367798   
0.000166067820201   
0.000510755135113   
0.000496360215101   
0.000844962176054   
0.000821143961685   
0.00116980066909    
0.0011368281506     
0.0014817050261     
0.00143994255516    
0.00177725979506    
0.00172716968168    
0.00205324972281    
0.00199537904349    
0.00230667928846    
0.0022416628056     
0.00253481162139    
0.00246336537262    
0.00273517177774    
0.00265808022316    
0.00290561624866    
0.00282371957444    
0.00304432146951    
0.00295851540203    
0.00314982523188    
0.00306104644486    
0.00322106926919    
0.00313028347477    
0.0032574098221     
0.00316559786859    
0.00325865967672    
0.00316681253468    
0.00322510739172    
0.00313420618407    
0.00315756070225    
0.00306856392175    
0.00305735380929    
0.0029711799747     
0.00292635841128    
0.00284387794749    
0.00276698994126    
0.00268900092116    
0.00258219424297    
0.00250941391928    
0.00237548531449    
0.0023085311132     
0.00215107910626    
0.00209044947229    
0.00191426456602    
0.001860310136      
0.00167223603559    
0.00162510425172    
0.00143577832804    
0.00139530989583    
0.0012223570433     
0.00118790403161    
0.00106026806306    
0.00103038405905    
0.000987546394271   
0.000959712384139   
0.000987546394271   
0.000959712384139   
0.00106026806306    
0.00103038405905    
0.0012223570433     
0.00118790403161    
0.00143577832804    
0.00139530989583    
0.00167223603559    
0.00162510425172    
0.00191426456602    
0.001860310136      
0.00215107910626    
0.00209044947229    
0.00237548531449    
0.0023085311132     
0.00258219424297    
0.00250941391928    
0.00276698994126    
0.00268900092116    
0.00292635841128    
0.00284387794749    
0.00305735380929    
0.0029711799747     
0.00315756070225    
0.00306856392175    
0.00322510739172    
0.00313420618407    
0.00325865967672    
0.00316681253468    
0.0032574098221     
0.00316559786859    
0.00322106926919    
0.00313028347477    
0.00314982523188    
0.00306104644486    
0.00304432146951    
0.00295851540203    
0.00290561624866    
0.00282371957444    
0.00273517177774    
0.00265808022316    
0.00253481162139    
0.00246336537262    
0.00230667928846    
0.0022416628056     
0.00205324972281    
0.00199537904349    
0.00177725979506    
0.00172716968168    
0.0014817050261     
0.00143994255516    
0.00116980066909    
0.0011368281506     
0.000844962176054   
0.000821143961685   
0.000510755135113   
0.000496360215101   
0.000170885367798   
0.000166067820201   
0.000194975307803   
0.000188337415626   
0.000582761823451   
0.000562916118343   
0.000964080810756   
0.000931253206725   
0.00133471629087    
0.00128926783098    
0.00169059394617    
0.00163302743962    
0.00202781878322    
0.00195876684048    
0.00234271540385    
0.00226294360411    
0.00263186992468    
0.00254225398497    
0.00289216441857    
0.00279367874872    
0.00312077329404    
0.00301450616847    
0.00331524557076    
0.00320235767186    
0.0034735053521     
0.00335522614458    
0.00359388397836    
0.00347150719846    
0.00367517315411    
0.00355002609134    
0.00371663472339    
0.00359007856654    
0.00371806080683    
0.00359145429844    
0.00367977865969    
0.00355447845909    
0.00360270991976    
0.00348003169935    
0.00348837441051    
0.00336959109892    
0.00333891285745    
0.00322521721402    
0.00315707637587    
0.00304957340047    
0.00294622867189    
0.00284590513678    
0.00271037819412    
0.00261808579789    
0.00245433488086    
0.00237076109477    
0.0021841350807     
0.00210976213557    
0.00190798683767    
0.00184301630294    
0.00163819257756    
0.00158240934713    
0.00139468293554    
0.00134719270329    
0.0012097433171     
0.00116854992119    
0.00112677023166    
0.00108840164546    
0.00112677023166    
0.00108840164546    
0.0012097433171     
0.00116854992119    
0.00139468293554    
0.00134719270329    
0.00163819257756    
0.00158240934713    
0.00190798683767    
0.00184301630294    
0.0021841350807     
0.00210976213557    
0.00245433488086    
0.00237076109477    
0.00271037819412    
0.00261808579789    
0.00294622867189    
0.00284590513678    
0.00315707637587    
0.00304957340047    
0.00333891285745    
0.00322521721402    
0.00348837441051    
0.00336959109892    
0.00360270991976    
0.00348003169935    
0.00367977865969    
0.00355447845909    
0.00371806080683    
0.00359145429844    
0.00371663472339    
0.00359007856654    
0.00367517315411    
0.00355002609134    
0.00359388397836    
0.00347150719846    
0.0034735053521     
0.00335522614458    
0.00331524557076    
0.00320235767186    
0.00312077329404    
0.00301450616847    
0.00289216441857    
0.00279367874872    
0.00263186992468    
0.00254225398497    
0.00234271540385    
0.00226294360411    
0.00202781878322    
0.00195876684048    
0.00169059394617    
0.00163302743962    
0.00133471629087    
0.00128926783098    
0.000964080810756   
0.000931253206725   
0.000582761823451   
0.000562916118343   
0.000194975307803   
0.000188337415626   
0.000215646416381   
0.000206938997408   
0.000644539178316   
0.000618528868424   
0.00106628531667    
0.00102324410849    
0.00147621218902    
0.00141662650101    
0.00186981705789    
0.00179434425357    
0.00224278881784    
0.00215226039776    
0.00259107129615    
0.00248648783206    
0.00291088173553    
0.00279338669342    
0.00319876322473    
0.00306965136033    
0.00345161076075    
0.0033122937187     
0.00366670080137    
0.00351869883629    
0.00384173529648    
0.00368667225106    
0.00397487718627    
0.00381443762957    
0.00406478131092    
0.00390071312765    
0.00411064137896    
0.00394472147438    
0.00411221659906    
0.00394623314349    
0.00406987923416    
0.00390560319531    
0.00398463765527    
0.00382380515844    
0.00385818316615    
0.00370245314494    
0.00369287490402    
0.00354381857644    
0.00349176264042    
0.0033508228497     
0.00325856245933    
0.00312703594568    
0.00299770906758    
0.00287671121681    
0.00271452234691    
0.00260495508776    
0.00241567832953    
0.0023181730475     
0.00211025436913    
0.0020250777855     
0.00181185922313    
0.00173872618307    
0.00154253604006    
0.00148027386491    
0.00133799023138    
0.00128398465399    
0.0012462204689     
0.0011959186591     
0.0012462204689     
0.0011959186591     
0.00133799023138    
0.00128398465399    
0.00154253604006    
0.00148027386491    
0.00181185922313    
0.00173872618307    
0.00211025436913    
0.0020250777855     
0.00241567832953    
0.0023181730475     
0.00271452234691    
0.00260495508776    
0.00299770906758    
0.00287671121681    
0.00325856245933    
0.00312703594568    
0.00349176264042    
0.0033508228497     
0.00369287490402    
0.00354381857644    
0.00385818316615    
0.00370245314494    
0.00398463765527    
0.00382380515844    
0.00406987923416    
0.00390560319531    
0.00411221659906    
0.00394623314349    
0.00411064137896    
0.00394472147438    
0.00406478131092    
0.00390071312765    
0.00397487718627    
0.00381443762957    
0.00384173529648    
0.00368667225106    
0.00366670080137    
0.00351869883629    
0.00345161076075    
0.0033122937187     
0.00319876322473    
0.00306965136033    
0.00291088173553    
0.00279338669342    
0.00259107129615    
0.00248648783206    
0.00224278881784    