# vtk DataFile Version 3.0
PyPan mesh file. Generated by PyPan, USU AeroLab (c) 2020.
ASCII
DATASET POLYDATA
POINTS 237 float
0.0                 0.0                 0.0                 
0.043706767261      0.0                 -0.0593982003629    
0.043706767261      0.0                 0.0593982003629     
0.144835606217      0.0                 -0.103108137846     
0.144835606217      0.0                 0.103108137846      
0.295938521624      0.0                 -0.13929066062      
0.295938521624      0.0                 0.13929066062       
0.506231367588      0.0                 -0.169158145785     
0.506231367588      0.0                 0.169158145785      
0.784366369247      0.0                 -0.190444543958     
0.784366369247      0.0                 0.190444543958      
1.03923046589       1.79999995232       0.0                 
1.07638120651       1.79999995232       -0.0504884719849    
1.07638120651       1.79999995232       0.0504884719849     
1.13198935986       0.0                 -0.199836209416     
1.13198935986       0.0                 0.199836209416      
1.16234076023       1.79999995232       -0.0876419171691    
1.16234076023       1.79999995232       0.0876419171691     
1.2907782793        1.79999995232       -0.118397057056     
1.2907782793        1.79999995232       0.118397057056      
1.46952712536       1.79999995232       -0.143784418702     
1.46952712536       1.79999995232       0.143784418702      
1.5384118557        0.0                 -0.195161134005     
1.5384118557        0.0                 0.195161134005      
1.70594191551       1.79999995232       -0.161877855659     
1.70594191551       1.79999995232       0.161877855659      
1.97879958153       0.0                 -0.177157104015     
1.97879958153       0.0                 0.177157104015      
2.00142145157       1.79999995232       -0.169860780239     
2.00142145157       1.79999995232       0.169860780239      
2.07846093178       3.59999990463       0.0                 
2.10905575752       3.59999990463       -0.0415787398815    
2.10905575752       3.59999990463       0.0415787398815     
2.17984580994       3.59999990463       -0.0721756964922    
2.17984580994       3.59999990463       0.0721756964922     
2.28561782837       3.59999990463       -0.0975034609437    
2.28561782837       3.59999990463       0.0975034609437     
2.34688043594       1.79999995232       -0.165886968374     
2.34688043594       1.79999995232       0.165886968374      
2.41870450974       0.0                 -0.149701148272     
2.41870450974       0.0                 0.149701148272      
2.43282294273       3.59999990463       -0.118410699069     
2.43282294273       3.59999990463       0.118410699069      
2.62751746178       3.59999990463       -0.133311182261     
2.62751746178       3.59999990463       0.133311182261      
2.72121024132       1.79999995232       -0.150583535433     
2.72121024132       1.79999995232       0.150583535433      
2.82394266129       0.0                 -0.118144564331     
2.82394266129       0.0                 0.118144564331      
2.87085366249       3.59999990463       -0.139885336161     
2.87085366249       3.59999990463       0.139885336161      
3.09512925148       1.79999995232       -0.127245977521     
3.09512925148       1.79999995232       0.127245977521      
3.11769151688       5.40000009537       0.0                 
3.14173007011       5.40000009537       -0.0326690115035    
3.14173007011       5.40000009537       0.0326690115035     
3.15534925461       3.59999990463       -0.136612802744     
3.15534925461       3.59999990463       0.136612802744      
3.17034339905       0.0                 -0.0872635915875    
3.17034339905       0.0                 0.0872635915875     
3.19735097885       5.40000009537       -0.0567094758153    
3.19735097885       5.40000009537       0.0567094758153     
3.28045773506       5.40000009537       -0.0766098573804    
3.28045773506       5.40000009537       0.0766098573804     
3.3961186409        5.40000009537       -0.0930369794369    
3.3961186409        5.40000009537       0.0930369794369     
3.43958163261       1.79999995232       -0.100422881544     
3.43958163261       1.79999995232       0.100422881544      
3.44800543785       0.0                 -0.060148358345     
3.44800543785       0.0                 0.060148358345      
3.46362066269       3.59999990463       -0.12400996685      
3.46362066269       3.59999990463       0.12400996685       
3.54909300804       5.40000009537       -0.104744493961     
3.54909300804       5.40000009537       0.104744493961      
3.6593132019        0.0                 -0.0381311476231    
3.6593132019        0.0                 0.0381311476231     
3.73402237892       1.79999995232       -0.074174053967     
3.73402237892       1.79999995232       0.074174053967      
3.74028563499       5.40000009537       -0.109909914434     
3.74028563499       5.40000009537       0.109909914434      
3.77155399323       3.59999990463       -0.10479080677      
3.77155399323       3.59999990463       0.10479080677       
3.81385755539       0.0                 -0.0212495345622    
3.81385755539       0.0                 0.0212495345622     
3.92363238335       0.0                 -0.0088417828083    
3.92363238335       0.0                 0.0088417828083     
3.96381783485       5.40000009537       -0.107338622212     
3.96381783485       5.40000009537       0.107338622212      
3.97003507614       1.79999995232       -0.0511261038482    
3.97003507614       1.79999995232       0.0511261038482     
4.0                 0.0                 0.0                 
4.05522060394       3.59999990463       -0.0827011913061    
4.05522060394       3.59999990463       0.0827011913061     
4.14964675903       1.79999995232       -0.0324114747345    
4.14964675903       1.79999995232       0.0324114747345     
4.15692186356       7.19999980927       0.0                 
4.17440462112       7.19999980927       -0.0237592812628    
4.17440462112       7.19999980927       0.0237592812628     
4.20603132248       5.40000009537       -0.0974364057183    
4.20603132248       5.40000009537       0.0974364057183     
4.21485614777       7.19999980927       -0.0412432551384    
4.21485614777       7.19999980927       0.0412432551384     
4.27529716492       7.19999980927       -0.0557162612677    
4.27529716492       7.19999980927       0.0557162612677     
4.28100919724       1.79999995232       -0.0180621054024    
4.28100919724       1.79999995232       0.0180621054024     
4.2977013588        3.59999990463       -0.0610845126212    
4.2977013588        3.59999990463       0.0610845126212     
4.35941457748       7.19999980927       -0.0676632598042    
4.35941457748       7.19999980927       0.0676632598042     
4.37431812286       1.79999995232       -0.00751551566646   
4.37431812286       1.79999995232       0.00751551566646    
4.43923044205       1.79999995232       0.0                 
4.44797897339       5.40000009537       -0.0823356360197    
4.44797897339       5.40000009537       0.0823356360197     
4.47066831589       7.19999980927       -0.0761778131127    
4.47066831589       7.19999980927       0.0761778131127     
4.49206495285       3.59999990463       -0.0421038530767    
4.49206495285       3.59999990463       0.0421038530767     
4.60971784592       7.19999980927       -0.0799344778061    
4.60971784592       7.19999980927       0.0799344778061     
4.63998031616       3.59999990463       -0.0266918037087    
4.63998031616       3.59999990463       0.0266918037087     
4.67085981369       5.40000009537       -0.0649795085192    
4.67085981369       5.40000009537       0.0649795085192     
4.74816131592       3.59999990463       -0.0148746743798    
4.74816131592       3.59999990463       0.0148746743798     
4.77228689194       7.19999980927       -0.0780644565821    
4.77228689194       7.19999980927       0.0780644565821     
4.82500362396       3.59999990463       -0.00618924805894   
4.82500362396       3.59999990463       0.00618924805894    
4.86138010025       5.40000009537       -0.0479949750006    
4.86138010025       5.40000009537       0.0479949750006     
4.87846088409       3.59999990463       0.0                 
4.94844198227       7.19999980927       -0.0708628371358    
4.94844198227       7.19999980927       0.0708628371358     
5.01409435272       5.40000009537       -0.0330815985799    
5.01409435272       5.40000009537       0.0330815985799     
5.12440347672       7.19999980927       -0.0598804615438    
5.12440347672       7.19999980927       0.0598804615438     
5.13031387329       5.40000009537       -0.0209721308202    
5.13031387329       5.40000009537       0.0209721308202     
5.19615221024       9.0                 0.0                 
5.20707893372       9.0                 -0.0148495500907    
5.20707893372       9.0                 0.0148495500907     
5.2122836113        9.00907230377       -0.0104777291417    
5.2122836113        9.00907230377       0.0104777291417     
5.2144370079        9.01282501221       -7.0296845862e-17   
5.21531295776       5.40000009537       -0.0116872442886    
5.21531295776       5.40000009537       0.0116872442886     
5.23236131668       9.0                 -0.0257770344615    
5.23236131668       9.0                 0.0257770344615     
5.24126958847       9.01575946808       -0.0181593131274    
5.24126958847       9.01575946808       0.0181593131274     
5.24495172501       9.02227306366       2.0015372e-18       
5.27013683319       9.0                 -0.0348226651549    
5.27013683319       9.0                 0.0348226651549     
5.27568912506       5.40000009537       -0.00486298045143   
5.27568912506       5.40000009537       0.00486298045143    
5.28193712234       9.02135181427       -0.0244991444051    
5.28193712234       9.02135181427       0.0244991444051     
[...]
CELL_DATA 440
SCALARS panel_area float 1
LOOKUP_TABLE default
0.0588345025133     
0.0692172246989     
0.084544451912      
0.0994637224173     
0.118970958533      
0.139966109776      
0.162576694636      
0.191266611704      
0.21347928405       
0.251152136367      
0.266103840389      
0.313063215846      
0.310989209361      
0.365869708437      
0.337202165972      
0.396708619813      
0.396680896835      
0.337178976979      
0.365826954562      
0.310952787978      
0.313112771471      
0.266145850767      
0.251431486142      
0.213716797792      
0.191922098502      
0.163133718805      
0.141200785234      
0.120020701643      
0.101790752465      
0.0865221713475     
0.0731964864622     
0.0622170095126     
0.0622170095126     
0.0731964864622     
0.0865221713475     
0.101790752465      
0.120020701643      
0.141200785234      
0.163133718805      
0.191922098502      
0.213716797792      
0.251431486142      
0.266145850767      
0.313112771471      
0.310952787978      
0.365826954562      
0.337178976979      
0.396680896835      
0.396708619813      
0.337202165972      
0.365869708437      
0.310989209361      
0.313063215846      
0.266103840389      
0.251152136367      
0.21347928405       
0.191266611704      
0.162576694636      
0.139966109776      
0.118970958533      
0.0994637224173     
0.084544451912      
0.0692172246989     
0.0588345025133     
0.0484519933651     
0.0588345025072     
0.0696245417703     
0.0845444519249     
0.0979762342509     
0.118970958591      
0.133886564397      
0.162576694678      
0.175806644592      
0.213479284057      
0.219144464568      
0.266103840331      
0.256108710838      
0.310989209373      
0.277695926265      
0.337202165958      
0.337178976976      
0.277676628347      
0.310952787971      
0.256078728626      
0.266145850799      
0.219179036083      
0.21371679773       
0.17600205672       
0.163133718723      
0.134345577079      
0.120020701281      
0.0988405295633     
0.0865221711291     
0.0712534185029     
0.0622170105713     
0.0512375831917     
0.0512375831917     
0.0622170105713     
0.0712534185029     
0.0865221711291     
0.0988405295633     
0.120020701281      
0.134345577079      
0.163133718723      
0.17600205672       
0.21371679773       
0.219179036083      
0.266145850799      
0.256078728626      
0.310952787971      
0.277676628347      
0.337178976976      
0.337202165958      
0.277695926265      
0.310989209373      
0.256108710838      
0.266103840331      
0.219144464568      
0.213479284057      
0.175806644592      
0.162576694678      
0.133886564397      
0.118970958591      
0.0979762342509     
0.0845444519249     
0.0696245417703     
0.0588345025072     
0.0484519933651     
0.0380694892554     
0.0484519997717     
0.0547050652735     
0.0696245509777     
0.0769810932766     
0.0979762471876     
0.105196874564      
0.133886582058      
0.138133810477      
0.175806667755      
0.172184684537      
0.219144493608      
0.201228238472      
0.256108744828      
0.218189715919      
0.277695963066      
0.277676665126      
0.218174736543      
0.256078762536      
0.201204696077      
0.219179065083      
0.172212031207      
0.176002079998      
0.138287439372      
0.134345594835      
0.105557027435      
0.098840542947      
0.0776605728051     
0.0712534271465     
0.0559849579417     
0.0512375877164     
0.0402579923695     
0.0402579923695     
0.0512375877164     
0.0559849579417     
0.0712534271465     
0.0776605728051     
0.098840542947      
0.105557027435      
0.134345594835      
0.138287439372      
0.176002079998      
0.172212031207      
0.219179065083      
0.201204696077      
0.256078762536      
0.218174736543      
0.277676665126      
0.277695963066      
0.218189715919      
0.256108744828      
0.201228238472      
0.219144493608      
0.172184684537      
0.175806667755      
0.138133810477      
0.133886582058      
0.105196874564      
0.0979762471876     
0.0769810932766     
0.0696245509777     
0.0547050652735     
0.0484519997717     
0.0380694892554     
0.0276865453176     
0.0380694792051     
0.0397855690126     
0.0547050508292     
0.0559863511722     
0.0769810729402     
0.0765067199921     
0.105196846728      
0.100460926314      
0.138133773982      
0.125225270053      
0.172184639011      
0.146348120821      
0.201228185118      
0.158682998249      
0.218189658114      
0.218174678752      
0.158672338001      
0.201204642783      
0.14633080532       
0.172211985627      
0.125245392254      
0.138287402825      
0.10057234544       
0.105556999588      
0.0767690735074     
0.0776605522609     
0.0564801765593     
0.0559849444123     
0.0407162882873     
0.0402579831523     
0.029278616347      
0.029278616347      
0.0402579831523     
0.0407162882873     
0.0559849444123     
0.0564801765593     
0.0776605522609     
0.0767690735074     
0.105556999588      
0.10057234544       
0.138287402825      
0.125245392254      
0.172211985627      
0.14633080532       
0.201204642783      
0.158672338001      
0.218174678752      
0.218189658114      
0.158682998249      
0.201228185118      
0.146348120821      
0.172184639011      
0.125225270053      
0.138133773982      
0.100460926314      
0.105196846728      
0.0765067199921     
0.0769810729402     
0.0559863511722     
0.0547050508292     
0.0397855690126     
0.0380694792051     
0.0276865453176     
0.0173040421239     
0.0276865526491     
0.0248660937497     
0.0397855795034     
0.0349916386728     
0.0559863659346     
0.0478166058949     
0.0765067402067     
0.0627880957505     
0.100460952855      
0.0782654938376     
0.125225303203      
0.0914676530963     
0.146348159568      
0.0991772216204     
0.158683040292      
0.158672380028      
0.099170237342      
0.146330844079      
0.0914565629866     
0.125245425407      
0.0782783909161     
0.100572371947      
0.0628579465884     
0.0767690937258     
0.0479805242865     
0.0564801911064     
0.0353000165803     
0.0407162984051     
0.0254478306864     
0.0292786227267     
0.0182991385904     
0.0182991385904     
0.0292786227267     
0.0254478306864     
0.0407162984051     
0.0353000165803     
0.0564801911064     
0.0479805242865     
0.0767690937258     
0.0628579465884     
0.100572371947      
0.0782783909161     
0.125245425407      
0.0914565629866     
0.146330844079      
0.099170237342      
0.158672380028      
0.158683040292      
0.0991772216204     
0.146348159568      
0.0914676530963     
0.125225303203      
0.0782654938376     
0.100460952855      
0.0627880957505     
0.0765067402067     
0.0478166058949     
0.0559863659346     
0.0349916386728     
0.0397855795034     
0.0248660937497     
0.0276865526491     
0.0173040421239     
1.55997631168e-05   
2.24058487884e-05   
5.37997425847e-05   
7.56304414882e-05   
0.000135549449119   
0.000184829744706   
0.000291034593254   
0.000380544947303   
0.000550593706907   
0.000682712465797   
0.000921606335655   
0.00107019953619    
0.00135185258832    
0.00145553063638    
0.00171756213048    
0.00172346648119    
0.00185801444276    
0.00173839302773    
0.0017431752565     
0.00151739725623    
0.00141940298388    
0.00116122108421    
0.00101562316968    
0.000790778962671   
0.000643507308852   
0.000483372528369   
0.000354908660966   
0.000260994935359   
0.000149695395232   
0.000104421559528   
0.000104421559528   
0.000149695395232   
0.000260994935359   
0.000354908660966   
0.000483372528369   
0.000643507308852   
0.000790778962671   
0.00101562316968    
0.00116122108421    
0.00141940298388    
0.00151739725623    
0.0017431752565     
0.00173839302773    
0.00185801444276    
0.00172346648119    
0.00171756213048    
0.00145553063638    
0.00135185258832    
0.00107019953619    
0.000921606335655   
0.000682712465797   
0.000550593706907   
0.000380544947303   
0.000291034593254   
0.000184829744706   
0.000135549449119   
7.56304414882e-05   
5.37997425847e-05   
2.24058487884e-05   
1.55997631168e-05   
1.57410933677e-05   
2.26104952252e-05   
5.43103198087e-05   
7.63732281237e-05   
0.000136993813614   
0.000186889970754   
0.000294659560069   
0.000385622143401   
0.000559153163113   
0.000695050318837   
0.000940684669694   
0.00109650000786    
0.0013893380755     
0.00150463924254    
0.00178150601532    
0.00179140706395    
0.00196155930131    
0.0018334953429     
0.00186737457804    
0.0016277264717     
0.0015445902615     
0.00126836699248    
0.00112310589388    
0.000879960971713   
0.000723198063355   
0.000548218086642   
0.00040548737129    
0.000301659316691   
0.000173847188605   
0.000118787941226   
0.000118787941226   
0.000173847188605   
0.000301659316691   
0.00040548737129    
0.000548218086642   
0.000723198063355   
0.000879960971713   
0.00112310589388    
0.00126836699248    
0.0015445902615     
0.0016277264717     
0.00186737457804    
0.0018334953429     
0.00196155930131    
0.00179140706395    
0.00178150601532    
0.00150463924254    
0.0013893380755     
0.00109650000786    
0.000940684669694   
0.000695050318836   
0.000559153163113   
0.000385622143401   
0.000294659560069   
0.000186889970754   
0.000136993813614   
7.63732281237e-05   
5.43103198087e-05   
2.26104952252e-05   
1.57410933677e-05   
VECTORS panel_centroids float
4.27118285497        1.19999996821        -0.00250517188882   
4.0993168354         0.599999984105       -0.00545243282492   
4.19298656782        1.19999996821        -0.0114731346257    
4.00616637866        0.599999984105       -0.0160511409243    
4.08150450389        1.19999996821        -0.0239077048997    
3.87427250544        0.599999984105       -0.0305973856399    
3.92633167903        1.19999996821        -0.0405562420686    
3.69245123863        0.599999984105       -0.0498018699388    
3.71735429764        1.19999996821        -0.0618161720534    
3.45079040527        0.599999984105       -0.0738620012999    
3.44798247019        1.19999996821        -0.0872868423661    
3.14462256432        0.599999984105       -0.101943679154     
3.11955118179        1.19999996821        -0.115271141132     
2.7792588075         0.599999984105       -0.131697230041     
2.74501466751        1.19999996821        -0.142510220408     
2.37290477753        0.599999984105       -0.159147262573     
2.07947389285        0.599999984105       -0.174300591151     
2.20216751099        1.19999996821        -0.170543879271     
1.67242721717        0.599999984105       -0.186961437265     
1.82676374912        1.19999996821        -0.17852798601      
1.30592572689        0.599999984105       -0.186713844538     
1.49724324544        1.19999996821        -0.174061059952     
0.998846550783       0.599999984105       -0.173826848467     
1.22723346949        1.19999996821        -0.158273473382     
0.75723233819        0.599999984105       -0.150744408369     
1.01874797543        1.19999996821        -0.133824045459     
0.577184135715       0.599999984105       -0.120265285174     
0.865984881918       1.19999996821        -0.103049037357     
0.450294377903       0.599999984105       -0.0833827517927    
0.760809578001       1.19999996821        -0.0658428631723    
0.373362657924       0.599999984105       -0.0366288907826    
0.7052038908         1.19999996821        -0.0168294906616    
0.7052038908         1.19999996821        0.0168294906616     
0.373362657924       0.599999984105       0.0366288907826     
0.760809578001       1.19999996821        0.0658428631723     
0.450294377903       0.599999984105       0.0833827517927     
0.865984881918       1.19999996821        0.103049037357      
0.577184135715       0.599999984105       0.120265285174      
1.01874797543        1.19999996821        0.133824045459      
0.75723233819        0.599999984105       0.150744408369      
1.22723346949        1.19999996821        0.158273473382      
0.998846550783       0.599999984105       0.173826848467      
1.49724324544        1.19999996821        0.174061059952      
1.30592572689        0.599999984105       0.186713844538      
1.82676374912        1.19999996821        0.17852798601       
1.67242721717        0.599999984105       0.186961437265      
2.20216751099        1.19999996821        0.170543879271      
2.07947389285        0.599999984105       0.174300591151      
2.37290477753        0.599999984105       0.159147262573      
2.74501466751        1.19999996821        0.142510220408      
2.7792588075         0.599999984105       0.131697230041      
3.11955118179        1.19999996821        0.115271141132      
3.14462256432        0.599999984105       0.101943679154      
3.44798247019        1.19999996821        0.0872868423661     
3.45079040527        0.599999984105       0.0738620012999     
3.71735429764        1.19999996821        0.0618161720534     
3.69245123863        0.599999984105       0.0498018699388     
3.92633167903        1.19999996821        0.0405562420686     
3.87427250544        0.599999984105       0.0305973856399     
4.08150450389        1.19999996821        0.0239077048997     
4.00616637866        0.599999984105       0.0160511409243     
4.19298656782        1.19999996821        0.0114731346257     
4.0993168354         0.599999984105       0.00545243282492    
4.27118285497        1.19999996821        0.00250517188882    
4.71423165003        2.99999992053        -0.00206308268631   
4.54618406296        2.39999993642        -0.00456825457513   
4.64916102091        2.99999992053        -0.00952647936841   
4.46782954534        2.39999993642        -0.0134840984829    
4.55638360977        2.99999992053        -0.0198761944969    
4.35687875748        2.39999993642        -0.0257217946152    
4.42723067602        2.99999992053        -0.0337357105066    
4.20391559601        2.39999993642        -0.0418804772198    
4.25326712926        2.99999992053        -0.0514381565154    
4.00058627129        2.39999993642        -0.0621282234788    
4.02898144722        2.99999992053        -0.0726532526314    
3.74294153849        2.39999993642        -0.0857660422722    
3.75545207659        2.99999992053        -0.09597162654      
3.43542162577        2.39999993642        -0.110819888612     
3.4434346358         2.99999992053        -0.118682250381     
3.09332005183        2.39999993642        -0.133946493268     
2.84390377998        2.39999993642        -0.146826823552     
2.98861678441        2.99999992053        -0.142169912656     
2.50121704737        2.39999993642        -0.157453517119     
2.67587478956        2.99999992053        -0.148786306381     
2.19273900986        2.39999993642        -0.157207990686     
2.40143767993        2.99999992053        -0.14502479136      
1.93432883422        2.39999993642        -0.14632448554      
2.17662250996        2.99999992053        -0.131835433344     
1.73104278247        2.39999993642        -0.126864058276     
2.0030730168         2.99999992053        -0.111437072357     
1.57957895597        2.39999993642        -0.101180811723     
1.87593479951        2.99999992053        -0.085773691535     
1.47285592556        2.39999993642        -0.0701020285487    
1.78842759132        2.99999992053        -0.0547476361195    
1.40822247664        2.39999993642        -0.0306890706221    
1.74224905173        2.99999992053        -0.0138595799605    
1.74224905173        2.99999992053        0.0138595799605     
1.40822247664        2.39999993642        0.0306890706221     
1.78842759132        2.99999992053        0.0547476361195     
1.47285592556        2.39999993642        0.0701020285487     
1.87593479951        2.99999992053        0.085773691535      
1.57957895597        2.39999993642        0.101180811723      
2.0030730168         2.99999992053        0.111437072357      
1.73104278247        2.39999993642        0.126864058276      
2.17662250996        2.99999992053        0.131835433344      
1.93432883422        2.39999993642        0.14632448554       
2.40143767993        2.99999992053        0.14502479136       
2.19273900986        2.39999993642        0.157207990686      
2.67587478956        2.99999992053        0.148786306381      
2.50121704737        2.39999993642        0.157453517119      
2.98861678441        2.99999992053        0.142169912656      
2.84390377998        2.39999993642        0.146826823552      
3.09332005183        2.39999993642        0.133946493268      
3.4434346358         2.99999992053        0.118682250381      
3.43542162577        2.39999993642        0.110819888612      
3.75545207659        2.99999992053        0.09597162654       
3.74294153849        2.39999993642        0.0857660422722     
4.02898144722        2.99999992053        0.0726532526314     
4.00058627129        2.39999993642        0.0621282234788     
4.25326712926        2.99999992053        0.0514381565154     
4.20391559601        2.39999993642        0.0418804772198     
4.42723067602        2.99999992053        0.0337357105066     
4.35687875748        2.39999993642        0.0257217946152     
4.55638360977        2.99999992053        0.0198761944969     
4.46782954534        2.39999993642        0.0134840984829     
4.64916102091        2.99999992053        0.00952647936841    
4.54618406296        2.39999993642        0.00456825457513    
4.71423165003        2.99999992053        0.00206308268631    
5.1572804451         4.80000003179        -0.00162099348381   
4.99305121104        4.19999996821        -0.00368407617013   
5.1053352356         4.80000003179        -0.00757982426633   
4.92949263255        4.19999996821        -0.0109170555758    
5.03126271566        4.80000003179        -0.0158446831629    
4.83948516846        4.19999996821        -0.0208462029696    
4.92812951406        4.80000003179        -0.0269151777029    
4.71537987391        4.19999996821        -0.0339590851218    
4.78917980194        4.80000003179        -0.0410601422191    
4.5503821373         4.19999996821        -0.0503944468995    
4.60998042425        4.80000003179        -0.0580196653803    
4.34126059214        4.19999996821        -0.0695884041488    
4.39135313034        4.80000003179        -0.0766721119483    
4.09158452352        4.19999996821        -0.0899425446987    
4.14185476303        4.80000003179        -0.0948542828361    
3.81373532613        4.19999996821        -0.108745726446     
3.60833374659        4.19999996821        -0.119353058438     
3.77506613731        4.80000003179        -0.113795943558     
3.33000691732        4.19999996821        -0.127945587039     
3.52498571078        4.80000003179        -0.119044624269     
3.07955225309        4.19999996821        -0.127702144285     
3.30563203494        4.80000003179        -0.115988530219     
2.86981113752        4.19999996821        -0.118822125097     
3.12601153056        4.80000003179        -0.105397390823     
2.70485313733        4.19999996821        -0.10298371315      
2.98739806811        4.80000003179        -0.0890500992537    
2.58197379112        4.19999996821        -0.0820963382721    
2.88588484128        4.80000003179        -0.0684983432293    
2.49541751544        4.19999996821        -0.056821304063     
2.81604560216        4.80000003179        -0.0436524090668    
2.44308225314        4.19999996821        -0.0247492504617    
2.77929417292        4.80000003179        -0.0108896705012    
2.77929417292        4.80000003179        0.0108896705012     
2.44308225314        4.19999996821        0.0247492504617     
2.81604560216        4.80000003179        0.0436524090668     
2.49541751544        4.19999996821        0.056821304063      
2.88588484128        4.80000003179        0.0684983432293     
2.58197379112        4.19999996821        0.0820963382721     
2.98739806811        4.80000003179        0.0890500992537     
2.70485313733        4.19999996821        0.10298371315       
3.12601153056        4.80000003179        0.105397390823      