# vtk DataFile Version 3.0
TriPan results file. Generated by TriPan, USU AeroLab (c) 2021.
ASCII
DATASET POLYDATA
POINTS                7064 float
  0.000000000000E+00  0.000000000000E+00  0.000000000000E+00
  0.389988087118E-01  0.000000000000E+00 -0.109218262136E+00
  0.389988087118E-01  0.000000000000E+00  0.109218262136E+00
  0.147665724158E+00  0.000000000000E+00 -0.234920635819E+00
  0.147665724158E+00  0.000000000000E+00  0.234920635819E+00
  0.161138445139E+00  0.161138445139E+00  0.000000000000E+00
  0.200137257576E+00  0.161138445139E+00 -0.109218269587E+00
  0.200137257576E+00  0.161138445139E+00  0.109218269587E+00
  0.290265858173E+00  0.000000000000E+00 -0.347333192825E+00
  0.290265858173E+00  0.000000000000E+00  0.347333192825E+00
  0.308804154396E+00  0.161138445139E+00 -0.234920650721E+00
  0.308804154396E+00  0.161138445139E+00  0.234920650721E+00
  0.335006117821E+00  0.335006117821E+00  0.000000000000E+00
  0.374004930258E+00  0.335006117821E+00 -0.109218277037E+00
  0.374004930258E+00  0.335006117821E+00  0.109218277037E+00
  0.451404303312E+00  0.161138445139E+00 -0.347333222628E+00
  0.451404303312E+00  0.161138445139E+00  0.347333222628E+00
  0.473465979099E+00  0.000000000000E+00 -0.436293870211E+00
  0.473465979099E+00  0.000000000000E+00  0.436293870211E+00
  0.482671856880E+00  0.335006117821E+00 -0.234920650721E+00
  0.482671856880E+00  0.335006117821E+00  0.234920650721E+00
  0.522506594658E+00  0.522506594658E+00  0.000000000000E+00
  0.561505436897E+00  0.522506594658E+00 -0.109218284488E+00
  0.561505436897E+00  0.522506594658E+00  0.109218284488E+00
  0.625271975994E+00  0.335006117821E+00 -0.347333222628E+00
  0.625271975994E+00  0.335006117821E+00  0.347333222628E+00
  0.634604454041E+00  0.161138445139E+00 -0.436293900013E+00
  0.634604454041E+00  0.161138445139E+00  0.436293900013E+00
  0.670172333717E+00  0.522506594658E+00 -0.234920665622E+00
  0.670172333717E+00  0.522506594658E+00  0.234920665622E+00
  0.689334988594E+00  0.000000000000E+00 -0.522850036621E+00
  0.689334988594E+00  0.000000000000E+00  0.522850036621E+00
  0.724590361118E+00  0.724590361118E+00  0.000000000000E+00
  0.763589203358E+00  0.724590361118E+00 -0.109218291938E+00
  0.763589203358E+00  0.724590361118E+00  0.109218291938E+00
  0.808472156525E+00  0.335006117821E+00 -0.436293929815E+00
  0.808472156525E+00  0.335006117821E+00  0.436293929815E+00
  0.812772512436E+00  0.522506594658E+00 -0.347333252430E+00
  0.812772512436E+00  0.522506594658E+00  0.347333252430E+00
  0.850473463535E+00  0.161138445139E+00 -0.522850036621E+00
  0.850473463535E+00  0.161138445139E+00  0.522850036621E+00
  0.872256100178E+00  0.724590361118E+00 -0.234920680523E+00
  0.872256100178E+00  0.724590361118E+00  0.234920680523E+00
  0.942254066467E+00  0.942254066467E+00  0.000000000000E+00
  0.944064557552E+00  0.000000000000E+00 -0.604293465614E+00
  0.944064557552E+00  0.000000000000E+00  0.604293465614E+00
  0.981252849102E+00  0.942254066467E+00 -0.109218299389E+00
  0.981252849102E+00  0.942254066467E+00  0.109218299389E+00
  0.995972692966E+00  0.522506594658E+00 -0.436293959618E+00
  0.995972692966E+00  0.522506594658E+00  0.436293959618E+00
  0.101485633850E+01  0.724590361118E+00 -0.347333282232E+00
  0.101485633850E+01  0.724590361118E+00  0.347333282232E+00
  0.102434122562E+01  0.335006117821E+00 -0.522850096226E+00
  0.102434122562E+01  0.335006117821E+00  0.522850096226E+00
  0.108991980553E+01  0.942254066467E+00 -0.234920710325E+00
  0.108991980553E+01  0.942254066467E+00  0.234920710325E+00
  0.110520303249E+01  0.161138445139E+00 -0.604293525219E+00
  0.110520303249E+01  0.161138445139E+00  0.604293525219E+00
  0.117653930187E+01  0.117653930187E+01  0.000000000000E+00
  0.119805645943E+01  0.724590361118E+00 -0.436293989420E+00
  0.119805645943E+01  0.724590361118E+00  0.436293989420E+00
  0.121184170246E+01  0.522506594658E+00 -0.522850096226E+00
  0.121184170246E+01  0.522506594658E+00  0.522850096226E+00
  0.121553814411E+01  0.117653930187E+01 -0.109218306839E+00
  0.121553814411E+01  0.117653930187E+01  0.109218306839E+00
  0.123251998425E+01  0.942254066467E+00 -0.347333312035E+00
  0.123251998425E+01  0.942254066467E+00  0.347333312035E+00
  0.123833239079E+01  0.000000000000E+00 -0.683996438980E+00
  0.123833239079E+01  0.000000000000E+00  0.683996438980E+00
  0.127907073498E+01  0.335006117821E+00 -0.604293525219E+00
  0.127907073498E+01  0.335006117821E+00  0.604293525219E+00
  0.132420504093E+01  0.117653930187E+01 -0.234920725226E+00
  0.132420504093E+01  0.117653930187E+01  0.234920725226E+00
  0.139947092533E+01  0.161138445139E+00 -0.683996498585E+00
  0.139947092533E+01  0.161138445139E+00  0.683996498585E+00
  0.141392552853E+01  0.724590361118E+00 -0.522850155830E+00
  0.141392552853E+01  0.724590361118E+00  0.522850155830E+00
  0.141572022438E+01  0.942254066467E+00 -0.436294019222E+00
  0.141572022438E+01  0.942254066467E+00  0.436294019222E+00
  0.142853081226E+01  0.142853081226E+01  0.000000000000E+00
  0.146657133102E+01  0.522506594658E+00 -0.604293584824E+00
  0.146657133102E+01  0.522506594658E+00  0.604293584824E+00
  0.146680521965E+01  0.117653930187E+01 -0.347333341837E+00
  0.146680521965E+01  0.117653930187E+01  0.347333341837E+00
  0.146752965450E+01  0.142853081226E+01 -0.109218314290E+00
  0.146752965450E+01  0.142853081226E+01  0.109218314290E+00
  0.157333862782E+01  0.335006117821E+00 -0.683996558189E+00
  0.157333862782E+01  0.335006117821E+00  0.683996558189E+00
  0.157619655132E+01  0.142853081226E+01 -0.234920740128E+00
  0.157619655132E+01  0.142853081226E+01  0.234920740128E+00
  0.157641971111E+01  0.000000000000E+00 -0.760520398617E+00
  0.157641971111E+01  0.000000000000E+00  0.760520398617E+00
  0.163158929348E+01  0.942254066467E+00 -0.522850155830E+00
  0.163158929348E+01  0.942254066467E+00  0.522850155830E+00
  0.165000545979E+01  0.117653930187E+01 -0.436294049025E+00
  0.165000545979E+01  0.117653930187E+01  0.436294049025E+00
  0.166865515709E+01  0.724590361118E+00 -0.604293584824E+00
  0.166865515709E+01  0.724590361118E+00  0.604293584824E+00
  0.169935321808E+01  0.169935321808E+01  0.000000000000E+00
  0.171879673004E+01  0.142853081226E+01 -0.347333371639E+00
  0.171879673004E+01  0.142853081226E+01  0.347333371639E+00
  0.173755824566E+01  0.161138445139E+00 -0.760520458221E+00
  0.173755824566E+01  0.161138445139E+00  0.760520458221E+00
  0.173835194111E+01  0.169935321808E+01 -0.109218329191E+00
  0.173835194111E+01  0.169935321808E+01  0.109218329191E+00
  0.176083922386E+01  0.522506594658E+00 -0.683996558189E+00
  0.176083922386E+01  0.522506594658E+00  0.683996558189E+00
  0.184701895714E+01  0.169935321808E+01 -0.234920755029E+00
  0.184701895714E+01  0.169935321808E+01  0.234920755029E+00
  0.186587452888E+01  0.117653930187E+01 -0.522850215435E+00
  0.186587452888E+01  0.117653930187E+01  0.522850215435E+00
  0.188631892204E+01  0.942254066467E+00 -0.604293644428E+00
  0.188631892204E+01  0.942254066467E+00  0.604293644428E+00
  0.190199697018E+01  0.142853081226E+01 -0.436294078827E+00
  0.190199697018E+01  0.142853081226E+01  0.436294078827E+00
  0.191142594814E+01  0.335006117821E+00 -0.760520458221E+00
  0.191142594814E+01  0.335006117821E+00  0.760520458221E+00
  0.196138751507E+01  0.000000000000E+00 -0.833668828011E+00
  0.196138751507E+01  0.000000000000E+00  0.833668828011E+00
  0.196292304993E+01  0.724590361118E+00 -0.683996617794E+00
  0.196292304993E+01  0.724590361118E+00  0.683996617794E+00
  0.198961913586E+01  0.169935321808E+01 -0.347333401442E+00
  0.198961913586E+01  0.169935321808E+01  0.347333401442E+00
  0.199016737938E+01  0.199016737938E+01  0.000000000000E+00
  0.202916622162E+01  0.199016737938E+01 -0.109218336642E+00
  0.202916622162E+01  0.199016737938E+01  0.109218336642E+00
  0.209892654419E+01  0.522506594658E+00 -0.760520517826E+00
  0.209892654419E+01  0.522506594658E+00  0.760520517826E+00
  0.211786603928E+01  0.142853081226E+01 -0.522850275040E+00
  0.211786603928E+01  0.142853081226E+01  0.522850275040E+00
  0.212060427666E+01  0.117653930187E+01 -0.604293704033E+00
  0.212060427666E+01  0.117653930187E+01  0.604293704033E+00
  0.212252616882E+01  0.161138445139E+00 -0.833668828011E+00
  0.212252616882E+01  0.161138445139E+00  0.833668828011E+00
  0.213783311844E+01  0.199016737938E+01 -0.234920784831E+00
  0.213783311844E+01  0.199016737938E+01  0.234920784831E+00
  0.217281937599E+01  0.169935321808E+01 -0.436294138432E+00
  0.217281937599E+01  0.169935321808E+01  0.436294138432E+00
  0.218058681488E+01  0.942254066467E+00 -0.683996677399E+00
  0.218058681488E+01  0.942254066467E+00  0.683996677399E+00
  0.228043341637E+01  0.199016737938E+01 -0.347333431244E+00
  0.228043341637E+01  0.199016737938E+01  0.347333431244E+00
  0.229639387131E+01  0.335006117821E+00 -0.833668887615E+00
  0.229639387131E+01  0.335006117821E+00  0.833668887615E+00
  0.230101037025E+01  0.724590361118E+00 -0.760520577431E+00
  0.230101037025E+01  0.724590361118E+00  0.760520577431E+00
  0.230216526985E+01  0.230216526985E+01  0.000000000000E+00
  0.234116411209E+01  0.230216526985E+01 -0.109218344092E+00
  0.234116411209E+01  0.230216526985E+01  0.109218344092E+00
  0.237259578705E+01  0.142853081226E+01 -0.604293763638E+00
  0.237259578705E+01  0.142853081226E+01  0.604293763638E+00
  0.238868856430E+01  0.169935321808E+01 -0.522850275040E+00
  0.238868856430E+01  0.169935321808E+01  0.522850275040E+00
  0.239635515213E+01  0.000000000000E+00 -0.902061045170E+00
  0.239635515213E+01  0.000000000000E+00  0.902061045170E+00
  0.241487216949E+01  0.117653930187E+01 -0.683996737003E+00
  0.241487216949E+01  0.117653930187E+01  0.683996737003E+00
  0.244983124733E+01  0.230216526985E+01 -0.234920799732E+00
  0.244983124733E+01  0.230216526985E+01  0.234920799732E+00
  0.246363353729E+01  0.199016737938E+01 -0.436294168234E+00
  0.246363353729E+01  0.199016737938E+01  0.436294168234E+00
[...]
CELL_DATA               13888
SCALARS sigma float 1
LOOKUP_TABLE default
  0.206401694483E-02
  0.206556683173E-02
  0.199284691710E-02
  0.199285300904E-02
  0.190924214340E-02
  0.190808223304E-02
  0.181130239930E-02
  0.181130245152E-02
  0.170000708690E-02
  0.170003869183E-02
  0.157082673603E-02
  0.157158284809E-02
  0.143163177009E-02
  0.143094477325E-02
  0.124820160379E-02
  0.124824413469E-02
  0.958421010372E-03
  0.958939011445E-03
  0.564350762873E-03
  0.563921514062E-03
  0.394561199129E-03
  0.394708879346E-03
  0.631851542753E-03
  0.631718598952E-03
  0.908949577138E-03
  0.908949560971E-03
  0.948190137715E-03
  0.948235483452E-03
  0.235916767882E-02
  0.235922657278E-02
  0.387742483194E-02
  0.387737150216E-02
  0.598509891243E-02
  0.598509891117E-02
  0.120625099666E-01
  0.120625490335E-01
  0.174709411335E-01
  0.174710112479E-01
  0.271946292955E-01
  0.271945396250E-01
  0.366972598299E-01
  0.366972495719E-01
  0.508043266903E-01
  0.508043597909E-01
  0.674766960552E-01
  0.674767201158E-01
  0.855336676540E-01
  0.855335146244E-01
  0.114955306080E+00
  0.114955306093E+00
  0.141096330334E+00
  0.141096330321E+00
  0.165997919498E+00
  0.165997959876E+00
  0.189768232767E+00
  0.189768382571E+00
  0.212136990141E+00
  0.212136854167E+00
  0.233502018643E+00
  0.233502071511E+00
  0.258012998955E+00
  0.258013073052E+00
  0.286728021416E+00
  0.286727863931E+00
  0.317166513851E+00
  0.317166513845E+00
  0.352305814177E+00
  0.352305780714E+00
  0.388031554934E+00
  0.388031680594E+00
  0.440698026937E+00
  0.440697969196E+00
  0.486978951202E+00
  0.486978926282E+00
  0.595409517339E+00
  0.595409518668E+00
  0.656115221304E+00
  0.656115212329E+00
  0.708019867951E+00
  0.708019869713E+00
  0.655142187921E+00
  0.655142187680E+00
  0.543460289303E+00
  0.543460272980E+00
  0.451181124195E+00
  0.451181119631E+00
  0.308923102197E+00
  0.308923141678E+00
  0.252805320959E+00
  0.252805404983E+00
  0.191217208826E+00
  0.191217039390E+00
  0.150598188211E+00
  0.150598231675E+00
  0.111449993731E+00
  0.111449993740E+00
  0.781292135828E-01
  0.781294057346E-01
  0.471642765687E-01
  0.471641885262E-01
  0.210738275935E-01
  0.210737661649E-01
 -0.142216829775E-02
 -0.142201345323E-02
 -0.247371093969E-01
 -0.247372759905E-01
 -0.492548254316E-01
 -0.492548690976E-01
 -0.746611037169E-01
 -0.746611037024E-01
 -0.101032815578E+00
 -0.101032815591E+00
 -0.130355399501E+00
 -0.130355251549E+00
 -0.148165969858E+00
 -0.148165992452E+00
 -0.164487076270E+00
 -0.164487106485E+00
 -0.178204601317E+00
 -0.178204592182E+00
 -0.187397329240E+00
 -0.187397234466E+00
 -0.196764121411E+00
 -0.196764195874E+00
 -0.201956880338E+00
 -0.201956921854E+00
 -0.207777205783E+00
 -0.207777205781E+00
 -0.209792116716E+00
 -0.209792060298E+00
 -0.211242240740E+00
 -0.211242302717E+00
 -0.212589150848E+00
 -0.212589198277E+00
 -0.212626644551E+00
 -0.212626644535E+00
 -0.212891180423E+00
 -0.212891043343E+00
 -0.213117300876E+00
 -0.213117452056E+00
 -0.212955867975E+00
 -0.212955431670E+00
 -0.212578914239E+00
 -0.212579437187E+00
 -0.212302845039E+00
 -0.212302887704E+00
 -0.212128468883E+00
 -0.212127783741E+00
 -0.211994198243E+00
 -0.211994948290E+00
 -0.211871606086E+00
 -0.211871637286E+00
 -0.211765392122E+00
 -0.211765392173E+00
 -0.211672999626E+00
 -0.211671863889E+00
 -0.211592040145E+00
 -0.211592046090E+00
 -0.211522617596E+00
 -0.211524125531E+00
  0.206555964580E-02
  0.206401689078E-02
  0.199283494320E-02
  0.199284712595E-02
  0.190808224107E-02
  0.190924210972E-02
  0.181228030060E-02
  0.181130234354E-02
  0.169914058297E-02
  0.170000682611E-02
  0.157158281904E-02
  0.157082669507E-02
  0.143160776072E-02
  0.143163191654E-02
  0.124761732977E-02
  0.124820140510E-02
  0.958938995920E-03
  0.958420985447E-03
  0.564317366137E-03
  0.564350819203E-03
  0.394561187031E-03
  0.394561189044E-03
  0.631718565067E-03
  0.631851528884E-03
  0.908900187859E-03
  0.908949497594E-03
  0.948235402603E-03
  0.948190071894E-03
  0.235922653766E-02
  0.235916762404E-02
  0.387737140092E-02
  0.387742475184E-02
  0.598522212112E-02
  0.598509898939E-02
  0.120624376311E-01
  0.120625097379E-01
  0.174710118077E-01
  0.174709416391E-01
  0.271945608156E-01
  0.271946299828E-01
  0.366972493427E-01
  0.366971784410E-01
  0.508043579054E-01
  0.508043579054E-01
  0.674767179792E-01
  0.674767179792E-01
  0.855335146263E-01
  0.855336675515E-01
  0.114955305484E+00
  0.114955305484E+00
  0.141096326465E+00
  0.141096326465E+00
  0.165997953034E+00
  0.165997912547E+00
  0.189768385006E+00
  0.189768204271E+00
  0.212136862098E+00
  0.212137053645E+00
  0.233502067767E+00
  0.233501965446E+00
  0.258013093132E+00
  0.258013093133E+00
  0.286727866257E+00
  0.286727981749E+00
  0.317166495409E+00
  0.317166373773E+00
  0.352305778764E+00
  0.352305904570E+00
  0.388031681039E+00
  0.388031593653E+00
  0.440697972653E+00
  0.440697984453E+00
  0.486978910730E+00
  0.486978938246E+00
  0.595409484059E+00
  0.595409496192E+00
  0.656115167369E+00
  0.656115176412E+00
  0.708019874805E+00
  0.708019870804E+00
  0.655142192403E+00
  0.655142192633E+00
  0.543460225206E+00
  0.543460252062E+00
  0.451181133655E+00
  0.451181097970E+00
  0.308923134861E+00
  0.308923092332E+00
  0.252805339797E+00
  0.252805322942E+00
  0.191217092840E+00
  0.191217209045E+00
  0.150598348816E+00
  0.150598187378E+00
  0.111449836248E+00
  0.111449987253E+00
  0.781293538277E-01
  0.781292142165E-01
  0.471642802413E-01
  0.471642802391E-01
  0.210737092207E-01
  0.210738272556E-01
 -0.142195160076E-02
 -0.142216835093E-02
 -0.247373096545E-01
 -0.247371097144E-01
 -0.492548670144E-01
 -0.492548234016E-01
 -0.746611016772E-01
 -0.746611016768E-01
 -0.101032815042E+00
 -0.101032815043E+00
 -0.130355251393E+00
 -0.130355399504E+00
 -0.148165965166E+00
 -0.148165965166E+00
 -0.164487070165E+00
 -0.164487070165E+00
 -0.178204663746E+00
 -0.178204600204E+00
 -0.187397239202E+00
 -0.187397311837E+00
 -0.196764201569E+00
 -0.196764127570E+00
 -0.201956918026E+00
 -0.201956994103E+00
 -0.207777208453E+00
 -0.207777078626E+00
 -0.209792055964E+00
 -0.209792112004E+00
 -0.211242297812E+00
 -0.211242236236E+00
 -0.212589183519E+00
 -0.212589136410E+00
 -0.212626625927E+00
 -0.212626676834E+00
 -0.212891038670E+00
 -0.212891175021E+00
 -0.213117446608E+00
 -0.213117446610E+00
 -0.212955452926E+00
 -0.212955486776E+00
 -0.212579431658E+00
 -0.212578910798E+00
 -0.212302853910E+00
 -0.212303437745E+00
 -0.212127805441E+00
 -0.212127829456E+00
 -0.211994942764E+00
 -0.211994194777E+00
 -0.211871604783E+00
 -0.211872457868E+00
 -0.211765385655E+00
 -0.211764426414E+00
 -0.211671860154E+00
 -0.211672993772E+00
 -0.211592068265E+00
 -0.211592080135E+00
 -0.211524119991E+00
 -0.211522621049E+00
  0.206555279802E-02
  0.206555978813E-02
  0.199282874461E-02
  0.199283483672E-02
  0.190807161891E-02
  0.190808213912E-02
  0.181229865000E-02
  0.181228043106E-02
  0.169914050106E-02
  0.169914050106E-02
  0.157155533760E-02
  0.157158292965E-02
  0.143158348514E-02
  0.143160767942E-02
  0.124761726430E-02
  0.124761726429E-02
  0.958939061960E-03
  0.958939064483E-03
  0.564350796560E-03
  0.564317340878E-03
  0.394501210397E-03
  0.394561166252E-03
  0.631905698593E-03
  0.631718568570E-03
  0.908900215176E-03
  0.908900232997E-03
  0.948190135329E-03
  0.948235450905E-03
  0.235931086654E-02
  0.235922669013E-02
  0.387729239182E-02
  0.387737142624E-02
  0.598509883282E-02
  0.598522197748E-02
  0.120625485422E-01
  0.120624373090E-01
  0.174710118887E-01
  0.174710118994E-01
  0.271945601931E-01
  0.271945601891E-01
  0.366971794655E-01
  0.366972503004E-01
  0.508043599521E-01
  0.508043599528E-01
  0.674767198948E-01
  0.674767198943E-01
  0.855336675676E-01
  0.855335147387E-01
  0.114955305998E+00
  0.114955305998E+00
  0.141096329517E+00
  0.141096307489E+00
  0.165997918821E+00
  0.165997959421E+00
  0.189768200391E+00
  0.189768351565E+00
  0.212137051024E+00
  0.212136954698E+00
  0.233501960501E+00
  0.233502063555E+00
  0.258013073195E+00
  0.258012963094E+00
  0.286727987281E+00
  0.286727942911E+00
  0.317166365307E+00
  0.317166488568E+00
  0.352305894105E+00
  0.352305766223E+00
  0.388031587082E+00
  0.388031634327E+00
  0.440697970723E+00
  0.440697958593E+00
  0.486978938983E+00
  0.486978938985E+00
  0.595409505288E+00
  0.595409485910E+00
  0.656115183973E+00
  0.656115178549E+00
  0.708019822631E+00
  0.708019859674E+00
  0.655142146677E+00
  0.655142147827E+00
  0.543460261323E+00
  0.543460231468E+00
  0.451181089683E+00
  0.451181140548E+00
  0.308923135333E+00
  0.308923135329E+00
  0.252805314877E+00
  0.252805331921E+00
  0.191217151652E+00
  0.191217089602E+00
  0.150598182015E+00
  0.150598344343E+00
  0.111449984851E+00
  0.111449833273E+00
  0.781293021501E-01
  0.781293553348E-01
  0.471641477960E-01
  0.471642765965E-01
  0.210738268755E-01
  0.210737087745E-01
 -0.142205995358E-02
 -0.142195158319E-02
 -0.247371427136E-01
 -0.247373091487E-01
 -0.492548252978E-01
 -0.492548688758E-01
 -0.746611262616E-01
 -0.746611032924E-01
 -0.101032815494E+00
 -0.101032815494E+00
 -0.130355399675E+00
 -0.130355251417E+00
 -0.148165969373E+00
 -0.148165969372E+00
 -0.164487076791E+00
 -0.164487076792E+00
 -0.178204604866E+00
 -0.178204668721E+00
 -0.187397307520E+00
 -0.187397307515E+00
 -0.196764128602E+00
 -0.196764128613E+00
 -0.201956988711E+00
 -0.201956872135E+00
 -0.207777073640E+00
 -0.207777202601E+00
 -0.209792113374E+00
 -0.209792195845E+00
 -0.211242249888E+00
 -0.211242162460E+00
 -0.212589147239E+00
 -0.212589194053E+00
 -0.212626687394E+00
 -0.212626687412E+00
 -0.212891176202E+00
 -0.212890985275E+00
 -0.213117435387E+00
 -0.213117496176E+00
 -0.212955477244E+00
 -0.212955443532E+00
 -0.212578925997E+00
 -0.212578926000E+00
 -0.212303426603E+00
 -0.212303426603E+00
 -0.212127817408E+00
 -0.212127841392E+00
 -0.211994209698E+00
 -0.211994236924E+00
 -0.211872447654E+00
 -0.211872447654E+00
 -0.211764441657E+00
 -0.211764423822E+00
 -0.211672982462E+00
 -0.211672992727E+00
 -0.211592068830E+00
 -0.211592074756E+00
 -0.211522635623E+00
 -0.211522642406E+00
  0.206400283351E-02
  0.206555277585E-02
  0.199282263172E-02
  0.199282872325E-02
  0.190921065807E-02
  0.190807179803E-02
  0.181128425424E-02
  0.181229862810E-02
  0.170000688342E-02
  0.169914065615E-02
  0.157079920043E-02
  0.157155531527E-02
  0.143160763619E-02
  0.143158347624E-02
  0.124820152192E-02
  0.124761739440E-02
  0.958383405960E-03
  0.958939052502E-03
  0.564317332780E-03
  0.564350786557E-03
  0.394976532534E-03
  0.394501248846E-03
  0.631664448604E-03
  0.631905726686E-03
  0.908900222440E-03
  0.908900202963E-03
  0.948235470417E-03
  0.948190137318E-03
  0.235922664150E-02
  0.235931083854E-02
  0.387729221965E-02
  0.387729222097E-02
  0.598509875408E-02
  0.598509876699E-02
  0.120625489871E-01
  0.120625489859E-01
  0.174710117506E-01
  0.174710117410E-01
  0.271945600094E-01
  0.271945600150E-01
  0.366972492939E-01
  0.366972595379E-01
  0.508043588143E-01
  0.508042927996E-01
  0.674767181381E-01
  0.674767421320E-01
  0.855335148736E-01
  0.855336676143E-01
  0.114955305492E+00
  0.114955305492E+00
  0.141096304263E+00
  0.141096304263E+00
  0.165997953857E+00
  0.165997953857E+00
  0.189768351299E+00
  0.189768169065E+00
  0.212136960260E+00
  0.212137057098E+00
  0.233502071450E+00
  0.233502017432E+00
  0.258012968143E+00
  0.258012968145E+00
  0.286727945036E+00
  0.286727945030E+00
  0.317166512797E+00
  0.317166512802E+00
  0.352305771995E+00
  0.352305901786E+00
  0.388031624613E+00
  0.388031491237E+00
  0.440697978006E+00
  0.440697990433E+00
  0.486978961946E+00
  0.486979017626E+00
  0.595409451484E+00
  0.595409429523E+00
  0.656115223526E+00
  0.656115223154E+00
  0.708019864053E+00
  0.708019860765E+00
  0.655142151157E+00
  0.655142150730E+00
  0.543460304374E+00
  0.543460298577E+00
  0.451181010774E+00
  0.451181063595E+00
  0.308923232556E+00
  0.308923149898E+00
  0.252805343222E+00
  0.252805326013E+00
  0.191216973631E+00
  0.191217146865E+00
  0.150598347626E+00
  0.150598184482E+00
  0.111449993371E+00
  0.111449993365E+00
  0.781293027222E-01
  0.781293027290E-01
  0.471641487211E-01
  0.471641487189E-01
  0.210737660538E-01
  0.210738275880E-01
 -0.142195162207E-02
 -0.142205999086E-02
 -0.247373424252E-01
 -0.247371426790E-01
 -0.492548236468E-01
 -0.492548236468E-01
 -0.746611245539E-01
 -0.746611245544E-01
 -0.101032815050E+00
 -0.101032815050E+00
 -0.130355251488E+00
 -0.130355399880E+00
 -0.148165942776E+00
 -0.148165965517E+00
 -0.164487134192E+00
 -0.164487073105E+00
 -0.178204590695E+00
 -0.178204599979E+00
 -0.187397306289E+00
 -0.187397306294E+00
 -0.196764126951E+00
 -0.196764126941E+00
 -0.201956879563E+00
 -0.201956879562E+00
 -0.207777200316E+00
 -0.207777200329E+00
 -0.209792186601E+00
 -0.209792186602E+00
 -0.211242159953E+00
 -0.211242246893E+00
 -0.212589194499E+00
 -0.212589147925E+00
 -0.212626684555E+00
 -0.212626684535E+00
 -0.212890994740E+00
 -0.212891239761E+00
 -0.213117516947E+00
 -0.213117037108E+00
 -0.212955439757E+00
 -0.212955473339E+00
 -0.212578923903E+00
 -0.212579478633E+00
 -0.212303448742E+00
 -0.212302868540E+00
 -0.212127840073E+00
 -0.212127816188E+00
 -0.211994233911E+00
 -0.211994978225E+00
 -0.211872466993E+00
 -0.211871617578E+00
 -0.211764421263E+00
 -0.211765412511E+00
 -0.211673012597E+00
 -0.211671903119E+00
 -0.211592072489E+00
 -0.211592078407E+00
 -0.211522640136E+00
 -0.211524142415E+00
  0.206553852047E-02
  0.206400270568E-02
  0.199281662629E-02
  0.199282271723E-02
  0.190920021840E-02
  0.190921073934E-02
  0.181126586800E-02
  0.181128413936E-02
  0.170000700294E-02
  0.170000695794E-02
  0.157079906597E-02
  0.157079910339E-02
  0.143158356853E-02
  0.143160769413E-02
  0.124820153429E-02
  0.124820156777E-02
  0.958383368591E-03
  0.958383338911E-03
  0.564350816370E-03
  0.564317362277E-03
  0.394916572274E-03
  0.394976550598E-03
  0.631664419213E-03
  0.631664399594E-03
  0.908900213341E-03
  0.908900214996E-03
  0.948190098454E-03
  0.948235448984E-03
  0.235922655299E-02
  0.235922655299E-02
  0.387729220778E-02
  0.387729219390E-02
  0.598509871742E-02
  0.598509871616E-02
  0.120625489197E-01
  0.120625489209E-01
  0.174710116574E-01
  0.174710116670E-01
  0.271945599187E-01
  0.271945599104E-01
  0.366972593293E-01
  0.366971886052E-01
  0.508042927855E-01
  0.508043587314E-01
  0.674767423809E-01
  0.674768658584E-01
  0.855336675713E-01
  0.855335286841E-01
  0.114955305940E+00
  0.114955305940E+00
  0.141096307031E+00
  0.141096329115E+00
  0.165997958610E+00
  0.165997917807E+00
  0.189768169975E+00
  0.189768352869E+00
  0.212137053403E+00
  0.212136858788E+00
  0.233502024944E+00
  0.233502024946E+00
  0.258012978044E+00
  0.258013089845E+00
  0.286727944161E+00
  0.286727944167E+00
  0.317166511738E+00
  0.317166511731E+00
  0.352305925050E+00
  0.352305925052E+00
  0.388031489759E+00
  0.388031625309E+00
  0.440697956035E+00
  0.440697891872E+00
  0.486979017578E+00
  0.486978902922E+00
  0.595409487917E+00
  0.595409523561E+00
  0.656115243808E+00
  0.656115242726E+00
  0.708019955965E+00
  0.708019886298E+00
  0.655142256056E+00
  0.655142239248E+00
  0.543460282406E+00
  0.543460321481E+00
  0.451181135016E+00
  0.451181055024E+00
  0.308923065117E+00
  0.308923232526E+00
  0.252805235781E+00
  0.252805323490E+00
  0.191217147209E+00
  0.191216972902E+00
  0.150598357573E+00
  0.150598357571E+00
  0.111449992989E+00
  0.111449992997E+00
  0.781293024923E-01
  0.781293024854E-01
  0.471642796401E-01
  0.471641505305E-01
  0.210737667338E-01
  0.210737667318E-01
 -0.142216832887E-02
 -0.142195159731E-02
 -0.247371428836E-01
 -0.247373425438E-01
 -0.492548685763E-01
 -0.492548250572E-01
 -0.746611030790E-01
 -0.746611260188E-01
 -0.101032815443E+00
 -0.101032815443E+00
 -0.130355386541E+00
 -0.130355251422E+00
 -0.148165825992E+00
 -0.148165943323E+00
 -0.164487072890E+00
 -0.164487134146E+00
 -0.178204654096E+00
 -0.178204589682E+00
 -0.187397305612E+00
 -0.187397305604E+00
 -0.196764125999E+00
 -0.196764126009E+00
 -0.201956878454E+00
 -0.201956878455E+00
 -0.207777199013E+00
 -0.207777199012E+00
 -0.209792185209E+00
 -0.209792185195E+00
 -0.211242238968E+00
 -0.211242238968E+00
 -0.212589143120E+00
 -0.212589189474E+00
 -0.212626682794E+00
 -0.212626682796E+00
 -0.212891223243E+00
 -0.212891223224E+00
 -0.213117046855E+00
 -0.213117107169E+00
 -0.212955484470E+00
 -0.212955451007E+00
 -0.212579463760E+00
 -0.212579463731E+00
 -0.212302876339E+00
 -0.212302876372E+00
 -0.212127824772E+00
 -0.212127848564E+00
 -0.211994965129E+00
 -0.211994965166E+00
 -0.211871626865E+00
 -0.211871626821E+00
 -0.211765399080E+00
 -0.211765416905E+00
 -0.211671912129E+00
 -0.211671922364E+00
 -0.211592087487E+00
 -0.211592093397E+00
 -0.211524129315E+00
 -0.211522642323E+00
  0.206398158436E-02
  0.206553862805E-02
  0.199280435142E-02
  0.199281653540E-02
  0.190920013261E-02
  0.190920013204E-02
  0.181128406216E-02
  0.181126579056E-02
  0.169997522917E-02
  0.170000692749E-02
  0.157155531366E-02
  0.157079913932E-02
  0.143155947331E-02
  0.143158363079E-02
  0.124761736362E-02
  0.124820147875E-02
  0.958901455500E-03
  0.958383414104E-03
  0.564317382941E-03
  0.564350839571E-03
  0.394501239255E-03
  0.394916548904E-03
  0.631664391108E-03
  0.631664391109E-03
  0.908900155277E-03
  0.908900173099E-03
  0.948391653086E-03
  0.948190112929E-03
  0.235914236778E-02
  0.235922655975E-02
  0.387737136546E-02
  0.387729231972E-02
  0.598514710944E-02
  0.598509898472E-02
  0.120624376053E-01
  0.120625489502E-01
  0.174710438434E-01
  0.174710118793E-01
  0.271946300508E-01
  0.271945606931E-01
  0.366971901380E-01
  0.366971799216E-01
  0.508043596020E-01
  0.508043596020E-01
  0.674768656234E-01
  0.674767422353E-01
  0.855335286603E-01
  0.855335286603E-01
  0.114955305896E+00
  0.114955305896E+00
  0.141096328920E+00
  0.141096306811E+00
  0.165997917295E+00
  0.165998090806E+00
  0.189768352562E+00
  0.189768230406E+00
  0.212136852515E+00
  0.212136866446E+00
  0.233502015423E+00
  0.233502070060E+00
  0.258013081480E+00
  0.258013010690E+00
  0.286727940911E+00
  0.286727940907E+00
  0.317166507003E+00
  0.317166507005E+00
  0.352305918139E+00
  0.352305918143E+00
  0.388031643775E+00
  0.388031555809E+00
  0.440697922263E+00
  0.440697987734E+00
  0.486978879993E+00
  0.486978879985E+00
  0.595409521532E+00
  0.595409533853E+00
  0.656115183395E+00
  0.656115190310E+00
  0.708019805410E+00
  0.708019862947E+00
  0.655142160121E+00
  0.655142181209E+00
  0.543460301584E+00
  0.543460233261E+00
  0.451181159618E+00
  0.451181133479E+00
  0.308923050560E+00
  0.308923050572E+00
  0.252805341681E+00
  0.252805253215E+00
  0.191217044206E+00
  0.191217156308E+00
  0.150598354623E+00
  0.150598354618E+00
  0.111449991330E+00
  0.111449991327E+00
  0.781293016006E-01
  0.781293016051E-01
  0.471641968210E-01
  0.471642781110E-01
  0.210738274632E-01
  0.210737658743E-01
 -0.142215284168E-02
 -0.142216828681E-02
 -0.247372757030E-01
 -0.247371428436E-01
 -0.492546838773E-01
 -0.492548684244E-01
 -0.746611259028E-01
 -0.746611029755E-01
 -0.101032815404E+00
 -0.101032815404E+00
 -0.130355386504E+00
 -0.130355386504E+00
 -0.148165943002E+00
 -0.148165825476E+00
 -0.164487075708E+00
 -0.164487075708E+00
 -0.178204670886E+00
 -0.178204661539E+00
 -0.187397310940E+00
 -0.187397239633E+00
 -0.196764128508E+00
 -0.196764095572E+00
 -0.201956878966E+00
 -0.201956993671E+00
 -0.207777208291E+00
 -0.207777158768E+00
 -0.209792191252E+00
 -0.209792110158E+00
 -0.211242239573E+00
 -0.211242325608E+00
 -0.212589192720E+00
 -0.212588987689E+00
 -0.212626673382E+00
 -0.212626673400E+00
 -0.212891213751E+00
 -0.212891213751E+00
 -0.213117094558E+00
 -0.213117510678E+00
 -0.212955459762E+00
 -0.212955493117E+00
 -0.212579473825E+00
 -0.212578959777E+00
 -0.212302866925E+00
 -0.212303443993E+00
 -0.212127857789E+00
 -0.212127881558E+00