# vtk DataFile Version 3.0
TriPan results file. Generated by TriPan, USU AeroLab (c) 2021.
ASCII
DATASET POLYDATA
POINTS                 144 float
  0.000000000000E+00  0.000000000000E+00  0.000000000000E+00
  0.113538098335E+01  0.000000000000E+00 -0.658124566078E+00
  0.113538098335E+01  0.000000000000E+00  0.658124566078E+00
  0.192375373840E+01  0.192375373840E+01  0.000000000000E+00
  0.305913543701E+01  0.192375373840E+01 -0.658124983311E+00
  0.305913543701E+01  0.192375373840E+01  0.658124983311E+00
  0.423028087616E+01  0.000000000000E+00 -0.108747220039E+01
  0.423028087616E+01  0.000000000000E+00  0.108747220039E+01
  0.547033166885E+01  0.547033166885E+01  0.000000000000E+00
  0.615403699875E+01  0.192375373840E+01 -0.108747279644E+01
  0.615403699875E+01  0.192375373840E+01  0.108747279644E+01
  0.660571479797E+01  0.547033166885E+01 -0.658125698566E+00
  0.660571479797E+01  0.547033166885E+01  0.658125698566E+00
  0.939508819580E+01  0.000000000000E+00 -0.980745851994E+00
  0.939508819580E+01  0.000000000000E+00  0.980745851994E+00
  0.970061969757E+01  0.547033166885E+01 -0.108747410774E+01
  0.970061969757E+01  0.547033166885E+01  0.108747410774E+01
  0.113188476562E+02  0.192375373840E+01 -0.980746448040E+00
  0.113188476562E+02  0.192375373840E+01  0.980746448040E+00
  0.113820018768E+02  0.113820018768E+02  0.000000000000E+00
  0.125173873901E+02  0.113820018768E+02 -0.658127009869E+00
  0.125173873901E+02  0.113820018768E+02  0.658127009869E+00
  0.145402030945E+02  0.000000000000E+00 -0.479613035917E+00
  0.145402030945E+02  0.000000000000E+00  0.479613035917E+00
  0.148654365540E+02  0.547033166885E+01 -0.980747580528E+00
  0.148654365540E+02  0.547033166885E+01  0.980747580528E+00
  0.156122989655E+02  0.113820018768E+02 -0.108747613430E+01
  0.156122989655E+02  0.113820018768E+02  0.108747613430E+01
  0.164639663696E+02  0.192375373840E+01 -0.479613333941E+00
  0.164639663696E+02  0.192375373840E+01  0.479613333941E+00
  0.176505107880E+02  0.000000000000E+00 -0.144198849797E+00
  0.176505107880E+02  0.000000000000E+00  0.144198849797E+00
  0.190000000000E+02  0.000000000000E+00  0.000000000000E+00
  0.195742740631E+02  0.192375373840E+01 -0.144198939204E+00
  0.195742740631E+02  0.192375373840E+01  0.144198939204E+00
  0.197561950684E+02  0.197561950684E+02  0.000000000000E+00
  0.200105609894E+02  0.547033166885E+01 -0.479613870382E+00
  0.200105609894E+02  0.547033166885E+01  0.479613870382E+00
  0.207771244049E+02  0.113820018768E+02 -0.980749428272E+00
  0.207771244049E+02  0.113820018768E+02  0.980749428272E+00
  0.208915824890E+02  0.197561950684E+02 -0.658128738403E+00
  0.208915824890E+02  0.197561950684E+02  0.658128738403E+00
  0.209237651825E+02  0.192375373840E+01  0.000000000000E+00
  0.231208724976E+02  0.547033166885E+01 -0.144199103117E+00
  0.231208724976E+02  0.547033166885E+01  0.144199103117E+00
  0.239865016937E+02  0.197561950684E+02 -0.108747911453E+01
  0.239865016937E+02  0.197561950684E+02  0.108747911453E+01
  0.244703655243E+02  0.547033166885E+01  0.000000000000E+00
  0.259222583771E+02  0.113820018768E+02 -0.479614794254E+00
  0.259222583771E+02  0.113820018768E+02  0.479614794254E+00
  0.290325775146E+02  0.113820018768E+02 -0.144199386239E+00
  0.290325775146E+02  0.113820018768E+02  0.144199386239E+00
  0.291513423920E+02  0.197561950684E+02 -0.980752110481E+00
  0.291513423920E+02  0.197561950684E+02  0.980752110481E+00
  0.292438049316E+02  0.292438049316E+02  0.000000000000E+00
  0.303791980743E+02  0.292438049316E+02 -0.658130764961E+00
  0.303791980743E+02  0.292438049316E+02  0.658130764961E+00
  0.303820724487E+02  0.113820018768E+02  0.000000000000E+00
  0.334741249084E+02  0.292438049316E+02 -0.108748245239E+01
  0.334741249084E+02  0.292438049316E+02  0.108748245239E+01
  0.342964897156E+02  0.197561950684E+02 -0.479616105556E+00
  0.342964897156E+02  0.197561950684E+02  0.479616105556E+00
  0.374068183899E+02  0.197561950684E+02 -0.144199773669E+00
  0.374068183899E+02  0.197561950684E+02  0.144199773669E+00
  0.376179962158E+02  0.376179962158E+02  0.000000000000E+00
  0.386389808655E+02  0.292438049316E+02 -0.980755090714E+00
  0.386389808655E+02  0.292438049316E+02  0.980755090714E+00
  0.387533912659E+02  0.376179962158E+02 -0.658132553101E+00
  0.387533912659E+02  0.376179962158E+02  0.658132553101E+00
  0.387563171387E+02  0.197561950684E+02  0.000000000000E+00
  0.418483314514E+02  0.376179962158E+02 -0.108748543262E+01
  0.418483314514E+02  0.376179962158E+02  0.108748543262E+01
  0.435296669006E+02  0.435296669006E+02  0.000000000000E+00
  0.437841453552E+02  0.292438049316E+02 -0.479617565870E+00
  0.437841453552E+02  0.292438049316E+02  0.479617565870E+00
  0.446650657654E+02  0.435296669006E+02 -0.658133804798E+00
  0.446650657654E+02  0.435296669006E+02  0.658133804798E+00
  0.468944816589E+02  0.292438049316E+02 -0.144200220704E+00
  0.468944816589E+02  0.292438049316E+02  0.144200220704E+00
  0.470131988525E+02  0.376179962158E+02 -0.980757772923E+00
  0.470131988525E+02  0.376179962158E+02  0.980757772923E+00
  0.470762481689E+02  0.470762481689E+02  0.000000000000E+00
  0.477600097656E+02  0.435296669006E+02 -0.108748745918E+01
  0.477600097656E+02  0.435296669006E+02  0.108748745918E+01
  0.482116432190E+02  0.470762481689E+02 -0.658134579659E+00
  0.482116432190E+02  0.470762481689E+02  0.658134579659E+00
  0.482439842224E+02  0.292438049316E+02  0.000000000000E+00
  0.490000000000E+02  0.490000000000E+02  0.000000000000E+00
  0.501353988647E+02  0.490000000000E+02 -0.658134996891E+00
  0.501353988647E+02  0.490000000000E+02  0.658134996891E+00
  0.506007728577E+02  0.494653701782E+02 -0.465371757746E+00
  0.506007728577E+02  0.494653701782E+02  0.465371757746E+00
  0.507935333252E+02  0.496581344604E+02 -0.771266485397E-15
  0.513065910339E+02  0.470762481689E+02 -0.108748877048E+01
  0.513065910339E+02  0.470762481689E+02  0.108748877048E+01
  0.521583786011E+02  0.376179962158E+02 -0.479618877172E+00
  0.521583786011E+02  0.376179962158E+02  0.479618877172E+00
  0.529248886108E+02  0.435296669006E+02 -0.980759620667E+00
  0.529248886108E+02  0.435296669006E+02  0.980759620667E+00
  0.532303466797E+02  0.490000000000E+02 -0.108748936653E+01
  0.532303466797E+02  0.490000000000E+02  0.108748936653E+01
  0.539993209839E+02  0.497689704895E+02 -0.768971264362E+00
  0.539993209839E+02  0.497689704895E+02  0.768971264362E+00
  0.543178405762E+02  0.500874900818E+02 -0.157378642191E-15
  0.552687225342E+02  0.376179962158E+02 -0.144200608134E+00
  0.552687225342E+02  0.376179962158E+02  0.144200608134E+00
  0.564714775085E+02  0.470762481689E+02 -0.980760753155E+00
  0.564714775085E+02  0.470762481689E+02  0.980760753155E+00
  0.566182289124E+02  0.376179962158E+02  0.000000000000E+00
  0.580700759888E+02  0.435296669006E+02 -0.479619771242E+00
  0.580700759888E+02  0.435296669006E+02  0.479619771242E+00
  0.583952369690E+02  0.490000000000E+02 -0.980761349201E+00
  0.583952369690E+02  0.490000000000E+02  0.980761349201E+00
  0.590887413025E+02  0.496935043335E+02 -0.693503141403E+00
  0.590887413025E+02  0.496935043335E+02  0.693503141403E+00
  0.593759994507E+02  0.499807624817E+02  0.000000000000E+00
  0.611804275513E+02  0.435296669006E+02 -0.144200876355E+00
  0.611804275513E+02  0.435296669006E+02  0.144200876355E+00
  0.616166725159E+02  0.470762481689E+02 -0.479620337486E+00
  0.616166725159E+02  0.470762481689E+02  0.479620337486E+00
  0.625299339294E+02  0.435296669006E+02  0.000000000000E+00
  0.635404319763E+02  0.490000000000E+02 -0.479620635509E+00
  0.635404319763E+02  0.490000000000E+02  0.479620635509E+00
  0.638795776367E+02  0.493391418457E+02 -0.339143037796E+00
  0.638795776367E+02  0.493391418457E+02  0.339143037796E+00
  0.640200576782E+02  0.494796218872E+02  0.296956834055E-15
  0.647270278931E+02  0.470762481689E+02 -0.144201040268E+00
  0.647270278931E+02  0.470762481689E+02  0.144201040268E+00
  0.660765380859E+02  0.470762481689E+02  0.000000000000E+00
  0.666507873535E+02  0.490000000000E+02 -0.144201144576E+00
  0.666507873535E+02  0.490000000000E+02  0.144201144576E+00
  0.667527542114E+02  0.491019668579E+02 -0.101965606213E+00
  0.667527542114E+02  0.491019668579E+02  0.101965606213E+00
  0.667949905396E+02  0.491441993713E+02 -0.260488604752E-16
  0.680002975464E+02  0.490000000000E+02  0.000000000000E+00
  0.209237651825E+02  0.192375373840E+01  0.000000000000E+00
  0.190000000000E+02  0.000000000000E+00  0.000000000000E+00
  0.244703655243E+02  0.547033166885E+01  0.000000000000E+00
  0.303820724487E+02  0.113820018768E+02  0.000000000000E+00
  0.387563171387E+02  0.197561950684E+02  0.000000000000E+00
  0.482439842224E+02  0.292438049316E+02  0.000000000000E+00
  0.566182289124E+02  0.376179962158E+02  0.000000000000E+00
  0.625299339294E+02  0.435296669006E+02  0.000000000000E+00
  0.660765380859E+02  0.470762481689E+02  0.000000000000E+00
POLYGONS                 256                1024
3                  32                  33                  42
3                  32                  30                  33
3                  30                  28                  33
3                  30                  22                  28
3                  22                  17                  28
3                  22                  13                  17
3                  13                   6                  17
3                  17                   6                   9
3                   6                   1                   9
3                   9                   1                   4
3                   1                   0                   4
3                   4                   0                   3
3                   0                   5                   3
3                   0                   2                   5
3                   2                  10                   5
3                   2                   7                  10
[...]
CELL_DATA                 256
SCALARS sigma float 1
LOOKUP_TABLE default
  0.000000000000E+00
  0.000000000000E+00
  0.000000000000E+00
  0.000000000000E+00
  0.000000000000E+00
  0.000000000000E+00
  0.000000000000E+00
  0.000000000000E+00
  0.000000000000E+00
  0.000000000000E+00
  0.000000000000E+00
  0.000000000000E+00
  0.000000000000E+00
  0.000000000000E+00
  0.000000000000E+00
  0.000000000000E+00
  0.000000000000E+00
  0.000000000000E+00
  0.000000000000E+00
  0.000000000000E+00
  0.000000000000E+00
  0.000000000000E+00
  0.000000000000E+00
  0.000000000000E+00
  0.000000000000E+00
  0.000000000000E+00
  0.000000000000E+00
  0.000000000000E+00
  0.000000000000E+00
  0.000000000000E+00
  0.000000000000E+00
  0.000000000000E+00
  0.000000000000E+00
  0.000000000000E+00
  0.000000000000E+00
  0.000000000000E+00
  0.000000000000E+00
  0.000000000000E+00
  0.000000000000E+00
  0.000000000000E+00
  0.000000000000E+00
  0.000000000000E+00
  0.000000000000E+00
  0.000000000000E+00
  0.000000000000E+00
  0.000000000000E+00
  0.000000000000E+00
  0.000000000000E+00
  0.000000000000E+00
  0.000000000000E+00
  0.000000000000E+00
  0.000000000000E+00
  0.000000000000E+00
  0.000000000000E+00
  0.000000000000E+00
  0.000000000000E+00
  0.000000000000E+00
  0.000000000000E+00
  0.000000000000E+00
  0.000000000000E+00
  0.000000000000E+00
  0.000000000000E+00
  0.000000000000E+00
  0.000000000000E+00
  0.000000000000E+00
  0.000000000000E+00
  0.000000000000E+00
  0.000000000000E+00
  0.000000000000E+00
  0.000000000000E+00
  0.000000000000E+00
  0.000000000000E+00
  0.000000000000E+00
  0.000000000000E+00
  0.000000000000E+00
  0.000000000000E+00
  0.000000000000E+00
  0.000000000000E+00
  0.000000000000E+00
  0.000000000000E+00
  0.000000000000E+00
  0.000000000000E+00
  0.000000000000E+00
  0.000000000000E+00
  0.000000000000E+00
  0.000000000000E+00
  0.000000000000E+00
  0.000000000000E+00
  0.000000000000E+00
  0.000000000000E+00
  0.000000000000E+00
  0.000000000000E+00
  0.000000000000E+00
  0.000000000000E+00
  0.000000000000E+00
  0.000000000000E+00
  0.000000000000E+00
  0.000000000000E+00
  0.000000000000E+00
  0.000000000000E+00
  0.000000000000E+00
  0.000000000000E+00
  0.000000000000E+00
  0.000000000000E+00
  0.000000000000E+00
  0.000000000000E+00
  0.000000000000E+00
  0.000000000000E+00
  0.000000000000E+00
  0.000000000000E+00
  0.000000000000E+00
  0.000000000000E+00
  0.000000000000E+00
  0.000000000000E+00
  0.000000000000E+00
  0.000000000000E+00
  0.000000000000E+00
  0.000000000000E+00
  0.000000000000E+00
  0.000000000000E+00
  0.000000000000E+00
  0.000000000000E+00
  0.000000000000E+00
  0.000000000000E+00
  0.000000000000E+00
  0.000000000000E+00
  0.000000000000E+00
  0.000000000000E+00
  0.000000000000E+00
  0.000000000000E+00
  0.000000000000E+00
  0.000000000000E+00
  0.000000000000E+00
  0.000000000000E+00
  0.000000000000E+00
  0.000000000000E+00
  0.000000000000E+00
  0.000000000000E+00
  0.000000000000E+00
  0.000000000000E+00
  0.000000000000E+00
  0.000000000000E+00
  0.000000000000E+00
  0.000000000000E+00
  0.000000000000E+00
  0.000000000000E+00
  0.000000000000E+00
  0.000000000000E+00
  0.000000000000E+00
  0.000000000000E+00
  0.000000000000E+00
  0.000000000000E+00
  0.000000000000E+00
  0.000000000000E+00
  0.000000000000E+00
  0.000000000000E+00
  0.000000000000E+00
  0.000000000000E+00
  0.000000000000E+00
  0.000000000000E+00
  0.000000000000E+00
  0.000000000000E+00
  0.000000000000E+00
  0.000000000000E+00
  0.000000000000E+00
  0.000000000000E+00
  0.000000000000E+00
  0.000000000000E+00
  0.000000000000E+00
  0.000000000000E+00
  0.000000000000E+00
  0.000000000000E+00
  0.000000000000E+00
  0.000000000000E+00
  0.000000000000E+00
  0.000000000000E+00
  0.000000000000E+00
  0.000000000000E+00
  0.000000000000E+00
  0.000000000000E+00
  0.000000000000E+00
  0.000000000000E+00
  0.000000000000E+00
  0.000000000000E+00
  0.000000000000E+00
  0.000000000000E+00
  0.000000000000E+00
  0.000000000000E+00
  0.000000000000E+00
  0.000000000000E+00
  0.000000000000E+00
  0.000000000000E+00
  0.000000000000E+00
  0.000000000000E+00
  0.000000000000E+00
  0.000000000000E+00
  0.000000000000E+00
  0.000000000000E+00
  0.000000000000E+00
  0.000000000000E+00
  0.000000000000E+00
  0.000000000000E+00
  0.000000000000E+00
  0.000000000000E+00
  0.000000000000E+00
  0.000000000000E+00
  0.000000000000E+00
  0.000000000000E+00
  0.000000000000E+00
  0.000000000000E+00
  0.000000000000E+00
  0.000000000000E+00
  0.000000000000E+00
  0.000000000000E+00
  0.000000000000E+00
  0.000000000000E+00
  0.000000000000E+00
  0.000000000000E+00
  0.000000000000E+00
  0.000000000000E+00
  0.000000000000E+00
  0.000000000000E+00
  0.000000000000E+00
  0.000000000000E+00
  0.000000000000E+00
  0.000000000000E+00
  0.000000000000E+00
  0.000000000000E+00
  0.000000000000E+00
  0.000000000000E+00
  0.000000000000E+00
  0.000000000000E+00
  0.000000000000E+00
  0.000000000000E+00
  0.000000000000E+00
  0.000000000000E+00
  0.000000000000E+00
  0.000000000000E+00
  0.000000000000E+00
  0.000000000000E+00
  0.000000000000E+00
  0.000000000000E+00
  0.000000000000E+00
  0.000000000000E+00
  0.000000000000E+00
  0.000000000000E+00
  0.000000000000E+00
  0.000000000000E+00
  0.000000000000E+00
  0.000000000000E+00
  0.000000000000E+00
  0.000000000000E+00
  0.000000000000E+00
  0.000000000000E+00
  0.000000000000E+00
  0.000000000000E+00
SCALARS C_p_inc float 1
LOOKUP_TABLE default
  0.122107427649E+00
  0.917280417073E-01
  0.472105527935E-01
  0.207677417688E-01
 -0.245806823768E-01
 -0.438048213766E-01
 -0.228770182622E-01
 -0.425337147090E-01
  0.159982449283E+00
  0.794443779332E-01
  0.547479762138E+00
  0.543483885514E+00
 -0.289447547241E+00
  0.120198141819E+00
 -0.538442401483E+00
 -0.362105352720E+00
 -0.407052482386E+00
 -0.412139441176E+00
 -0.298691262971E+00
 -0.244062523718E+00
 -0.131837191618E+00
 -0.611584850274E-01
  0.172804180228E-01
  0.960432260611E-01
  0.120905556042E+00
  0.120567598709E+00
  0.557086125554E-01
  0.471258173382E-01
 -0.105422779275E-01
 -0.244575144714E-01
 -0.423976259383E-01
 -0.462369768602E-01
  0.792287022277E-01
  0.713958437401E-01
  0.476207969590E+00
  0.480744565482E+00
 -0.498621543251E+00
 -0.284577935832E+00
 -0.645904572891E+00
 -0.530959014983E+00
 -0.417232497559E+00
 -0.420438057509E+00
 -0.244529715745E+00
 -0.196337517353E+00
 -0.609667247791E-01
 -0.202576979652E-01
  0.931741995895E-01
  0.108000646493E+00
  0.120974141668E+00
  0.120176039367E+00
  0.563211964734E-01
  0.554868905008E-01
 -0.492083697850E-02
 -0.103445724803E-01
 -0.463406499360E-01
 -0.354441186569E-01
  0.709449235343E-01
  0.880618640530E-01
  0.480445904622E+00
  0.485071822864E+00
 -0.625170886007E+00
 -0.497025526449E+00
 -0.702066462994E+00
 -0.648423445299E+00
 -0.415674337518E+00
 -0.429108224367E+00
 -0.197258177818E+00
 -0.174207982276E+00
 -0.202703383167E-01
 -0.706411894689E-02
  0.107899054800E+00
  0.114412113819E+00
  0.119512345145E+00
  0.120237235493E+00
  0.548248877055E-01
  0.560527162390E-01
 -0.430687030253E-02
 -0.479961447477E-02
 -0.354774336528E-01
 -0.295216284225E-01
  0.884514740097E-01
  0.104079593256E+00
  0.492569526033E+00
  0.494731319101E+00
 -0.685997241878E+00
 -0.625371511576E+00
 -0.726109997571E+00
 -0.707139242652E+00
 -0.417947016606E+00
 -0.422150491742E+00
 -0.175087560066E+00
 -0.167692522733E+00
 -0.699465848500E-02
 -0.271164790953E-03
  0.115170773643E+00
  0.120471111833E+00
  0.113328800477E+00
  0.118344615156E+00
  0.473890149997E-01
  0.543709534452E-01
 -0.104479761258E-01
 -0.426104571514E-02
 -0.293396267261E-01
 -0.328837061630E-01
  0.104025858432E+00
  0.106084146062E+00
  0.497353728895E+00
  0.497725938542E+00
 -0.701463047215E+00
 -0.686232126617E+00
 -0.729027717574E+00
 -0.728597854984E+00
 -0.412785991510E+00
 -0.420887737819E+00
 -0.168475562737E+00
 -0.157811731815E+00
 -0.228109566336E-03
  0.128114781412E-01
  0.121572815976E+00
  0.133556462648E+00
  0.106265007398E+00
  0.110632871704E+00
  0.330449983622E-01
  0.461932600811E-01
 -0.299194433281E-01
 -0.105357711004E-01
 -0.325332321937E-01
 -0.525572146338E-01
  0.105123107324E+00
  0.901913818441E-01
  0.494665192804E+00
  0.494193439995E+00
 -0.675169946911E+00
 -0.701436780299E+00
 -0.708501357524E+00
 -0.730736146846E+00
 -0.392252692798E+00
 -0.415729986706E+00
 -0.158416595318E+00
 -0.132171223416E+00
  0.128043368998E-01
  0.480898436636E-01
  0.135345879271E+00
  0.170598470296E+00
  0.203071894828E+00
  0.954250971372E-01
  0.608071110421E-02
  0.272757242832E-01
 -0.753811012366E-01
 -0.310875489333E-01
 -0.524754978524E-01
 -0.101966458666E+00
  0.870174458090E-01
  0.476413155778E-01
  0.482221187350E+00
  0.481207774162E+00
 -0.618927608964E+00
 -0.674755367955E+00
 -0.672339531223E+00
 -0.709672795319E+00
 -0.360876217968E+00
 -0.395784307426E+00
 -0.131831182511E+00
 -0.964743762778E-01
  0.481264389714E-01
  0.104955499544E+00
  0.172758230166E+00
  0.343707503457E+00
 -0.225954700516E+02
 -0.115443298999E+00
  0.695989998894E+00
 -0.119140778178E+00
 -0.445297174562E+00
 -0.836764950209E-01
 -0.107643287260E+00
 -0.174688656279E+00
  0.372368312308E-01
 -0.356230703469E-01
  0.449014383724E+00
  0.449152316944E+00
 -0.549596423438E+00
 -0.617791088043E+00
 -0.625312110544E+00
 -0.672105427131E+00
 -0.324294957429E+00
 -0.365216733386E+00
 -0.949913767091E-01
 -0.337404054603E+00
  0.637780956126E-01
  0.768179694789E+00
 -0.237811080940E+00
 -0.220734370818E+02
 -0.407335616869E+08
 -0.212672540714E+05
 -0.119607894447E+05
  0.892045088820E+00
  0.260434659733E-01
 -0.433892808897E+00
 -0.227926074573E+00
 -0.276287110277E+00
 -0.697192234842E-01
 -0.980198163027E-01
  0.319364909809E+00
  0.338507555429E+00
 -0.457760426070E+00
 -0.547627078087E+00
 -0.455725135510E+00
 -0.647332308157E+00
 -0.345821584393E+00
 -0.330635760798E+00
 -0.366060888982E+00
 -0.518574351608E+00
  0.876316020475E+00
 -0.118873204357E+05
 -0.211539003636E+05
 -0.407357950593E+08
 -0.848422667809E+08
 -0.481479203575E+06
 -0.180193157808E+05
 -0.260851162512E+02
 -0.306298549566E+00
 -0.519878630340E+00
 -0.401333319266E+00
 -0.231157243832E+00
 -0.248095830693E+00
 -0.512103492122E-01
 -0.465025927562E+00
 -0.389334237973E+00
 -0.523545693702E+00
 -0.470783023672E+00
 -0.376628211226E+00
  0.554816043647E+00
 -0.371858239561E+02
 -0.181727399015E+05
 -0.479546555908E+06
 -0.848276499461E+08
 -0.579862300477E+08
 -0.576047930166E+06
 -0.215476707053E+05
 -0.394740128878E+02
 -0.191060216537E-01
 -0.682635711060E+00
 -0.555143765087E+00
 -0.373311428266E+00
 -0.389135880694E+00
 -0.255163491242E+00
 -0.395328891866E+00
 -0.435226070391E+00
 -0.456563936413E+00
 -0.588604282447E+00
 -0.523531320121E+00
  0.995825426186E+00
 -0.585622005574E+02
 -0.216976217096E+05
 -0.573105569338E+06
 -0.579739440170E+08
SCALARS inclination float 1
LOOKUP_TABLE default
  0.100000000000E+01
  0.100000000000E+01
  0.100000000000E+01
  0.100000000000E+01
  0.100000000000E+01
  0.100000000000E+01
  0.100000000000E+01
  0.100000000000E+01
  0.100000000000E+01
  0.100000000000E+01
  0.100000000000E+01
  0.100000000000E+01
  0.100000000000E+01
  0.100000000000E+01
  0.100000000000E+01
  0.100000000000E+01
  0.100000000000E+01
  0.100000000000E+01
  0.100000000000E+01
  0.100000000000E+01
  0.100000000000E+01
  0.100000000000E+01
  0.100000000000E+01
  0.100000000000E+01
  0.100000000000E+01
  0.100000000000E+01
  0.100000000000E+01
  0.100000000000E+01
  0.100000000000E+01
  0.100000000000E+01
  0.100000000000E+01
  0.100000000000E+01
  0.100000000000E+01
  0.100000000000E+01
  0.100000000000E+01
  0.100000000000E+01
  0.100000000000E+01
  0.100000000000E+01
  0.100000000000E+01
  0.100000000000E+01
  0.100000000000E+01
  0.100000000000E+01
  0.100000000000E+01
  0.100000000000E+01
  0.100000000000E+01
  0.100000000000E+01
  0.100000000000E+01
  0.100000000000E+01
  0.100000000000E+01
  0.100000000000E+01
  0.100000000000E+01
  0.100000000000E+01
  0.100000000000E+01
  0.100000000000E+01
  0.100000000000E+01
  0.100000000000E+01
  0.100000000000E+01
  0.100000000000E+01
  0.100000000000E+01
  0.100000000000E+01
  0.100000000000E+01
  0.100000000000E+01
  0.100000000000E+01
  0.100000000000E+01
  0.100000000000E+01
  0.100000000000E+01
  0.100000000000E+01
  0.100000000000E+01
  0.100000000000E+01
  0.100000000000E+01
  0.100000000000E+01
  0.100000000000E+01
  0.100000000000E+01
  0.100000000000E+01
  0.100000000000E+01
  0.100000000000E+01
  0.100000000000E+01
  0.100000000000E+01
  0.100000000000E+01
  0.100000000000E+01
  0.100000000000E+01
  0.100000000000E+01
  0.100000000000E+01
  0.100000000000E+01
  0.100000000000E+01
  0.100000000000E+01
  0.100000000000E+01
  0.100000000000E+01
  0.100000000000E+01
  0.100000000000E+01
  0.100000000000E+01
  0.100000000000E+01
  0.100000000000E+01
  0.100000000000E+01
  0.100000000000E+01
  0.100000000000E+01
  0.100000000000E+01
  0.100000000000E+01
  0.100000000000E+01
  0.100000000000E+01
  0.100000000000E+01
  0.100000000000E+01
  0.100000000000E+01
  0.100000000000E+01
  0.100000000000E+01
  0.100000000000E+01
  0.100000000000E+01
  0.100000000000E+01
  0.100000000000E+01
  0.100000000000E+01
  0.100000000000E+01
  0.100000000000E+01
  0.100000000000E+01
  0.100000000000E+01
  0.100000000000E+01
  0.100000000000E+01
  0.100000000000E+01
  0.100000000000E+01
  0.100000000000E+01
  0.100000000000E+01
  0.100000000000E+01
  0.100000000000E+01
  0.100000000000E+01
  0.100000000000E+01
  0.100000000000E+01
  0.100000000000E+01
  0.100000000000E+01
  0.100000000000E+01
  0.100000000000E+01
  0.100000000000E+01
  0.100000000000E+01
  0.100000000000E+01
  0.100000000000E+01
  0.100000000000E+01
  0.100000000000E+01
  0.100000000000E+01
  0.100000000000E+01
  0.100000000000E+01
  0.100000000000E+01
  0.100000000000E+01
  0.100000000000E+01
  0.100000000000E+01
  0.100000000000E+01
  0.100000000000E+01
  0.100000000000E+01
  0.100000000000E+01
  0.100000000000E+01
  0.100000000000E+01
  0.100000000000E+01
  0.100000000000E+01
  0.100000000000E+01
  0.100000000000E+01
  0.100000000000E+01
  0.100000000000E+01
  0.100000000000E+01
  0.100000000000E+01
  0.100000000000E+01
  0.100000000000E+01
  0.100000000000E+01
  0.100000000000E+01
  0.100000000000E+01
  0.100000000000E+01
  0.100000000000E+01
  0.100000000000E+01
  0.100000000000E+01
  0.100000000000E+01
  0.100000000000E+01
  0.100000000000E+01
  0.100000000000E+01
  0.100000000000E+01
  0.100000000000E+01
  0.100000000000E+01
  0.100000000000E+01
  0.100000000000E+01
  0.100000000000E+01
  0.100000000000E+01
  0.100000000000E+01
  0.100000000000E+01
  0.100000000000E+01
  0.100000000000E+01
  0.100000000000E+01
  0.100000000000E+01
  0.100000000000E+01
  0.100000000000E+01
  0.100000000000E+01
  0.100000000000E+01
  0.100000000000E+01
  0.100000000000E+01
  0.100000000000E+01
  0.100000000000E+01
  0.100000000000E+01
  0.100000000000E+01
  0.100000000000E+01
  0.100000000000E+01
  0.100000000000E+01
  0.100000000000E+01
  0.100000000000E+01
  0.100000000000E+01
  0.100000000000E+01
  0.100000000000E+01
  0.100000000000E+01
  0.100000000000E+01
  0.100000000000E+01
  0.100000000000E+01
  0.100000000000E+01
  0.100000000000E+01
  0.100000000000E+01
  0.100000000000E+01
  0.100000000000E+01
  0.100000000000E+01
  0.100000000000E+01
  0.100000000000E+01
  0.100000000000E+01
  0.100000000000E+01
  0.100000000000E+01
  0.100000000000E+01
  0.100000000000E+01
  0.100000000000E+01
  0.100000000000E+01
  0.100000000000E+01
  0.100000000000E+01
  0.100000000000E+01
  0.100000000000E+01
  0.100000000000E+01
  0.100000000000E+01
  0.100000000000E+01
  0.100000000000E+01
  0.100000000000E+01
  0.100000000000E+01
  0.100000000000E+01
  0.100000000000E+01
  0.100000000000E+01
  0.100000000000E+01
  0.100000000000E+01
  0.100000000000E+01
  0.100000000000E+01
  0.100000000000E+01
  0.100000000000E+01
  0.100000000000E+01
  0.100000000000E+01
  0.100000000000E+01
  0.100000000000E+01
  0.100000000000E+01
  0.100000000000E+01
  0.100000000000E+01
  0.100000000000E+01
  0.100000000000E+01
  0.100000000000E+01
  0.100000000000E+01
  0.100000000000E+01
  0.100000000000E+01
  0.100000000000E+01
  0.100000000000E+01
  0.100000000000E+01
  0.100000000000E+01
  0.100000000000E+01
VECTORS v float
  0.151856684707E+03  0.368973630107E+01  0.158322743388E+02
  0.154470295386E+03  0.293649566097E+01  0.161920504056E+02
  0.158177918927E+03 -0.771146215760E+00  0.171410069763E+02
  0.160374519757E+03  0.599219565105E+00  0.172300962708E+02
  0.164153411247E+03 -0.317969080227E+01  0.162981990556E+02
  0.165741443339E+03 -0.547011495124E+00  0.161964513874E+02
  0.164818479895E+03  0.375950728588E+00  0.339806479735E+01
  0.166313275994E+03 -0.514004817501E+01  0.354293648470E+01
  0.147609793616E+03  0.135634505235E+02 -0.185959120092E+02
  0.154693453437E+03 -0.573305003970E+01 -0.222555593865E+02
  0.911425936429E+02  0.578178340205E+02 -0.193167257313E+02
  0.946686176435E+02  0.499517054329E+02 -0.259201968275E+02
  0.156677267335E+03 -0.120569442587E+02  0.978069316469E+02
  0.136655528546E+03  0.326091079708E+02  0.603105974538E+02
  0.197693323654E+03 -0.284287035545E+02  0.313693283619E+02
  0.188351670142E+03 -0.298123353702E+01  0.265431293850E+02
  0.193148244478E+03 -0.777780430701E+01 -0.415196575107E+01
  0.193449320862E+03 -0.888881689898E+01 -0.418114874262E+01
  0.184876896301E+03 -0.316362546978E+00 -0.180377741077E+02
  0.180740240869E+03 -0.717421246048E+01 -0.183028194232E+02
  0.172421905070E+03  0.114416460135E+01 -0.184705138935E+02
  0.166900241176E+03 -0.230056917729E+01 -0.182465521563E+02
  0.160667120211E+03  0.393258261811E+01 -0.167477715164E+02
  0.154052963199E+03  0.583877915920E+01 -0.158373203037E+02
  0.151868118039E+03  0.737150175533E+01  0.154400766379E+02
  0.151898041332E+03  0.735317406294E+01  0.154452368298E+02
  0.157492028632E+03  0.175915448434E+01  0.167941705954E+02
  0.158206089934E+03  0.167940940199E+01  0.168797763899E+02
  0.163025461743E+03 -0.313998519093E+01  0.161844709130E+02
  0.164158663743E+03 -0.262077328836E+01  0.162442718370E+02
  0.166313431568E+03 -0.477555183491E+01  0.353540780353E+01
  0.166597878245E+03 -0.547484519515E+01  0.355573797710E+01
  0.154918851118E+03  0.620418869190E+01 -0.206308075837E+02
  0.155598908294E+03  0.489731246889E+01 -0.209064558476E+02
  0.978589671394E+02  0.626372770112E+02 -0.204162811250E+02
  0.947415875614E+02  0.676243876586E+02 -0.157185056493E+02
  0.170431042318E+03 -0.806506709767E+01  0.103465406247E+03
  0.161339174117E+03  0.647988604514E+01  0.897643200225E+02
  0.203386578957E+03 -0.355675243370E+02  0.331494993878E+02
  0.197762598793E+03 -0.247598410553E+02  0.308699669360E+02
  0.192967601815E+03 -0.199648245902E+02 -0.440007458597E+01
  0.193142858755E+03 -0.203956820906E+02 -0.441259720577E+01
  0.180732617671E+03 -0.798539816991E+01 -0.183810865653E+02
  0.177091675624E+03 -0.965360989178E+01 -0.181889455223E+02
  0.166932500371E+03  0.505613131538E+00 -0.179474116764E+02
  0.163701315874E+03  0.866466647344E+00 -0.175600453868E+02
  0.154105162463E+03  0.104626754343E+02 -0.153488115494E+02
  0.152786946909E+03  0.112700757726E+02 -0.151216754889E+02
  0.151810115738E+03  0.862842196241E+01  0.152995792084E+02
  0.151881687609E+03  0.857351726207E+01  0.153130852779E+02
  0.157436302447E+03  0.301886978223E+01  0.166523039856E+02
  0.157506136792E+03  0.298640356707E+01  0.166633451871E+02
  0.162597555725E+03 -0.210503887154E+01  0.160419886933E+02
  0.163034693085E+03 -0.215767833987E+01  0.160896930125E+02
  0.166597773278E+03 -0.572077308270E+01  0.356081766222E+01
  0.165773769807E+03 -0.417598080976E+01  0.351186799306E+01
  0.155619322692E+03  0.597847354725E+01 -0.207593011808E+02
  0.154113882695E+03  0.831071781030E+01 -0.202268995168E+02
  0.947533739079E+02  0.676712515423E+02 -0.156981721189E+02
  0.910370104259E+02  0.726633352437E+02 -0.106503137184E+02