# vtk DataFile Version 3.0
TriPan results file. Generated by TriPan, USU AeroLab (c) 2021.
ASCII
DATASET POLYDATA
POINTS                  20 float
  0.190000000000E+02  0.000000000000E+00  0.000000000000E+00
  0.982678293519E+04  0.000000000000E+00  0.185319982440E+04
  0.209237651825E+02  0.192375373840E+01  0.000000000000E+00
  0.982684925140E+04  0.192375373840E+01  0.185284885578E+04
  0.244703655243E+02  0.547033166885E+01  0.000000000000E+00
  0.982697151013E+04  0.547033166885E+01  0.185220181971E+04
  0.303820724487E+02  0.113820018768E+02  0.000000000000E+00
  0.982717529903E+04  0.113820018768E+02  0.185112329741E+04
  0.387563171387E+02  0.197561950684E+02  0.000000000000E+00
  0.982746397677E+04  0.197561950684E+02  0.184959551367E+04
  0.482439842224E+02  0.292438049316E+02  0.000000000000E+00
  0.982779103650E+04  0.292438049316E+02  0.184786459894E+04
  0.566182289124E+02  0.376179962158E+02  0.000000000000E+00
  0.982807971424E+04  0.376179962158E+02  0.184633681521E+04
  0.625299339294E+02  0.435296669006E+02  0.000000000000E+00
  0.982828350308E+04  0.435296669006E+02  0.184525829325E+04
  0.660765380859E+02  0.470762481689E+02  0.000000000000E+00
  0.982840576194E+04  0.470762481689E+02  0.184461125649E+04
  0.680002975464E+02  0.490000000000E+02  0.000000000000E+00
  0.982847207795E+04  0.490000000000E+02  0.184426028890E+04
POLYGONS                  18                  72
3                   0                   1                   3
3                   0                   3                   2
3                   2                   3                   5
3                   2                   5                   4
3                   4                   5                   7
3                   4                   7                   6
3                   6                   7                   9
3                   6                   9                   8
3                   8                   9                  11
3                   8                  11                  10
3                  10                  11                  13
3                  10                  13                  12
3                  12                  13                  15
3                  12                  15                  14
3                  14                  15                  17
3                  14                  17                  16
3                  16                  17                  19
3                  16                  19                  18
POINT_DATA                  20
SCALARS mu float 1
LOOKUP_TABLE default
 -0.611707931575E-03
 -0.611707931575E-03
 -0.147738146092E-03
 -0.147738146092E-03
 -0.212358963052E-03
 -0.212358963052E-03
 -0.286715216403E-03
 -0.286715216403E-03
 -0.328540912219E-03
 -0.328540912219E-03
 -0.302625742060E-03
 -0.302625742060E-03
 -0.216866677645E-03
 -0.216866677645E-03
 -0.115722898041E-03
 -0.115722898041E-03
 -0.384602925523E-04
 -0.384602925523E-04
  0.000000000000E+00
  0.000000000000E+00
