# vtk DataFile Version 3.0
TriPan results file. Generated by TriPan, USU AeroLab (c) 2021.
ASCII
DATASET POLYDATA
POINTS                 309 float
  0.000000000000E+00  0.000000000000E+00  0.000000000000E+00
  0.420131176710E+00  0.000000000000E+00 -0.412075400352E+00
  0.420131176710E+00  0.000000000000E+00  0.412075400352E+00
  0.928174138069E+00  0.928174138069E+00  0.000000000000E+00
  0.134830534458E+01  0.928174138069E+00 -0.412075400352E+00
  0.134830534458E+01  0.928174138069E+00  0.412075400352E+00
  0.181353092194E+01  0.000000000000E+00 -0.806821227074E+00
  0.181353092194E+01  0.000000000000E+00  0.806821227074E+00
  0.226196575165E+01  0.226196575165E+01  0.000000000000E+00
  0.268209695816E+01  0.226196575165E+01 -0.412075400352E+00
  0.268209695816E+01  0.226196575165E+01  0.412075400352E+00
  0.274170517921E+01  0.928174138069E+00 -0.806821227074E+00
  0.274170517921E+01  0.928174138069E+00  0.806821227074E+00
  0.407549667358E+01  0.226196575165E+01 -0.806821227074E+00
  0.407549667358E+01  0.226196575165E+01  0.806821227074E+00
  0.413893461227E+01  0.413893461227E+01  0.000000000000E+00
  0.455906581879E+01  0.413893461227E+01 -0.412075400352E+00
  0.455906581879E+01  0.413893461227E+01  0.412075400352E+00
  0.479629611969E+01  0.000000000000E+00 -0.111707651615E+01
  0.479629611969E+01  0.000000000000E+00  0.111707651615E+01
  0.572447013855E+01  0.928174138069E+00 -0.111707651615E+01
  0.572447013855E+01  0.928174138069E+00  0.111707651615E+01
  0.595246553421E+01  0.413893461227E+01 -0.806821227074E+00
  0.595246553421E+01  0.413893461227E+01  0.806821227074E+00
  0.670394468307E+01  0.670394468307E+01  0.000000000000E+00
  0.705826187134E+01  0.226196575165E+01 -0.111707651615E+01
  0.705826187134E+01  0.226196575165E+01  0.111707651615E+01
  0.712407588959E+01  0.670394468307E+01 -0.412075400352E+00
  0.712407588959E+01  0.670394468307E+01  0.412075400352E+00
  0.851747608185E+01  0.670394468307E+01 -0.806821227074E+00
  0.851747608185E+01  0.670394468307E+01  0.806821227074E+00
  0.893523120880E+01  0.413893461227E+01 -0.111707651615E+01
  0.893523120880E+01  0.413893461227E+01  0.111707651615E+01
  0.939523696899E+01  0.000000000000E+00 -0.980761349201E+00
  0.939523696899E+01  0.000000000000E+00  0.980761349201E+00
  0.100722141266E+02  0.100722141266E+02  0.000000000000E+00
  0.103234109879E+02  0.928174138069E+00 -0.980761349201E+00
  0.103234109879E+02  0.928174138069E+00  0.980761349201E+00
  0.104923458099E+02  0.100722141266E+02 -0.412075400352E+00
  0.104923458099E+02  0.100722141266E+02  0.412075400352E+00
  0.115002412796E+02  0.670394468307E+01 -0.111707651615E+01
  0.115002412796E+02  0.670394468307E+01  0.111707651615E+01
  0.116572027206E+02  0.226196575165E+01 -0.980761349201E+00
  0.116572027206E+02  0.226196575165E+01  0.980761349201E+00
  0.118857450485E+02  0.100722141266E+02 -0.806821227074E+00
  0.118857450485E+02  0.100722141266E+02  0.806821227074E+00
  0.135341711044E+02  0.413893461227E+01 -0.980761349201E+00
  0.135341711044E+02  0.413893461227E+01  0.980761349201E+00
  0.139772081375E+02  0.000000000000E+00 -0.540150463581E+00
  0.139772081375E+02  0.000000000000E+00  0.540150463581E+00
  0.142710342407E+02  0.142710342407E+02  0.000000000000E+00
  0.146911659241E+02  0.142710342407E+02 -0.412075400352E+00
  0.146911659241E+02  0.142710342407E+02  0.412075400352E+00
  0.148685102463E+02  0.100722141266E+02 -0.111707651615E+01
  0.148685102463E+02  0.100722141266E+02  0.111707651615E+01
  0.149053821564E+02  0.928174138069E+00 -0.540150463581E+00
  0.149053821564E+02  0.928174138069E+00  0.540150463581E+00
  0.160845661163E+02  0.142710342407E+02 -0.806821227074E+00
  0.160845661163E+02  0.142710342407E+02  0.806821227074E+00
  0.160991821289E+02  0.670394468307E+01 -0.980761349201E+00
  0.160991821289E+02  0.670394468307E+01  0.980761349201E+00
  0.162391738892E+02  0.226196575165E+01 -0.540150463581E+00
  0.162391738892E+02  0.226196575165E+01  0.540150463581E+00
  0.169605827332E+02  0.000000000000E+00 -0.218344569206E+00
  0.169605827332E+02  0.000000000000E+00  0.218344569206E+00
  0.178887577057E+02  0.928174138069E+00 -0.218344569206E+00
  0.178887577057E+02  0.928174138069E+00  0.218344569206E+00
  0.181161422729E+02  0.413893461227E+01 -0.540150463581E+00
  0.181161422729E+02  0.413893461227E+01  0.540150463581E+00
  0.184032192230E+02  0.000000000000E+00 -0.636830478907E-01
  0.184032192230E+02  0.000000000000E+00  0.636830478907E-01
  0.190003013611E+02  0.000000000000E+00  0.000000000000E+00
  0.190673313141E+02  0.142710342407E+02 -0.111707651615E+01
  0.190673313141E+02  0.142710342407E+02  0.111707651615E+01
  0.191784667969E+02  0.191784667969E+02  0.000000000000E+00
  0.192225494385E+02  0.226196575165E+01 -0.218344569206E+00
  0.192225494385E+02  0.226196575165E+01  0.218344569206E+00
  0.193313941956E+02  0.928174138069E+00 -0.636830478907E-01
  0.193313941956E+02  0.928174138069E+00  0.636830478907E-01
  0.194674510956E+02  0.100722141266E+02 -0.980761349201E+00
  0.194674510956E+02  0.100722141266E+02  0.980761349201E+00
  0.195985984802E+02  0.191784667969E+02 -0.412075400352E+00
  0.195985984802E+02  0.191784667969E+02  0.412075400352E+00
  0.199284744263E+02  0.928174138069E+00  0.000000000000E+00
  0.206651840210E+02  0.226196575165E+01 -0.636830478907E-01
  0.206651840210E+02  0.226196575165E+01  0.636830478907E-01
  0.206811523438E+02  0.670394468307E+01 -0.540150463581E+00
  0.206811523438E+02  0.670394468307E+01  0.540150463581E+00
  0.209919986725E+02  0.191784667969E+02 -0.806821227074E+00
  0.209919986725E+02  0.191784667969E+02  0.806821227074E+00
  0.210995178223E+02  0.413893461227E+01 -0.218344569206E+00
  0.210995178223E+02  0.413893461227E+01  0.218344569206E+00
  0.212622661591E+02  0.226196575165E+01  0.000000000000E+00
  0.225421543121E+02  0.413893461227E+01 -0.636830478907E-01
  0.225421543121E+02  0.413893461227E+01  0.636830478907E-01
  0.231392364502E+02  0.413893461227E+01  0.000000000000E+00
  0.236645278931E+02  0.670394468307E+01 -0.218344569206E+00
  0.236645278931E+02  0.670394468307E+01  0.218344569206E+00
  0.236662712097E+02  0.142710342407E+02 -0.980761349201E+00
  0.236662712097E+02  0.142710342407E+02  0.980761349201E+00
  0.239747638702E+02  0.191784667969E+02 -0.111707651615E+01
  0.239747638702E+02  0.191784667969E+02  0.111707651615E+01
  0.240494232178E+02  0.100722141266E+02 -0.540150463581E+00
  0.240494232178E+02  0.100722141266E+02  0.540150463581E+00
  0.245000000000E+02  0.245000000000E+02  0.000000000000E+00
  0.249201316833E+02  0.245000000000E+02 -0.412075400352E+00
  0.249201316833E+02  0.245000000000E+02  0.412075400352E+00
  0.251071643829E+02  0.670394468307E+01 -0.636830478907E-01
  0.251071643829E+02  0.670394468307E+01  0.636830478907E-01
  0.257042465210E+02  0.670394468307E+01  0.000000000000E+00
  0.263135318756E+02  0.245000000000E+02 -0.806821227074E+00
  0.263135318756E+02  0.245000000000E+02  0.806821227074E+00
  0.270327968597E+02  0.100722141266E+02 -0.218344569206E+00
  0.270327968597E+02  0.100722141266E+02  0.218344569206E+00
  0.282482414246E+02  0.142710342407E+02 -0.540150463581E+00
  0.282482414246E+02  0.142710342407E+02  0.540150463581E+00
  0.284754333496E+02  0.100722141266E+02 -0.636830478907E-01
  0.284754333496E+02  0.100722141266E+02  0.636830478907E-01
  0.285737037659E+02  0.191784667969E+02 -0.980761349201E+00
  0.285737037659E+02  0.191784667969E+02  0.980761349201E+00
  0.290725154877E+02  0.100722141266E+02  0.000000000000E+00
  0.292962951660E+02  0.245000000000E+02 -0.111707651615E+01
  0.292962951660E+02  0.245000000000E+02  0.111707651615E+01
  0.298215332031E+02  0.298215332031E+02  0.000000000000E+00
  0.302416648865E+02  0.298215332031E+02 -0.412075400352E+00
  0.302416648865E+02  0.298215332031E+02  0.412075400352E+00
  0.312316169739E+02  0.142710342407E+02 -0.218344569206E+00
  0.312316169739E+02  0.142710342407E+02  0.218344569206E+00
  0.316350631714E+02  0.298215332031E+02 -0.806821227074E+00
  0.316350631714E+02  0.298215332031E+02  0.806821227074E+00
  0.326742553711E+02  0.142710342407E+02 -0.636830478907E-01
  0.326742553711E+02  0.142710342407E+02  0.636830478907E-01
  0.331556739807E+02  0.191784667969E+02 -0.540150463581E+00
  0.331556739807E+02  0.191784667969E+02  0.540150463581E+00
  0.332713356018E+02  0.142710342407E+02  0.000000000000E+00
  0.338952369690E+02  0.245000000000E+02 -0.980761349201E+00
  0.338952369690E+02  0.245000000000E+02  0.980761349201E+00
  0.346178283691E+02  0.298215332031E+02 -0.111707651615E+01
  0.346178283691E+02  0.298215332031E+02  0.111707651615E+01
  0.347289657593E+02  0.347289657593E+02  0.000000000000E+00
  0.351490974426E+02  0.347289657593E+02 -0.412075400352E+00
  0.351490974426E+02  0.347289657593E+02  0.412075400352E+00
  0.361390495300E+02  0.191784667969E+02 -0.218344569206E+00
  0.361390495300E+02  0.191784667969E+02  0.218344569206E+00
  0.365424957275E+02  0.347289657593E+02 -0.806821227074E+00
  0.365424957275E+02  0.347289657593E+02  0.806821227074E+00
  0.375816879272E+02  0.191784667969E+02 -0.636830478907E-01
  0.375816879272E+02  0.191784667969E+02  0.636830478907E-01
  0.381787681580E+02  0.191784667969E+02  0.000000000000E+00
  0.384772071838E+02  0.245000000000E+02 -0.540150463581E+00
  0.384772071838E+02  0.245000000000E+02  0.540150463581E+00
  0.389277839661E+02  0.389277839661E+02  0.000000000000E+00
  0.392167701721E+02  0.298215332031E+02 -0.980761349201E+00
  0.392167701721E+02  0.298215332031E+02  0.980761349201E+00
  0.393479156494E+02  0.389277839661E+02 -0.412075400352E+00
  0.393479156494E+02  0.389277839661E+02  0.412075400352E+00
  0.395252609253E+02  0.347289657593E+02 -0.111707651615E+01
  0.395252609253E+02  0.347289657593E+02  0.111707651615E+01
  0.407413177490E+02  0.389277839661E+02 -0.806821227074E+00
  0.407413177490E+02  0.389277839661E+02  0.806821227074E+00
  0.414605827332E+02  0.245000000000E+02 -0.218344569206E+00
[...]
CELL_DATA                 568
SCALARS sigma float 1
LOOKUP_TABLE default
  0.000000000000E+00
  0.000000000000E+00
  0.000000000000E+00
  0.000000000000E+00
  0.000000000000E+00
  0.000000000000E+00
  0.000000000000E+00
  0.000000000000E+00
  0.000000000000E+00
  0.000000000000E+00
  0.000000000000E+00
  0.000000000000E+00
  0.000000000000E+00
  0.000000000000E+00
  0.000000000000E+00
  0.000000000000E+00
  0.000000000000E+00
  0.000000000000E+00
  0.000000000000E+00
  0.000000000000E+00
  0.000000000000E+00
  0.000000000000E+00
  0.000000000000E+00
  0.000000000000E+00
  0.000000000000E+00
  0.000000000000E+00
  0.000000000000E+00
  0.000000000000E+00
  0.000000000000E+00
  0.000000000000E+00
  0.000000000000E+00
  0.000000000000E+00
  0.000000000000E+00
  0.000000000000E+00
  0.000000000000E+00
  0.000000000000E+00
  0.000000000000E+00
  0.000000000000E+00
  0.000000000000E+00
  0.000000000000E+00
  0.000000000000E+00
  0.000000000000E+00
  0.000000000000E+00
  0.000000000000E+00
  0.000000000000E+00
  0.000000000000E+00
  0.000000000000E+00
  0.000000000000E+00
  0.000000000000E+00
  0.000000000000E+00
  0.000000000000E+00
  0.000000000000E+00
  0.000000000000E+00
  0.000000000000E+00
  0.000000000000E+00
  0.000000000000E+00
  0.000000000000E+00
  0.000000000000E+00
  0.000000000000E+00
  0.000000000000E+00
  0.000000000000E+00
  0.000000000000E+00
  0.000000000000E+00
  0.000000000000E+00
  0.000000000000E+00
  0.000000000000E+00
  0.000000000000E+00
  0.000000000000E+00
  0.000000000000E+00
  0.000000000000E+00
  0.000000000000E+00
  0.000000000000E+00
  0.000000000000E+00
  0.000000000000E+00
  0.000000000000E+00
  0.000000000000E+00
  0.000000000000E+00
  0.000000000000E+00
  0.000000000000E+00
  0.000000000000E+00
  0.000000000000E+00
  0.000000000000E+00
  0.000000000000E+00
  0.000000000000E+00
  0.000000000000E+00
  0.000000000000E+00
  0.000000000000E+00
  0.000000000000E+00
  0.000000000000E+00
  0.000000000000E+00
  0.000000000000E+00
  0.000000000000E+00
  0.000000000000E+00
  0.000000000000E+00
  0.000000000000E+00
  0.000000000000E+00
  0.000000000000E+00
  0.000000000000E+00
  0.000000000000E+00
  0.000000000000E+00
  0.000000000000E+00
  0.000000000000E+00
  0.000000000000E+00
  0.000000000000E+00
  0.000000000000E+00
  0.000000000000E+00
  0.000000000000E+00
  0.000000000000E+00
  0.000000000000E+00
  0.000000000000E+00
  0.000000000000E+00
  0.000000000000E+00
  0.000000000000E+00
  0.000000000000E+00
  0.000000000000E+00
  0.000000000000E+00
  0.000000000000E+00
  0.000000000000E+00
  0.000000000000E+00
  0.000000000000E+00
  0.000000000000E+00
  0.000000000000E+00
  0.000000000000E+00
  0.000000000000E+00
  0.000000000000E+00
  0.000000000000E+00
  0.000000000000E+00
  0.000000000000E+00
  0.000000000000E+00
  0.000000000000E+00
  0.000000000000E+00
  0.000000000000E+00
  0.000000000000E+00
  0.000000000000E+00
  0.000000000000E+00
  0.000000000000E+00
  0.000000000000E+00
  0.000000000000E+00
  0.000000000000E+00
  0.000000000000E+00
  0.000000000000E+00
  0.000000000000E+00
  0.000000000000E+00
  0.000000000000E+00
  0.000000000000E+00
  0.000000000000E+00
  0.000000000000E+00
  0.000000000000E+00
  0.000000000000E+00
  0.000000000000E+00
  0.000000000000E+00
  0.000000000000E+00
  0.000000000000E+00
  0.000000000000E+00
  0.000000000000E+00
  0.000000000000E+00
  0.000000000000E+00
  0.000000000000E+00
  0.000000000000E+00
  0.000000000000E+00
  0.000000000000E+00
  0.000000000000E+00
  0.000000000000E+00
  0.000000000000E+00
  0.000000000000E+00
  0.000000000000E+00
  0.000000000000E+00
  0.000000000000E+00
  0.000000000000E+00
  0.000000000000E+00
  0.000000000000E+00
  0.000000000000E+00
  0.000000000000E+00
  0.000000000000E+00
  0.000000000000E+00
  0.000000000000E+00
  0.000000000000E+00
  0.000000000000E+00
  0.000000000000E+00
  0.000000000000E+00
  0.000000000000E+00
  0.000000000000E+00
  0.000000000000E+00
  0.000000000000E+00
  0.000000000000E+00
  0.000000000000E+00
  0.000000000000E+00
  0.000000000000E+00
  0.000000000000E+00
  0.000000000000E+00
  0.000000000000E+00
  0.000000000000E+00
  0.000000000000E+00
  0.000000000000E+00
  0.000000000000E+00
  0.000000000000E+00
  0.000000000000E+00
  0.000000000000E+00
  0.000000000000E+00
  0.000000000000E+00
  0.000000000000E+00
  0.000000000000E+00
  0.000000000000E+00
  0.000000000000E+00
  0.000000000000E+00
  0.000000000000E+00
  0.000000000000E+00
  0.000000000000E+00
  0.000000000000E+00
  0.000000000000E+00
  0.000000000000E+00
  0.000000000000E+00
  0.000000000000E+00
  0.000000000000E+00
  0.000000000000E+00
  0.000000000000E+00
  0.000000000000E+00
  0.000000000000E+00
  0.000000000000E+00
  0.000000000000E+00
  0.000000000000E+00
  0.000000000000E+00
  0.000000000000E+00
  0.000000000000E+00
  0.000000000000E+00
  0.000000000000E+00
  0.000000000000E+00
  0.000000000000E+00
  0.000000000000E+00
  0.000000000000E+00
  0.000000000000E+00
  0.000000000000E+00
  0.000000000000E+00
  0.000000000000E+00
  0.000000000000E+00
  0.000000000000E+00
  0.000000000000E+00
  0.000000000000E+00
  0.000000000000E+00
  0.000000000000E+00
  0.000000000000E+00
  0.000000000000E+00
  0.000000000000E+00
  0.000000000000E+00
  0.000000000000E+00
  0.000000000000E+00
  0.000000000000E+00
  0.000000000000E+00
  0.000000000000E+00
  0.000000000000E+00
  0.000000000000E+00
  0.000000000000E+00
  0.000000000000E+00
  0.000000000000E+00
  0.000000000000E+00
  0.000000000000E+00
  0.000000000000E+00
  0.000000000000E+00
  0.000000000000E+00
  0.000000000000E+00
  0.000000000000E+00
  0.000000000000E+00
  0.000000000000E+00
  0.000000000000E+00
  0.000000000000E+00
  0.000000000000E+00
  0.000000000000E+00
  0.000000000000E+00
  0.000000000000E+00
  0.000000000000E+00
  0.000000000000E+00
  0.000000000000E+00
  0.000000000000E+00
  0.000000000000E+00
  0.000000000000E+00
  0.000000000000E+00
  0.000000000000E+00
  0.000000000000E+00
  0.000000000000E+00
  0.000000000000E+00
  0.000000000000E+00
  0.000000000000E+00
  0.000000000000E+00
  0.000000000000E+00
  0.000000000000E+00
  0.000000000000E+00
  0.000000000000E+00
  0.000000000000E+00
  0.000000000000E+00
  0.000000000000E+00
  0.000000000000E+00
  0.000000000000E+00
  0.000000000000E+00
  0.000000000000E+00
  0.000000000000E+00
  0.000000000000E+00
  0.000000000000E+00
  0.000000000000E+00
  0.000000000000E+00
  0.000000000000E+00
  0.000000000000E+00
  0.000000000000E+00
  0.000000000000E+00
  0.000000000000E+00
  0.000000000000E+00
  0.000000000000E+00
  0.000000000000E+00
  0.000000000000E+00
  0.000000000000E+00
  0.000000000000E+00
  0.000000000000E+00
  0.000000000000E+00
  0.000000000000E+00
  0.000000000000E+00
  0.000000000000E+00
  0.000000000000E+00
  0.000000000000E+00
  0.000000000000E+00
  0.000000000000E+00
  0.000000000000E+00
  0.000000000000E+00
  0.000000000000E+00
  0.000000000000E+00
  0.000000000000E+00
  0.000000000000E+00
  0.000000000000E+00
  0.000000000000E+00
  0.000000000000E+00
  0.000000000000E+00
  0.000000000000E+00
  0.000000000000E+00
  0.000000000000E+00
  0.000000000000E+00
  0.000000000000E+00
  0.000000000000E+00
  0.000000000000E+00
  0.000000000000E+00
  0.000000000000E+00
  0.000000000000E+00
  0.000000000000E+00
  0.000000000000E+00
  0.000000000000E+00
  0.000000000000E+00
  0.000000000000E+00
  0.000000000000E+00
  0.000000000000E+00
  0.000000000000E+00
  0.000000000000E+00
  0.000000000000E+00
  0.000000000000E+00
  0.000000000000E+00
  0.000000000000E+00
  0.000000000000E+00
  0.000000000000E+00
  0.000000000000E+00
  0.000000000000E+00
  0.000000000000E+00
  0.000000000000E+00
  0.000000000000E+00
  0.000000000000E+00
  0.000000000000E+00
  0.000000000000E+00
  0.000000000000E+00
  0.000000000000E+00
  0.000000000000E+00
  0.000000000000E+00
  0.000000000000E+00
  0.000000000000E+00
  0.000000000000E+00
  0.000000000000E+00
  0.000000000000E+00
  0.000000000000E+00
  0.000000000000E+00
  0.000000000000E+00
  0.000000000000E+00
  0.000000000000E+00
  0.000000000000E+00
  0.000000000000E+00
  0.000000000000E+00
  0.000000000000E+00
  0.000000000000E+00
  0.000000000000E+00
  0.000000000000E+00
  0.000000000000E+00
  0.000000000000E+00
  0.000000000000E+00
  0.000000000000E+00
  0.000000000000E+00
  0.000000000000E+00
  0.000000000000E+00
  0.000000000000E+00
  0.000000000000E+00
  0.000000000000E+00
  0.000000000000E+00
  0.000000000000E+00
  0.000000000000E+00
  0.000000000000E+00
  0.000000000000E+00
  0.000000000000E+00
  0.000000000000E+00
  0.000000000000E+00
  0.000000000000E+00
  0.000000000000E+00
  0.000000000000E+00
  0.000000000000E+00
  0.000000000000E+00
  0.000000000000E+00
  0.000000000000E+00
  0.000000000000E+00
  0.000000000000E+00
  0.000000000000E+00
  0.000000000000E+00
  0.000000000000E+00
  0.000000000000E+00
  0.000000000000E+00
  0.000000000000E+00
  0.000000000000E+00
  0.000000000000E+00
  0.000000000000E+00
  0.000000000000E+00
  0.000000000000E+00
  0.000000000000E+00
  0.000000000000E+00
  0.000000000000E+00
  0.000000000000E+00
  0.000000000000E+00
  0.000000000000E+00
  0.000000000000E+00
  0.000000000000E+00
  0.000000000000E+00
  0.000000000000E+00
  0.000000000000E+00
  0.000000000000E+00
  0.000000000000E+00
  0.000000000000E+00
  0.000000000000E+00
  0.000000000000E+00
  0.000000000000E+00
  0.000000000000E+00
  0.000000000000E+00
  0.000000000000E+00
  0.000000000000E+00
  0.000000000000E+00
  0.000000000000E+00
  0.000000000000E+00
  0.000000000000E+00
  0.000000000000E+00
  0.000000000000E+00
  0.000000000000E+00
  0.000000000000E+00
  0.000000000000E+00
  0.000000000000E+00
  0.000000000000E+00
  0.000000000000E+00
  0.000000000000E+00
  0.000000000000E+00
  0.000000000000E+00
  0.000000000000E+00
  0.000000000000E+00
  0.000000000000E+00
  0.000000000000E+00
  0.000000000000E+00
  0.000000000000E+00
  0.000000000000E+00
  0.000000000000E+00
  0.000000000000E+00
  0.000000000000E+00
  0.000000000000E+00
  0.000000000000E+00
  0.000000000000E+00
  0.000000000000E+00
  0.000000000000E+00
  0.000000000000E+00
  0.000000000000E+00
  0.000000000000E+00
  0.000000000000E+00
  0.000000000000E+00
  0.000000000000E+00
  0.000000000000E+00
  0.000000000000E+00
  0.000000000000E+00
  0.000000000000E+00
  0.000000000000E+00
  0.000000000000E+00
  0.000000000000E+00
  0.000000000000E+00
  0.000000000000E+00
  0.000000000000E+00
  0.000000000000E+00
  0.000000000000E+00
  0.000000000000E+00
  0.000000000000E+00
  0.000000000000E+00
  0.000000000000E+00
  0.000000000000E+00
  0.000000000000E+00
  0.000000000000E+00
  0.000000000000E+00
  0.000000000000E+00
  0.000000000000E+00
  0.000000000000E+00
  0.000000000000E+00
  0.000000000000E+00
  0.000000000000E+00
  0.000000000000E+00
  0.000000000000E+00
  0.000000000000E+00
  0.000000000000E+00
  0.000000000000E+00
  0.000000000000E+00
  0.000000000000E+00
  0.000000000000E+00
  0.000000000000E+00
  0.000000000000E+00
  0.000000000000E+00
  0.000000000000E+00
  0.000000000000E+00
  0.000000000000E+00
  0.000000000000E+00
  0.000000000000E+00
  0.000000000000E+00
  0.000000000000E+00
  0.000000000000E+00
  0.000000000000E+00
  0.000000000000E+00
  0.000000000000E+00
  0.000000000000E+00
  0.000000000000E+00
  0.000000000000E+00
  0.000000000000E+00
  0.000000000000E+00
  0.000000000000E+00
  0.000000000000E+00
  0.000000000000E+00
  0.000000000000E+00
  0.000000000000E+00
  0.000000000000E+00
  0.000000000000E+00
  0.000000000000E+00
  0.000000000000E+00
  0.000000000000E+00
  0.000000000000E+00
  0.000000000000E+00
  0.000000000000E+00
  0.000000000000E+00
  0.000000000000E+00
  0.000000000000E+00
  0.000000000000E+00
  0.000000000000E+00
  0.000000000000E+00
  0.000000000000E+00
  0.000000000000E+00
  0.000000000000E+00
  0.000000000000E+00
  0.000000000000E+00
  0.000000000000E+00
  0.000000000000E+00
  0.000000000000E+00
  0.000000000000E+00
  0.000000000000E+00
  0.000000000000E+00
  0.000000000000E+00
  0.000000000000E+00
  0.000000000000E+00
  0.000000000000E+00
  0.000000000000E+00
  0.000000000000E+00
  0.000000000000E+00
SCALARS C_p_inc float 1
LOOKUP_TABLE default
 -0.199775496244E+01
 -0.403523079057E+01
 -0.758746431933E+00
 -0.597113343140E+00
 -0.305239785523E+00
 -0.249902341136E+00
 -0.147756935001E+00
 -0.133859150954E+00
 -0.172990947795E-01
 -0.429074018576E-01
  0.192532653719E+00
  0.135658931672E+00
  0.464438570873E+00
  0.417214243767E+00
  0.686273534470E+00
  0.670941430758E+00
 -0.352660832962E+00
  0.130553422518E+00
 -0.602555784806E+00
 -0.346737886702E+00
 -0.481744538039E+00
 -0.429039320345E+00
 -0.341760555404E+00
 -0.371453428810E+00
 -0.158017970434E+00
 -0.104354106447E+00
  0.130890936946E+00
  0.219196990893E+00
  0.480289828227E+00
  0.628188490534E+00
  0.208871624879E+00
  0.439024481641E+00
 -0.150938568371E+01
 -0.190306307214E+01
 -0.636805918377E+00
 -0.805683132227E+00
 -0.332761776651E+00
 -0.309626250646E+00
 -0.173490156384E+00
 -0.149363201324E+00
 -0.413091411097E-01
 -0.724565486018E-01
  0.135509383748E+00
  0.101788053152E+00
  0.382209820197E+00
  0.377486603829E+00
  0.549712034083E+00
  0.503773594498E+00
 -0.612917882088E+00
 -0.370950298936E+00
 -0.743215225755E+00
 -0.575296624970E+00
 -0.538224057356E+00
 -0.486458222624E+00
 -0.322510373621E+00
 -0.352548628284E+00
 -0.100497288917E+00
 -0.450624926748E-01
  0.215938918730E+00
  0.283801225587E+00
  0.559666707643E+00
  0.497104430810E+00
  0.462075148399E+00
  0.480023242593E+00
 -0.133143281453E+01
 -0.148639831035E+01
 -0.549139860776E+00
 -0.636695359007E+00
 -0.308548847533E+00
 -0.340421367056E+00
 -0.194005735634E+00
 -0.176570379216E+00
 -0.695416132863E-01
 -0.986293760111E-01
  0.995899878877E-01
  0.779119771714E-01
  0.360675565951E+00
  0.359818073193E+00
  0.481991727471E+00
  0.445487292529E+00
 -0.791509765440E+00
 -0.617952933165E+00
 -0.849139196156E+00
 -0.728828061933E+00
 -0.570434491621E+00
 -0.541193188943E+00
 -0.297738872005E+00
 -0.337110239169E+00
 -0.414018191026E-01
  0.843270089619E-02
  0.273003005827E+00
  0.278008684889E+00
  0.485384811101E+00
  0.453765732710E+00
  0.485684685296E+00
  0.491646938271E+00
 -0.124592015784E+01
 -0.132284770763E+01
 -0.505707740439E+00
 -0.547570821182E+00
 -0.280562513372E+00
 -0.310174465285E+00
 -0.195740072099E+00
 -0.197417922465E+00
 -0.966158755454E-01
 -0.117101683246E+00
  0.763590803218E-01
  0.604525560099E-01
  0.352087404102E+00
  0.351529286796E+00
  0.439755213241E+00
  0.417344664978E+00
 -0.898643316669E+00
 -0.792447987001E+00
 -0.909580229956E+00
 -0.844969887609E+00
 -0.581177604214E+00
 -0.577757163775E+00
 -0.270196215385E+00
 -0.311028180287E+00
  0.100315085838E-01
  0.346743564548E-01
  0.273351010425E+00
  0.265630692422E+00
  0.450893543212E+00
  0.437904578791E+00
  0.493107372625E+00
  0.496254650518E+00
 -0.120134504348E+01
 -0.124197128672E+01
 -0.483554456645E+00
 -0.505014869171E+00
 -0.264292245874E+00
 -0.280787810635E+00
 -0.188937041702E+00
 -0.197479230347E+00
 -0.116750790398E+00
 -0.123515511260E+00
  0.599128306419E-01
  0.501406132519E-01
  0.349059520266E+00
  0.347125023106E+00
  0.418660563743E+00
  0.411034462004E+00
 -0.938431889435E+00
 -0.898682085303E+00
 -0.928596978896E+00
 -0.911901951330E+00
 -0.575766495895E+00
 -0.589433289580E+00
 -0.252485252524E+00
 -0.278054831818E+00
  0.348091854296E-01
  0.414977298583E-01
  0.264168016509E+00
  0.259528853425E+00
  0.436996509115E+00
  0.431304594585E+00
  0.496936794072E+00
  0.498735787666E+00
 -0.117665957989E+01
 -0.119891524673E+01
 -0.471667447222E+00
 -0.483266195566E+00
 -0.255779625764E+00
 -0.264326146234E+00
 -0.183282950304E+00
 -0.189539151685E+00
 -0.124159545735E+00
 -0.123370902241E+00
  0.501400519514E-01
  0.463087510353E-01
  0.347361767600E+00
  0.345017754750E+00
  0.414537111811E+00
  0.415911131586E+00
 -0.935954793591E+00
 -0.938444232974E+00
 -0.924580732813E+00
 -0.932344558296E+00
 -0.567598109685E+00
 -0.581108240828E+00
 -0.245090571507E+00
 -0.255457627696E+00
  0.414521919219E-01
  0.428237078282E-01
  0.259059958760E+00
  0.256917207971E+00
  0.431073531469E+00
  0.428365679796E+00
  0.499229169298E+00
  0.500291560321E+00
 -0.116053480895E+01
 -0.117459763373E+01
 -0.464404841171E+00
 -0.471473526929E+00
 -0.251085288441E+00
 -0.255731768407E+00
 -0.179999616268E+00
 -0.183457356577E+00
 -0.123980213045E+00
 -0.122344917757E+00
  0.463963195902E-01
  0.452891474177E-01
  0.345888344797E+00
  0.344099926990E+00
  0.418687768930E+00
  0.422082909197E+00
 -0.922480084759E+00
 -0.935978575152E+00
 -0.916179568400E+00
 -0.926984379431E+00
 -0.561924010248E+00
 -0.569867685245E+00
 -0.241948891132E+00
 -0.245900673982E+00
  0.427982666767E-01
  0.432014789338E-01
  0.256782659623E+00
  0.255753668690E+00
  0.428373221979E+00
  0.426820412263E+00
  0.500660049985E+00
  0.501386847676E+00
 -0.114473845916E+01
 -0.115838617999E+01
 -0.458129865031E+00
 -0.464127715575E+00
 -0.247863512387E+00
 -0.250929423677E+00
 -0.178247973945E+00
 -0.179979109634E+00
 -0.122625378482E+00
 -0.121971021280E+00
  0.453328031341E-01
  0.445685935153E-01
  0.344598719922E+00
  0.343234123070E+00
  0.423327312408E+00
  0.426210250846E+00
 -0.910892656261E+00
 -0.922489814277E+00
 -0.909333043696E+00
 -0.917295018328E+00
 -0.558108777517E+00
 -0.562768946514E+00
 -0.240063461487E+00
 -0.242191775106E+00
  0.431911089681E-01
  0.435679743328E-01
  0.255747285577E+00
  0.255116146916E+00
  0.426937597243E+00
  0.425578204125E+00
  0.501691906411E+00
  0.502416445243E+00
 -0.111962686100E+01
 -0.114228046284E+01
 -0.449099357600E+00
 -0.457589487829E+00
 -0.244336775862E+00
 -0.247504652390E+00
 -0.177355349292E+00
 -0.178057191270E+00
 -0.121951507618E+00
 -0.122664056678E+00
  0.445656213052E-01
  0.430772049553E-01
  0.343217539925E+00
  0.341710117330E+00
  0.426190641575E+00
  0.428886945926E+00
 -0.901009897964E+00
 -0.910894412946E+00
 -0.903368723758E+00
 -0.909795267012E+00
 -0.554745567953E+00
 -0.558493479790E+00
 -0.238147674868E+00
 -0.240229251385E+00
  0.435646160643E-01
  0.443091472597E-01
  0.255215796270E+00
  0.254677668383E+00
  0.425888448950E+00
  0.423942140333E+00
  0.502899313080E+00
  0.503956511544E+00
 -0.106961261918E+01
 -0.111667628441E+01
 -0.431282649282E+00
 -0.447997772015E+00
 -0.238098844343E+00
 -0.243550925574E+00
 -0.176923273316E+00
 -0.176889234016E+00
 -0.122300648661E+00
 -0.125150967977E+00
  0.430231875001E-01
  0.397907523147E-01
  0.341126083078E+00
  0.338756972941E+00
  0.427667271902E+00
  0.431217245989E+00
 -0.889566790804E+00
 -0.901009871534E+00
 -0.896234356691E+00
 -0.903518006743E+00
 -0.550373388493E+00
 -0.555042225342E+00
 -0.235038493788E+00
 -0.238431795983E+00
  0.443120724419E-01
  0.461765995632E-01
  0.255007445177E+00
  0.254625131590E+00
  0.424845852107E+00
  0.421371528148E+00
  0.505382079845E+00
  0.506958291383E+00
 -0.973552138339E+00
 -0.106609651310E+01
 -0.395277590725E+00
 -0.429184840025E+00
 -0.224728087221E+00
 -0.236473071591E+00
 -0.176088332472E+00
 -0.175921427666E+00
 -0.124203798498E+00
 -0.130900371621E+00
  0.396414093695E-01
  0.329828114786E-01
  0.337302757488E+00
  0.333148975113E+00
  0.428298531912E+00
  0.433970668094E+00
 -0.873152006817E+00
 -0.889570363543E+00
 -0.885750167430E+00
 -0.896216388866E+00
 -0.543319925235E+00
 -0.550835567606E+00
 -0.228976060609E+00
 -0.235730449540E+00
  0.461901137097E-01
  0.507757384078E-01
  0.255530500290E+00
  0.255727834178E+00
  0.423858603953E+00
  0.417693452282E+00
  0.511274365234E+00
  0.512565712129E+00
 -0.815490528837E+00
 -0.969140579658E+00
 -0.332910857394E+00
 -0.391612211641E+00
 -0.199993144800E+00
 -0.221828894771E+00
 -0.172087457293E+00
 -0.174179462207E+00
 -0.128956553375E+00
 -0.141216827482E+00
  0.325913291098E-01
  0.197943186644E-01
  0.330073849753E+00
  0.322944630164E+00
  0.428110182386E+00
  0.437434377325E+00
 -0.848852524064E+00
 -0.873170779299E+00
 -0.869904827620E+00
 -0.885636092724E+00
 -0.531499029366E+00
 -0.544333323961E+00
 -0.216959202883E+00
 -0.230775449237E+00
  0.508061487984E-01
  0.597161371612E-01