# vtk DataFile Version 3.0
TriPan results file. Generated by TriPan, USU AeroLab (c) 2021.
ASCII
DATASET POLYDATA
POINTS                 144 float
  0.000000000000E+00  0.000000000000E+00  0.000000000000E+00
  0.113538098335E+01  0.000000000000E+00 -0.658124566078E+00
  0.113538098335E+01  0.000000000000E+00  0.658124566078E+00
  0.192375373840E+01  0.192375373840E+01  0.000000000000E+00
  0.305913543701E+01  0.192375373840E+01 -0.658124983311E+00
  0.305913543701E+01  0.192375373840E+01  0.658124983311E+00
  0.423028087616E+01  0.000000000000E+00 -0.108747220039E+01
  0.423028087616E+01  0.000000000000E+00  0.108747220039E+01
  0.547033166885E+01  0.547033166885E+01  0.000000000000E+00
  0.615403699875E+01  0.192375373840E+01 -0.108747279644E+01
  0.615403699875E+01  0.192375373840E+01  0.108747279644E+01
  0.660571479797E+01  0.547033166885E+01 -0.658125698566E+00
  0.660571479797E+01  0.547033166885E+01  0.658125698566E+00
  0.939508819580E+01  0.000000000000E+00 -0.980745851994E+00
  0.939508819580E+01  0.000000000000E+00  0.980745851994E+00
  0.970061969757E+01  0.547033166885E+01 -0.108747410774E+01
  0.970061969757E+01  0.547033166885E+01  0.108747410774E+01
  0.113188476562E+02  0.192375373840E+01 -0.980746448040E+00
  0.113188476562E+02  0.192375373840E+01  0.980746448040E+00
  0.113820018768E+02  0.113820018768E+02  0.000000000000E+00
  0.125173873901E+02  0.113820018768E+02 -0.658127009869E+00
  0.125173873901E+02  0.113820018768E+02  0.658127009869E+00
  0.145402030945E+02  0.000000000000E+00 -0.479613035917E+00
  0.145402030945E+02  0.000000000000E+00  0.479613035917E+00
  0.148654365540E+02  0.547033166885E+01 -0.980747580528E+00
  0.148654365540E+02  0.547033166885E+01  0.980747580528E+00
  0.156122989655E+02  0.113820018768E+02 -0.108747613430E+01
  0.156122989655E+02  0.113820018768E+02  0.108747613430E+01
  0.164639663696E+02  0.192375373840E+01 -0.479613333941E+00
  0.164639663696E+02  0.192375373840E+01  0.479613333941E+00
  0.176505107880E+02  0.000000000000E+00 -0.144198849797E+00
  0.176505107880E+02  0.000000000000E+00  0.144198849797E+00
  0.190000000000E+02  0.000000000000E+00  0.000000000000E+00
  0.195742740631E+02  0.192375373840E+01 -0.144198939204E+00
  0.195742740631E+02  0.192375373840E+01  0.144198939204E+00
  0.197561950684E+02  0.197561950684E+02  0.000000000000E+00
  0.200105609894E+02  0.547033166885E+01 -0.479613870382E+00
  0.200105609894E+02  0.547033166885E+01  0.479613870382E+00
  0.207771244049E+02  0.113820018768E+02 -0.980749428272E+00
  0.207771244049E+02  0.113820018768E+02  0.980749428272E+00
  0.208915824890E+02  0.197561950684E+02 -0.658128738403E+00
  0.208915824890E+02  0.197561950684E+02  0.658128738403E+00
  0.209237651825E+02  0.192375373840E+01  0.000000000000E+00
  0.231208724976E+02  0.547033166885E+01 -0.144199103117E+00
  0.231208724976E+02  0.547033166885E+01  0.144199103117E+00
  0.239865016937E+02  0.197561950684E+02 -0.108747911453E+01
  0.239865016937E+02  0.197561950684E+02  0.108747911453E+01
  0.244703655243E+02  0.547033166885E+01  0.000000000000E+00
  0.259222583771E+02  0.113820018768E+02 -0.479614794254E+00
  0.259222583771E+02  0.113820018768E+02  0.479614794254E+00
  0.290325775146E+02  0.113820018768E+02 -0.144199386239E+00
  0.290325775146E+02  0.113820018768E+02  0.144199386239E+00
  0.291513423920E+02  0.197561950684E+02 -0.980752110481E+00
  0.291513423920E+02  0.197561950684E+02  0.980752110481E+00
  0.292438049316E+02  0.292438049316E+02  0.000000000000E+00
  0.303791980743E+02  0.292438049316E+02 -0.658130764961E+00
  0.303791980743E+02  0.292438049316E+02  0.658130764961E+00
  0.303820724487E+02  0.113820018768E+02  0.000000000000E+00
  0.334741249084E+02  0.292438049316E+02 -0.108748245239E+01
  0.334741249084E+02  0.292438049316E+02  0.108748245239E+01
  0.342964897156E+02  0.197561950684E+02 -0.479616105556E+00
  0.342964897156E+02  0.197561950684E+02  0.479616105556E+00
  0.374068183899E+02  0.197561950684E+02 -0.144199773669E+00
  0.374068183899E+02  0.197561950684E+02  0.144199773669E+00
  0.376179962158E+02  0.376179962158E+02  0.000000000000E+00
  0.386389808655E+02  0.292438049316E+02 -0.980755090714E+00
  0.386389808655E+02  0.292438049316E+02  0.980755090714E+00
  0.387533912659E+02  0.376179962158E+02 -0.658132553101E+00
  0.387533912659E+02  0.376179962158E+02  0.658132553101E+00
  0.387563171387E+02  0.197561950684E+02  0.000000000000E+00
  0.418483314514E+02  0.376179962158E+02 -0.108748543262E+01
  0.418483314514E+02  0.376179962158E+02  0.108748543262E+01
  0.435296669006E+02  0.435296669006E+02  0.000000000000E+00
  0.437841453552E+02  0.292438049316E+02 -0.479617565870E+00
  0.437841453552E+02  0.292438049316E+02  0.479617565870E+00
  0.446650657654E+02  0.435296669006E+02 -0.658133804798E+00
  0.446650657654E+02  0.435296669006E+02  0.658133804798E+00
  0.468944816589E+02  0.292438049316E+02 -0.144200220704E+00
  0.468944816589E+02  0.292438049316E+02  0.144200220704E+00
  0.470131988525E+02  0.376179962158E+02 -0.980757772923E+00
  0.470131988525E+02  0.376179962158E+02  0.980757772923E+00
  0.470762481689E+02  0.470762481689E+02  0.000000000000E+00
  0.477600097656E+02  0.435296669006E+02 -0.108748745918E+01
  0.477600097656E+02  0.435296669006E+02  0.108748745918E+01
  0.482116432190E+02  0.470762481689E+02 -0.658134579659E+00
  0.482116432190E+02  0.470762481689E+02  0.658134579659E+00
  0.482439842224E+02  0.292438049316E+02  0.000000000000E+00
  0.490000000000E+02  0.490000000000E+02  0.000000000000E+00
  0.501353988647E+02  0.490000000000E+02 -0.658134996891E+00
  0.501353988647E+02  0.490000000000E+02  0.658134996891E+00
  0.506007728577E+02  0.494653701782E+02 -0.465371757746E+00
  0.506007728577E+02  0.494653701782E+02  0.465371757746E+00
  0.507935333252E+02  0.496581344604E+02 -0.771266485397E-15
  0.513065910339E+02  0.470762481689E+02 -0.108748877048E+01
  0.513065910339E+02  0.470762481689E+02  0.108748877048E+01
  0.521583786011E+02  0.376179962158E+02 -0.479618877172E+00
  0.521583786011E+02  0.376179962158E+02  0.479618877172E+00
  0.529248886108E+02  0.435296669006E+02 -0.980759620667E+00
  0.529248886108E+02  0.435296669006E+02  0.980759620667E+00
  0.532303466797E+02  0.490000000000E+02 -0.108748936653E+01
  0.532303466797E+02  0.490000000000E+02  0.108748936653E+01
  0.539993209839E+02  0.497689704895E+02 -0.768971264362E+00
  0.539993209839E+02  0.497689704895E+02  0.768971264362E+00
  0.543178405762E+02  0.500874900818E+02 -0.157378642191E-15
  0.552687225342E+02  0.376179962158E+02 -0.144200608134E+00
  0.552687225342E+02  0.376179962158E+02  0.144200608134E+00
  0.564714775085E+02  0.470762481689E+02 -0.980760753155E+00
  0.564714775085E+02  0.470762481689E+02  0.980760753155E+00
  0.566182289124E+02  0.376179962158E+02  0.000000000000E+00
  0.580700759888E+02  0.435296669006E+02 -0.479619771242E+00
  0.580700759888E+02  0.435296669006E+02  0.479619771242E+00
  0.583952369690E+02  0.490000000000E+02 -0.980761349201E+00
  0.583952369690E+02  0.490000000000E+02  0.980761349201E+00
  0.590887413025E+02  0.496935043335E+02 -0.693503141403E+00
  0.590887413025E+02  0.496935043335E+02  0.693503141403E+00
  0.593759994507E+02  0.499807624817E+02  0.000000000000E+00
  0.611804275513E+02  0.435296669006E+02 -0.144200876355E+00
  0.611804275513E+02  0.435296669006E+02  0.144200876355E+00
  0.616166725159E+02  0.470762481689E+02 -0.479620337486E+00
  0.616166725159E+02  0.470762481689E+02  0.479620337486E+00
  0.625299339294E+02  0.435296669006E+02  0.000000000000E+00
  0.635404319763E+02  0.490000000000E+02 -0.479620635509E+00
  0.635404319763E+02  0.490000000000E+02  0.479620635509E+00
  0.638795776367E+02  0.493391418457E+02 -0.339143037796E+00
  0.638795776367E+02  0.493391418457E+02  0.339143037796E+00
  0.640200576782E+02  0.494796218872E+02  0.296956834055E-15
  0.647270278931E+02  0.470762481689E+02 -0.144201040268E+00
  0.647270278931E+02  0.470762481689E+02  0.144201040268E+00
  0.660765380859E+02  0.470762481689E+02  0.000000000000E+00
  0.666507873535E+02  0.490000000000E+02 -0.144201144576E+00
  0.666507873535E+02  0.490000000000E+02  0.144201144576E+00
  0.667527542114E+02  0.491019668579E+02 -0.101965606213E+00
  0.667527542114E+02  0.491019668579E+02  0.101965606213E+00
  0.667949905396E+02  0.491441993713E+02 -0.260488604752E-16
  0.680002975464E+02  0.490000000000E+02  0.000000000000E+00
  0.190000000000E+02  0.000000000000E+00  0.000000000000E+00
  0.209237651825E+02  0.192375373840E+01  0.000000000000E+00
  0.244703655243E+02  0.547033166885E+01  0.000000000000E+00
  0.303820724487E+02  0.113820018768E+02  0.000000000000E+00
  0.387563171387E+02  0.197561950684E+02  0.000000000000E+00
  0.482439842224E+02  0.292438049316E+02  0.000000000000E+00
  0.566182289124E+02  0.376179962158E+02  0.000000000000E+00
  0.625299339294E+02  0.435296669006E+02  0.000000000000E+00
  0.660765380859E+02  0.470762481689E+02  0.000000000000E+00
POLYGONS                 256                1024
3                 135                  33                 136
3                  32                  30                  33
3                  30                  28                  33
3                  30                  22                  28
3                  22                  17                  28
3                  22                  13                  17
3                  13                   6                  17
3                  17                   6                   9
3                   6                   1                   9
3                   9                   1                   4
3                   1                   0                   4
3                   4                   0                   3
3                   0                   5                   3
3                   0                   2                   5
3                   2                  10                   5
3                   2                   7                  10
[...]
CELL_DATA                 256
SCALARS sigma float 1
LOOKUP_TABLE default
  0.000000000000E+00
  0.000000000000E+00
  0.000000000000E+00
  0.000000000000E+00
  0.000000000000E+00
  0.000000000000E+00
  0.000000000000E+00
  0.000000000000E+00
  0.000000000000E+00
  0.000000000000E+00
  0.000000000000E+00
  0.000000000000E+00
  0.000000000000E+00
  0.000000000000E+00
  0.000000000000E+00
  0.000000000000E+00
  0.000000000000E+00
  0.000000000000E+00
  0.000000000000E+00
  0.000000000000E+00
  0.000000000000E+00
  0.000000000000E+00
  0.000000000000E+00
  0.000000000000E+00
  0.000000000000E+00
  0.000000000000E+00
  0.000000000000E+00
  0.000000000000E+00
  0.000000000000E+00
  0.000000000000E+00
  0.000000000000E+00
  0.000000000000E+00
  0.000000000000E+00
  0.000000000000E+00
  0.000000000000E+00
  0.000000000000E+00
  0.000000000000E+00
  0.000000000000E+00
  0.000000000000E+00
  0.000000000000E+00
  0.000000000000E+00
  0.000000000000E+00
  0.000000000000E+00
  0.000000000000E+00
  0.000000000000E+00
  0.000000000000E+00
  0.000000000000E+00
  0.000000000000E+00
  0.000000000000E+00
  0.000000000000E+00
  0.000000000000E+00
  0.000000000000E+00
  0.000000000000E+00
  0.000000000000E+00
  0.000000000000E+00
  0.000000000000E+00
  0.000000000000E+00
  0.000000000000E+00
  0.000000000000E+00
  0.000000000000E+00
  0.000000000000E+00
  0.000000000000E+00
  0.000000000000E+00
  0.000000000000E+00
  0.000000000000E+00
  0.000000000000E+00
  0.000000000000E+00
  0.000000000000E+00
  0.000000000000E+00
  0.000000000000E+00
  0.000000000000E+00
  0.000000000000E+00
  0.000000000000E+00
  0.000000000000E+00
  0.000000000000E+00
  0.000000000000E+00
  0.000000000000E+00
  0.000000000000E+00
  0.000000000000E+00
  0.000000000000E+00
  0.000000000000E+00
  0.000000000000E+00
  0.000000000000E+00
  0.000000000000E+00
  0.000000000000E+00
  0.000000000000E+00
  0.000000000000E+00
  0.000000000000E+00
  0.000000000000E+00
  0.000000000000E+00
  0.000000000000E+00
  0.000000000000E+00
  0.000000000000E+00
  0.000000000000E+00
  0.000000000000E+00
  0.000000000000E+00
  0.000000000000E+00
  0.000000000000E+00
  0.000000000000E+00
  0.000000000000E+00
  0.000000000000E+00
  0.000000000000E+00
  0.000000000000E+00
  0.000000000000E+00
  0.000000000000E+00
  0.000000000000E+00
  0.000000000000E+00
  0.000000000000E+00
  0.000000000000E+00
  0.000000000000E+00
  0.000000000000E+00
  0.000000000000E+00
  0.000000000000E+00
  0.000000000000E+00
  0.000000000000E+00
  0.000000000000E+00
  0.000000000000E+00
  0.000000000000E+00
  0.000000000000E+00
  0.000000000000E+00
  0.000000000000E+00
  0.000000000000E+00
  0.000000000000E+00
  0.000000000000E+00
  0.000000000000E+00
  0.000000000000E+00
  0.000000000000E+00
  0.000000000000E+00
  0.000000000000E+00
  0.000000000000E+00
  0.000000000000E+00
  0.000000000000E+00
  0.000000000000E+00
  0.000000000000E+00
  0.000000000000E+00
  0.000000000000E+00
  0.000000000000E+00
  0.000000000000E+00
  0.000000000000E+00
  0.000000000000E+00
  0.000000000000E+00
  0.000000000000E+00
  0.000000000000E+00
  0.000000000000E+00
  0.000000000000E+00
  0.000000000000E+00
  0.000000000000E+00
  0.000000000000E+00
  0.000000000000E+00
  0.000000000000E+00
  0.000000000000E+00
  0.000000000000E+00
  0.000000000000E+00
  0.000000000000E+00
  0.000000000000E+00
  0.000000000000E+00
  0.000000000000E+00
  0.000000000000E+00
  0.000000000000E+00
  0.000000000000E+00
  0.000000000000E+00
  0.000000000000E+00
  0.000000000000E+00
  0.000000000000E+00
  0.000000000000E+00
  0.000000000000E+00
  0.000000000000E+00
  0.000000000000E+00
  0.000000000000E+00
  0.000000000000E+00
  0.000000000000E+00
  0.000000000000E+00
  0.000000000000E+00
  0.000000000000E+00
  0.000000000000E+00
  0.000000000000E+00
  0.000000000000E+00
  0.000000000000E+00
  0.000000000000E+00
  0.000000000000E+00
  0.000000000000E+00
  0.000000000000E+00
  0.000000000000E+00
  0.000000000000E+00
  0.000000000000E+00
  0.000000000000E+00
  0.000000000000E+00
  0.000000000000E+00
  0.000000000000E+00
  0.000000000000E+00
  0.000000000000E+00
  0.000000000000E+00
  0.000000000000E+00
  0.000000000000E+00
  0.000000000000E+00
  0.000000000000E+00
  0.000000000000E+00
  0.000000000000E+00
  0.000000000000E+00
  0.000000000000E+00
  0.000000000000E+00
  0.000000000000E+00
  0.000000000000E+00
  0.000000000000E+00
  0.000000000000E+00
  0.000000000000E+00
  0.000000000000E+00
  0.000000000000E+00
  0.000000000000E+00
  0.000000000000E+00
  0.000000000000E+00
  0.000000000000E+00
  0.000000000000E+00
  0.000000000000E+00
  0.000000000000E+00
  0.000000000000E+00
  0.000000000000E+00
  0.000000000000E+00
  0.000000000000E+00
  0.000000000000E+00
  0.000000000000E+00
  0.000000000000E+00
  0.000000000000E+00
  0.000000000000E+00
  0.000000000000E+00
  0.000000000000E+00
  0.000000000000E+00
  0.000000000000E+00
  0.000000000000E+00
  0.000000000000E+00
  0.000000000000E+00
  0.000000000000E+00
  0.000000000000E+00
  0.000000000000E+00
  0.000000000000E+00
  0.000000000000E+00
  0.000000000000E+00
  0.000000000000E+00
  0.000000000000E+00
  0.000000000000E+00
  0.000000000000E+00
  0.000000000000E+00
  0.000000000000E+00
  0.000000000000E+00
  0.000000000000E+00
  0.000000000000E+00
  0.000000000000E+00
  0.000000000000E+00
  0.000000000000E+00
  0.000000000000E+00
  0.000000000000E+00
  0.000000000000E+00
  0.000000000000E+00
  0.000000000000E+00
  0.000000000000E+00
  0.000000000000E+00
SCALARS C_p_inc float 1
LOOKUP_TABLE default
 -0.955867654949E+00
 -0.178970895781E+01
 -0.401148582295E+00
 -0.312411652061E+00
 -0.175211432828E+00
 -0.142027240815E+00
 -0.661128610441E-02
 -0.549449495542E-01
  0.241012602942E+00
  0.158818203464E+00
  0.598698492114E+00
  0.602045833996E+00
 -0.521785031493E+00
  0.115457183469E-01
 -0.581915781160E+00
 -0.422581651904E+00
 -0.332110611001E+00
 -0.374888669067E+00
 -0.139820667803E+00
 -0.384756747030E-01
  0.211487258050E+00
  0.360851638597E+00
  0.654701777389E+00
  0.539647576206E+00
 -0.748085454662E+00
 -0.922905758626E+00
 -0.332837495548E+00
 -0.419879194363E+00
 -0.202132912416E+00
 -0.178874447215E+00
 -0.522002712423E-01
 -0.967603562479E-01
  0.152906561257E+00
  0.126859170344E+00
  0.520978557767E+00
  0.514921427091E+00
 -0.726965722362E+00
 -0.496963991165E+00
 -0.663172139410E+00
 -0.584518155576E+00
 -0.296671483658E+00
 -0.352565083415E+00
 -0.348003806176E-01
  0.445241107640E-01
  0.337280528268E+00
  0.318091513950E+00
  0.535206156638E+00
  0.507841652253E+00
 -0.689353303544E+00
 -0.743013176098E+00
 -0.299569832750E+00
 -0.334709513365E+00
 -0.192498075301E+00
 -0.206945573160E+00
 -0.955850922754E-01
 -0.110345350152E+00
  0.124454194630E+00
  0.111593664480E+00
  0.508604857639E+00
  0.507419739199E+00
 -0.782818773484E+00
 -0.724136751742E+00
 -0.669298336847E+00
 -0.672605873328E+00
 -0.265548470530E+00
 -0.310226192757E+00
  0.449374444941E-01
  0.585645762062E-01
  0.313175533076E+00
  0.302882295184E+00
  0.507427882760E+00
  0.500267585015E+00
 -0.666533398171E+00
 -0.687727369717E+00
 -0.287752419683E+00
 -0.299718163695E+00
 -0.185969272214E+00
 -0.193615838780E+00
 -0.111097600912E+00
 -0.110205073728E+00
  0.111818568261E+00
  0.108523926599E+00
  0.511512892072E+00
  0.511888610526E+00
 -0.769149314011E+00
 -0.784228307001E+00
 -0.658373984539E+00
 -0.675521683846E+00
 -0.257970479084E+00
 -0.269177391877E+00
  0.583992532834E-01
  0.594108565677E-01
  0.302177186775E+00
  0.299262612108E+00
  0.500457347317E+00
  0.497911068275E+00
 -0.640449020814E+00
 -0.664852498659E+00
 -0.278585484432E+00
 -0.287284930523E+00
 -0.183263210213E+00
 -0.185868861901E+00
 -0.110433479862E+00
 -0.111359484723E+00
  0.108662200836E+00
  0.105770173601E+00
  0.513160323105E+00
  0.513483327676E+00
 -0.754269440652E+00
 -0.769817322754E+00
 -0.650546524584E+00
 -0.659817552133E+00
 -0.254170576654E+00
 -0.258409639804E+00
  0.593682730571E-01
  0.603243701380E-01
  0.299196413423E+00
  0.297603160830E+00
  0.498111959473E+00
  0.495291883722E+00
 -0.559000591721E+00
 -0.636981923745E+00
 -0.252420281506E+00
 -0.276569428940E+00
 -0.181982214382E+00
 -0.182058411737E+00
 -0.110564341316E+00
 -0.120081792447E+00
  0.105307009138E+00
  0.960929367419E-01
  0.510546607974E+00
  0.511163672223E+00
 -0.735282242861E+00
 -0.754081079933E+00
 -0.640090719586E+00
 -0.650385704908E+00
 -0.248216571836E+00
 -0.254205613362E+00
  0.602866183372E-01
  0.633967479328E-01
  0.297719831816E+00
  0.296932783028E+00
  0.496035273552E+00
  0.489350721183E+00
 -0.207848360048E+00
 -0.546128666993E+00
 -0.195240980787E+00
 -0.245407272514E+00
 -0.188909786662E+00
 -0.178061934576E+00
 -0.117054621879E+00
 -0.152576662171E+00
  0.939782522894E-01
  0.652645364849E-01
  0.500335307903E+00
  0.502381232440E+00
 -0.701828998302E+00
 -0.734252674840E+00
 -0.623628184671E+00
 -0.638555074520E+00
 -0.240256718821E+00
 -0.247770479536E+00
  0.632132076723E-01
  0.605672939862E-01
  0.295201890212E+00
  0.285402705893E+00
  0.484196731458E+00
  0.505047419111E+00
 -0.244153024099E+02
 -0.101950185746E+01
  0.852133557217E+00
 -0.231623555941E+00
 -0.493656433217E+00
 -0.185739858244E+00
 -0.149211011265E+00
 -0.205534347118E+00
  0.563697686265E-01
 -0.844198032864E-02
  0.470654231955E+00
  0.478105386233E+00
 -0.646524915711E+00
 -0.699722124674E+00
 -0.591132076122E+00
 -0.621115488944E+00
 -0.228750577256E+00
 -0.239834042848E+00
  0.604119608967E-01
 -0.222738170941E+00
  0.183856721166E+00
  0.607751111954E+00
  0.483458471057E+00
 -0.194969855707E+02
 -0.398388218427E+08
 -0.207163170099E+05
 -0.116778376282E+05
  0.962626766738E+00
 -0.130907358151E+00
 -0.492098812341E+00
 -0.236905346366E+00
 -0.283623386568E+00
 -0.434246632212E-01
 -0.693892199352E-01
  0.337699063182E+00
  0.381011180721E+00
 -0.535541925530E+00
 -0.642487657877E+00
 -0.430337154358E+00
 -0.614155665233E+00
 -0.273849565706E+00
 -0.229155629527E+00
 -0.225190508920E+00
 -0.251339142019E+00
  0.851540538557E+00
 -0.116488003533E+05
 -0.207727663630E+05
 -0.398410442007E+08
 -0.829748078596E+08
 -0.470376176650E+06
 -0.176528075089E+05
 -0.270684432921E+02
 -0.239353283131E+00
 -0.491847481951E+00
 -0.402052745444E+00
 -0.220876925882E+00
 -0.247578176544E+00
 -0.565719949030E-01
 -0.536825015466E+00
 -0.387672707444E+00
 -0.511062975240E+00
 -0.428766608010E+00
 -0.292031597070E+00
  0.566184608064E+00
 -0.344490667420E+02
 -0.177461818479E+05
 -0.469555793257E+06
 -0.829685302944E+08
 -0.567096851135E+08
 -0.562704329514E+06
 -0.210957765191E+05
 -0.405520740179E+02
  0.138279929856E-01
 -0.662070997477E+00
 -0.569262032257E+00
 -0.395431528366E+00
 -0.431245592913E+00
 -0.296798526721E+00
 -0.458673991037E+00
 -0.483928576602E+00
 -0.471983717263E+00
 -0.605443009733E+00
 -0.463278329815E+00
  0.996590255359E+00
 -0.548737236533E+02
 -0.212022330199E+05
 -0.561218641055E+06
 -0.567034815333E+08
SCALARS inclination float 1
LOOKUP_TABLE default
  0.100000000000E+01
  0.100000000000E+01
  0.100000000000E+01
  0.100000000000E+01
  0.100000000000E+01
  0.100000000000E+01
  0.100000000000E+01
  0.100000000000E+01
  0.100000000000E+01
  0.100000000000E+01
  0.100000000000E+01
  0.100000000000E+01
  0.100000000000E+01
  0.100000000000E+01
  0.100000000000E+01
  0.100000000000E+01
  0.100000000000E+01
  0.100000000000E+01
  0.100000000000E+01
  0.100000000000E+01
  0.100000000000E+01
  0.100000000000E+01
  0.100000000000E+01
  0.100000000000E+01
  0.100000000000E+01
  0.100000000000E+01
  0.100000000000E+01
  0.100000000000E+01
  0.100000000000E+01
  0.100000000000E+01
  0.100000000000E+01
  0.100000000000E+01
  0.100000000000E+01
  0.100000000000E+01
  0.100000000000E+01
  0.100000000000E+01
  0.100000000000E+01
  0.100000000000E+01
  0.100000000000E+01
  0.100000000000E+01
  0.100000000000E+01
  0.100000000000E+01
  0.100000000000E+01
  0.100000000000E+01
  0.100000000000E+01
  0.100000000000E+01
  0.100000000000E+01
  0.100000000000E+01
  0.100000000000E+01
  0.100000000000E+01
  0.100000000000E+01
  0.100000000000E+01
  0.100000000000E+01
  0.100000000000E+01
  0.100000000000E+01
  0.100000000000E+01
  0.100000000000E+01
  0.100000000000E+01
  0.100000000000E+01
  0.100000000000E+01
  0.100000000000E+01
  0.100000000000E+01
  0.100000000000E+01
  0.100000000000E+01
  0.100000000000E+01
  0.100000000000E+01
  0.100000000000E+01
  0.100000000000E+01
  0.100000000000E+01
  0.100000000000E+01
  0.100000000000E+01
  0.100000000000E+01
  0.100000000000E+01
  0.100000000000E+01
  0.100000000000E+01
  0.100000000000E+01
  0.100000000000E+01
  0.100000000000E+01
  0.100000000000E+01
  0.100000000000E+01
  0.100000000000E+01
  0.100000000000E+01
  0.100000000000E+01
  0.100000000000E+01
  0.100000000000E+01
  0.100000000000E+01
  0.100000000000E+01
  0.100000000000E+01
  0.100000000000E+01
  0.100000000000E+01
  0.100000000000E+01
  0.100000000000E+01
  0.100000000000E+01
  0.100000000000E+01
  0.100000000000E+01
  0.100000000000E+01
  0.100000000000E+01
  0.100000000000E+01
  0.100000000000E+01
  0.100000000000E+01
  0.100000000000E+01
  0.100000000000E+01
  0.100000000000E+01
  0.100000000000E+01
  0.100000000000E+01
  0.100000000000E+01
  0.100000000000E+01
  0.100000000000E+01
  0.100000000000E+01
  0.100000000000E+01
  0.100000000000E+01
  0.100000000000E+01
  0.100000000000E+01
  0.100000000000E+01
  0.100000000000E+01
  0.100000000000E+01
  0.100000000000E+01
  0.100000000000E+01
  0.100000000000E+01
  0.100000000000E+01
  0.100000000000E+01
  0.100000000000E+01
  0.100000000000E+01
  0.100000000000E+01
  0.100000000000E+01
  0.100000000000E+01
  0.100000000000E+01
  0.100000000000E+01
  0.100000000000E+01
  0.100000000000E+01
  0.100000000000E+01
  0.100000000000E+01
  0.100000000000E+01
  0.100000000000E+01
  0.100000000000E+01
  0.100000000000E+01
  0.100000000000E+01
  0.100000000000E+01
  0.100000000000E+01
  0.100000000000E+01
  0.100000000000E+01
  0.100000000000E+01
  0.100000000000E+01
  0.100000000000E+01
  0.100000000000E+01
  0.100000000000E+01
  0.100000000000E+01
  0.100000000000E+01
  0.100000000000E+01
  0.100000000000E+01
  0.100000000000E+01
  0.100000000000E+01
  0.100000000000E+01
  0.100000000000E+01
  0.100000000000E+01
  0.100000000000E+01
  0.100000000000E+01
  0.100000000000E+01
  0.100000000000E+01
  0.100000000000E+01
  0.100000000000E+01
  0.100000000000E+01
  0.100000000000E+01
  0.100000000000E+01
  0.100000000000E+01
  0.100000000000E+01
  0.100000000000E+01
  0.100000000000E+01
  0.100000000000E+01
  0.100000000000E+01
  0.100000000000E+01
  0.100000000000E+01
  0.100000000000E+01
  0.100000000000E+01
  0.100000000000E+01
  0.100000000000E+01
  0.100000000000E+01
  0.100000000000E+01
  0.100000000000E+01
  0.100000000000E+01
  0.100000000000E+01
  0.100000000000E+01
  0.100000000000E+01
  0.100000000000E+01
  0.100000000000E+01
  0.100000000000E+01
  0.100000000000E+01
  0.100000000000E+01
  0.100000000000E+01
  0.100000000000E+01
  0.100000000000E+01
  0.100000000000E+01
  0.100000000000E+01
  0.100000000000E+01
  0.100000000000E+01
  0.100000000000E+01
  0.100000000000E+01
  0.100000000000E+01
  0.100000000000E+01
  0.100000000000E+01
  0.100000000000E+01
  0.100000000000E+01
  0.100000000000E+01
  0.100000000000E+01
  0.100000000000E+01
  0.100000000000E+01
  0.100000000000E+01
  0.100000000000E+01
  0.100000000000E+01
  0.100000000000E+01
  0.100000000000E+01
  0.100000000000E+01
  0.100000000000E+01
  0.100000000000E+01
  0.100000000000E+01
  0.100000000000E+01
  0.100000000000E+01
  0.100000000000E+01
  0.100000000000E+01
  0.100000000000E+01
  0.100000000000E+01
  0.100000000000E+01
  0.100000000000E+01
  0.100000000000E+01
  0.100000000000E+01
  0.100000000000E+01
  0.100000000000E+01
  0.100000000000E+01
  0.100000000000E+01
  0.100000000000E+01
  0.100000000000E+01
  0.100000000000E+01
  0.100000000000E+01
  0.100000000000E+01
  0.100000000000E+01
  0.100000000000E+01
  0.100000000000E+01
  0.100000000000E+01
  0.100000000000E+01
  0.100000000000E+01
  0.100000000000E+01
  0.100000000000E+01
  0.100000000000E+01
  0.100000000000E+01
  0.100000000000E+01
  0.100000000000E+01
  0.100000000000E+01
  0.100000000000E+01
  0.100000000000E+01
  0.100000000000E+01
  0.100000000000E+01
  0.100000000000E+01
  0.100000000000E+01
  0.100000000000E+01
  0.100000000000E+01
  0.100000000000E+01
VECTORS v float
  0.217429030907E+03 -0.616504588057E+02  0.298208848331E+02
  0.259634180222E+03 -0.737613838793E+02  0.356248229309E+02
  0.191676575858E+03 -0.580344329275E+01  0.212961732768E+02
  0.185286447823E+03 -0.978997966566E+01  0.210369611629E+02
  0.175867556423E+03 -0.371042173306E+00  0.171655901207E+02
  0.173263163585E+03 -0.468866815597E+01  0.173324636641E+02
  0.163424084905E+03  0.515043543241E+01  0.327058837498E+01
  0.167156481119E+03 -0.862260941922E+01  0.363232587627E+01
  0.139754083339E+03  0.187798159970E+02 -0.167824567224E+02
  0.147967429956E+03 -0.359404902799E+01 -0.210257374652E+02
  0.806644515882E+02  0.637089567920E+02 -0.982826726710E+01
  0.818527541754E+02  0.610579989767E+02 -0.120536978312E+02
  0.166520106868E+03 -0.236093537160E+02  0.110208706224E+03
  0.144440275112E+03  0.256480523972E+02  0.688580143704E+02
  0.200246669961E+03 -0.301583551989E+02  0.319634974760E+02
  0.192232002442E+03 -0.832570967567E+01  0.278228629906E+02
  0.188042464748E+03 -0.413615693799E+01 -0.397120650869E+01
  0.190597942940E+03 -0.135662159882E+02 -0.421888365295E+01
  0.173196642097E+03  0.383514041669E+01 -0.164957627017E+02
  0.164937061434E+03 -0.985779645949E+01 -0.170249762330E+02
  0.143578762881E+03  0.115006075423E+02 -0.142432410805E+02
  0.129564379511E+03  0.275762010105E+01 -0.136747909415E+02
  0.518389524810E+02  0.804834316651E+02  0.306083479244E+01
  0.847933844584E+02  0.709859766709E+02 -0.147533587630E+01
  0.208173234449E+03 -0.485419314214E+02  0.274311464934E+02
  0.217494992398E+03 -0.542447016481E+02  0.290365928778E+02
  0.185511629963E+03 -0.222611546127E+02  0.224061501128E+02
  0.191479719811E+03 -0.229276614731E+02  0.231216252803E+02
  0.177561484603E+03 -0.900936151826E+01  0.181719547803E+02
  0.175778700506E+03 -0.982620020332E+01  0.180778711701E+02
  0.167159646279E+03 -0.120712398427E+01  0.347915425425E+01
  0.170414866763E+03 -0.920986789870E+01  0.371179532086E+01
  0.148279353475E+03  0.129256668357E+02 -0.187772746653E+02
  0.150801836085E+03  0.807817577658E+01 -0.197996972882E+02
  0.850618663453E+02  0.738181747109E+02 -0.651741320618E+01
  0.824510361331E+02  0.779949190539E+02 -0.258299167079E+01
  0.179581712631E+03 -0.191357574435E+02  0.115186733408E+03
  0.171069819075E+03 -0.551863459355E+01  0.102359650034E+03
  0.203926982556E+03 -0.383757974631E+02  0.336140525178E+02
  0.200225808515E+03 -0.312631977473E+02  0.321138746717E+02
  0.184880177296E+03 -0.159175324881E+02 -0.414931942674E+01
  0.188034126513E+03 -0.236713075773E+02 -0.437471889427E+01
  0.165023493152E+03 -0.660599302533E+00 -0.161375843673E+02
  0.158503300336E+03 -0.364803017220E+01 -0.157934973828E+02
  0.129820474271E+03  0.250349301879E+02 -0.113000165954E+02
  0.131790602623E+03  0.248149091379E+02 -0.115362000081E+02
  0.848026100139E+02  0.718031729326E+02 -0.138899817288E+01
  0.926121888449E+02  0.670198444298E+02 -0.273460623270E+01
  0.205277865102E+03 -0.450545225539E+02  0.267491311708E+02
  0.208162335678E+03 -0.472614305544E+02  0.272931541398E+02
  0.183146916338E+03 -0.222458641649E+02  0.221494796769E+02
  0.185499233822E+03 -0.233394809429E+02  0.225210999159E+02
  0.176448777631E+03 -0.142889837580E+02  0.185778141396E+02
  0.177510667078E+03 -0.144168550150E+02  0.186936967569E+02
  0.170415672637E+03 -0.732184409521E+01  0.367279665384E+01
  0.171465744400E+03 -0.929045564248E+01  0.373517595507E+01
  0.150862904586E+03  0.113124078294E+02 -0.193594925480E+02
  0.152063507089E+03  0.945242243014E+01 -0.197840706246E+02
  0.826660597225E+02  0.788499016823E+02 -0.221203798183E+01
  0.819476972080E+02  0.798148571907E+02 -0.123630221336E+01