# vtk DataFile Version 3.0
TriPan results file. Generated by TriPan, USU AeroLab (c) 2021.
ASCII
DATASET POLYDATA
POINTS                 309 float
  0.145119197349E-04  0.000000000000E+00  0.702222613473E-21
  0.420138497918E+00  0.000000000000E+00 -0.412059144854E+00
  0.420138497918E+00  0.000000000000E+00  0.412059144854E+00
  0.928185622804E+00  0.928162653334E+00  0.370492718948E-21
  0.134831331777E+01  0.928166164882E+00 -0.412060979457E+00
  0.134831331777E+01  0.928166164882E+00  0.412060979457E+00
  0.181353533969E+01  0.000000000000E+00 -0.806793832730E+00
  0.181353533969E+01  0.000000000000E+00  0.806793832730E+00
  0.226198092881E+01  0.226195057449E+01  0.000000000000E+00
  0.268210702775E+01  0.226195568206E+01 -0.412057187748E+00
  0.268210702775E+01  0.226195568206E+01  0.412057187748E+00
  0.274171014569E+01  0.928169171587E+00 -0.806795197448E+00
  0.274171014569E+01  0.928169171587E+00  0.806795197448E+00
  0.407550250541E+01  0.226195991982E+01 -0.806790662114E+00
  0.407550250541E+01  0.226195991982E+01  0.806790662114E+00
  0.413895454185E+01  0.413891468269E+01  0.321459894060E-20
  0.455907863241E+01  0.413892179865E+01 -0.412052224685E+00
  0.455907863241E+01  0.413892179865E+01  0.412052224685E+00
  0.479629669423E+01  0.000000000000E+00 -0.111703721841E+01
  0.479629669423E+01  0.000000000000E+00  0.111703721841E+01
  0.572447154981E+01  0.928172726805E+00 -0.111703822838E+01
  0.572447154981E+01  0.928172726805E+00  0.111703822838E+01
  0.595247250490E+01  0.413892764158E+01 -0.806784693282E+00
  0.595247250490E+01  0.413892764158E+01  0.806784693282E+00
  0.670397027304E+01  0.670391909310E+01  0.247656500064E-20
  0.705826345133E+01  0.226196417166E+01 -0.111703365070E+01
  0.705826345133E+01  0.226196417166E+01  0.111703365070E+01
  0.712409204420E+01  0.670392852846E+01 -0.412046181935E+00
  0.712409204420E+01  0.670392852846E+01  0.412046181935E+00
  0.851748444622E+01  0.670393631870E+01 -0.806777388893E+00
  0.851748444622E+01  0.670393631870E+01  0.806777388893E+00
  0.893523301137E+01  0.413893280970E+01 -0.111702761222E+01
  0.893523301137E+01  0.413893280970E+01  0.111702761222E+01
  0.939523493126E+01  0.000000000000E+00 -0.980728882398E+00
  0.939523493126E+01  0.000000000000E+00  0.980728882398E+00
  0.100722457449E+02  0.100721825083E+02  0.305997667590E-20
  0.103234084887E+02  0.928176637223E+00 -0.980721530569E+00
  0.103234084887E+02  0.928176637223E+00  0.980721530569E+00
  0.104923656357E+02  0.100721943008E+02 -0.412039541942E+00
  0.104923656357E+02  0.100721943008E+02  0.412039541942E+00
  0.115002433555E+02  0.670394260715E+01 -0.111702019620E+01
  0.115002433555E+02  0.670394260715E+01  0.111702019620E+01
  0.116572000425E+02  0.226196842976E+01 -0.980718679272E+00
  0.116572000425E+02  0.226196842976E+01  0.980718679272E+00
  0.118857549503E+02  0.100722042248E+02 -0.806769331235E+00
  0.118857549503E+02  0.100722042248E+02  0.806769331235E+00
  0.135341681758E+02  0.413893754088E+01 -0.980714688122E+00
  0.135341681758E+02  0.413893754088E+01  0.980714688122E+00
  0.139772048849E+02  0.000000000000E+00 -0.540117955762E+00
  0.139772048849E+02  0.000000000000E+00  0.540117955762E+00
  0.142710712716E+02  0.142709972098E+02  0.358380602499E-20
  0.146911892142E+02  0.142710109506E+02 -0.412033276042E+00
  0.146911892142E+02  0.142710109506E+02  0.412033276042E+00
  0.148685126249E+02  0.100722117480E+02 -0.111701198563E+01
  0.148685126249E+02  0.100722117480E+02  0.111701198563E+01
  0.149053790802E+02  0.928177214295E+00 -0.540120306661E+00
  0.149053790802E+02  0.928177214295E+00  0.540120306661E+00
  0.160845774727E+02  0.142710228843E+02 -0.806761707262E+00
  0.160845774727E+02  0.142710228843E+02  0.806761707262E+00
  0.160991788626E+02  0.670394794941E+01 -0.980709307171E+00
  0.160991788626E+02  0.670394794941E+01  0.980709307171E+00
  0.162391706293E+02  0.226196901156E+01 -0.540118505948E+00
  0.162391706293E+02  0.226196901156E+01  0.540118505948E+00
  0.169605804506E+02  0.000000000000E+00 -0.218323365097E+00
  0.169605804506E+02  0.000000000000E+00  0.218323365097E+00
  0.178887555873E+02  0.928176256456E+00 -0.218324870062E+00
  0.178887555873E+02  0.928176256456E+00  0.218324870062E+00
  0.181161386856E+02  0.413893819960E+01 -0.540115296205E+00
  0.181161386856E+02  0.413893819960E+01  0.540115296205E+00
  0.184032178921E+02  0.000000000000E+00 -0.636706128239E-01
  0.184032178921E+02  0.000000000000E+00  0.636706128239E-01
  0.190002907528E+02 -0.840944481527E-07 -0.788455474777E-06
  0.190673339798E+02  0.142710315750E+02 -0.111700419411E+01
  0.190673339798E+02  0.142710315750E+02  0.111700419411E+01
  0.191785074010E+02  0.191784261928E+02  0.261974574614E-20
  0.192225469940E+02  0.226196819618E+01 -0.218321837191E+00
  0.192225469940E+02  0.226196819618E+01  0.218321837191E+00
  0.193313927253E+02  0.928175608321E+00 -0.636692985335E-01
  0.193313927253E+02  0.928175608321E+00  0.636692985335E-01
  0.194674474091E+02  0.100722178131E+02 -0.980702613060E+00
  0.194674474091E+02  0.100722178131E+02  0.980702613060E+00
  0.195986242999E+02  0.191784409772E+02 -0.412028700899E+00
  0.195986242999E+02  0.191784409772E+02  0.412028700899E+00
  0.199284648759E+02  0.928183688477E+00 -0.100715878959E-05
  0.206651820729E+02  0.226196769971E+01 -0.636648302229E-01
  0.206651820729E+02  0.226196769971E+01  0.636648302229E-01
  0.206811482308E+02  0.670394879607E+01 -0.540110142948E+00
  0.206811482308E+02  0.670394879607E+01  0.540110142948E+00
  0.209920110930E+02  0.191784543764E+02 -0.806756130456E+00
  0.209920110930E+02  0.191784543764E+02  0.806756130456E+00
  0.210995148431E+02  0.413893759147E+01 -0.218316865234E+00
  0.210995148431E+02  0.413893759147E+01  0.218316865234E+00
  0.212622529717E+02  0.226197893907E+01 -0.139070631409E-05
  0.225421517127E+02  0.413893721166E+01 -0.636587391445E-01
  0.225421517127E+02  0.413893721166E+01  0.636587391445E-01
  0.231392185671E+02  0.413895249540E+01 -0.188590327224E-05
  0.236645241797E+02  0.670394839650E+01 -0.218310037539E+00
  0.236645241797E+02  0.670394839650E+01  0.218310037539E+00
  0.236662670754E+02  0.142710383750E+02 -0.980695478375E+00
  0.236662670754E+02  0.142710383750E+02  0.980695478375E+00
  0.239747667464E+02  0.191784639207E+02 -0.111699848317E+01
  0.239747667464E+02  0.191784639207E+02  0.111699848317E+01
  0.240494184145E+02  0.100722189299E+02 -0.540103376168E+00
  0.240494184145E+02  0.100722189299E+02  0.540103376168E+00
  0.245000413633E+02  0.244999586367E+02  0.000000000000E+00
  0.249201584372E+02  0.244999732461E+02 -0.412027011240E+00
  0.249201584372E+02  0.244999732461E+02  0.412027011240E+00
  0.251071609793E+02  0.670394808665E+01 -0.636512186147E-01
  0.251071609793E+02  0.670394808665E+01  0.636512186147E-01
  0.257042230406E+02  0.670396816347E+01 -0.247617573531E-05
  0.263135446900E+02  0.244999871856E+02 -0.806754065860E+00
  0.263135446900E+02  0.244999871856E+02  0.806754065860E+00
  0.270327922951E+02  0.100722186912E+02 -0.218302122370E+00
  0.270327922951E+02  0.100722186912E+02  0.218302122370E+00
  0.282482359082E+02  0.142710397571E+02 -0.540096384726E+00
  0.282482359082E+02  0.142710397571E+02  0.540096384726E+00
  0.284754290580E+02  0.100722184182E+02 -0.636429141243E-01
  0.284754290580E+02  0.100722184182E+02  0.636429141243E-01
  0.285736992607E+02  0.191784713021E+02 -0.980689568383E+00
  0.285736992607E+02  0.191784713021E+02  0.980689568383E+00
  0.290724860452E+02  0.100722435691E+02 -0.310492037916E-05
  0.292962981203E+02  0.244999970457E+02 -0.111699636567E+01
  0.292962981203E+02  0.244999970457E+02  0.111699636567E+01
  0.298215722923E+02  0.298214941139E+02 -0.252200432150E-20
  0.302416907090E+02  0.298215073806E+02 -0.412028695858E+00
  0.302416907090E+02  0.298215073806E+02  0.412028695858E+00
  0.312316115874E+02  0.142710396272E+02 -0.218294479658E+00
  0.312316115874E+02  0.142710396272E+02  0.218294479658E+00
  0.316350755952E+02  0.298215207793E+02 -0.806756113011E+00
  0.316350755952E+02  0.298215207793E+02  0.806756113011E+00
  0.326742502400E+02  0.142710393718E+02 -0.636350629714E-01
  0.326742502400E+02  0.142710393718E+02  0.636350629714E-01
  0.331556679204E+02  0.191784728572E+02 -0.540091052704E+00
  0.331556679204E+02  0.191784728572E+02  0.540091052704E+00
  0.332713008060E+02  0.142710690365E+02 -0.366946003233E-05
  0.338952322807E+02  0.245000046883E+02 -0.980686650712E+00
  0.338952322807E+02  0.245000046883E+02  0.980686650712E+00
  0.346178312461E+02  0.298215303261E+02 -0.111699846182E+01
  0.346178312461E+02  0.298215303261E+02  0.111699846182E+01
  0.347290001994E+02  0.347289313192E+02 -0.111102197025E-20
  0.351491207386E+02  0.347289424633E+02 -0.412033265542E+00
  0.351491207386E+02  0.347289424633E+02  0.412033265542E+00
  0.361390435369E+02  0.191784727900E+02 -0.218288838176E+00
  0.361390435369E+02  0.191784727900E+02  0.218288838176E+00
  0.365425070906E+02  0.347289543962E+02 -0.806761672327E+00
  0.365425070906E+02  0.347289543962E+02  0.806761672327E+00
  0.375816821825E+02  0.191784725416E+02 -0.636293256172E-01
  0.375816821825E+02  0.191784725416E+02  0.636293256172E-01
  0.381787298283E+02  0.191785051266E+02 -0.404213918334E-05
  0.384772009150E+02  0.245000062688E+02 -0.540089009297E+00
  0.384772009150E+02  0.245000062688E+02  0.540089009297E+00
  0.389278125514E+02  0.389277553808E+02 -0.922149802381E-21
  0.392167655509E+02  0.298215378243E+02 -0.980687720153E+00
  0.392167655509E+02  0.298215378243E+02  0.980687720153E+00
  0.393479354844E+02  0.389277641311E+02 -0.412039525323E+00
  0.393479354844E+02  0.389277641311E+02  0.412039525323E+00
  0.395252635926E+02  0.347289630920E+02 -0.111700415312E+01
  0.395252635926E+02  0.347289630920E+02  0.111700415312E+01
  0.407413276606E+02  0.389277740545E+02 -0.806769279584E+00
  0.407413276606E+02  0.389277740545E+02  0.806769279584E+00
  0.414605765133E+02  0.245000062199E+02 -0.218286729666E+00
[...]
POINT_DATA                 309
SCALARS phi float 1
LOOKUP_TABLE default
 -0.222044604925E-15
  0.000000000000E+00
  0.555111512313E-15
 -0.111022302463E-14
  0.555111512313E-15
  0.666133814775E-15
 -0.888178419700E-15
  0.111022302463E-15
 -0.122124532709E-14
 -0.333066907388E-15
 -0.777156117238E-15
  0.000000000000E+00
  0.777156117238E-15
  0.666133814775E-15
  0.222044604925E-15
 -0.666133814775E-15
  0.222044604925E-15
 -0.444089209850E-15
  0.222044604925E-15
  0.388578058619E-15
 -0.444089209850E-15
  0.000000000000E+00
  0.333066907388E-15
  0.000000000000E+00
  0.888178419700E-15
  0.000000000000E+00
  0.555111512313E-16
 -0.333066907388E-15
  0.222044604925E-15
  0.000000000000E+00
 -0.111022302463E-15
 -0.166533453694E-14
 -0.527355936697E-15
  0.555111512313E-16
 -0.298372437868E-15
  0.666133814775E-15
 -0.138777878078E-14
 -0.582867087928E-15
 -0.555111512313E-15
 -0.333066907388E-15
 -0.721644966006E-15
 -0.555111512313E-16
 -0.638378239159E-15
 -0.105471187339E-14
 -0.888178419700E-15
  0.555111512313E-16
 -0.111022302463E-15
 -0.832667268469E-15
 -0.582867087928E-15
  0.000000000000E+00
  0.555111512313E-15
 -0.222044604925E-15
  0.999200722163E-15
 -0.222044604925E-15
  0.832667268469E-16
 -0.194289029309E-15
  0.721644966006E-15
 -0.111022302463E-15
  0.000000000000E+00
 -0.388578058619E-15
 -0.122124532709E-14
  0.555111512313E-16
 -0.222044604925E-15
  0.222044604925E-15
 -0.555111512313E-15
 -0.166533453694E-15
 -0.999200722163E-15
 -0.499600361081E-15
  0.111022302463E-15
  0.721644966006E-15
  0.111022302463E-14
 -0.333066907388E-15
  0.444089209850E-15
 -0.152655665886E-15
 -0.999200722163E-15
  0.111022302463E-15
 -0.388578058619E-15
 -0.610622663544E-15
 -0.111022302463E-15
 -0.267147415300E-15
  0.333066907388E-15
 -0.111022302463E-15
 -0.122124532709E-14
  0.000000000000E+00
  0.111022302463E-15
  0.388578058619E-15
  0.222044604925E-15
 -0.222044604925E-15
  0.333066907388E-15
 -0.555111512313E-16
  0.105471187339E-14
  0.166533453694E-15
  0.277555756156E-15
  0.555111512313E-16
  0.555111512313E-16
 -0.388578058619E-15
  0.555111512313E-15
 -0.111022302463E-15
  0.463171168086E-15
  0.122124532709E-14
 -0.111022302463E-15
  0.388578058619E-15
 -0.555111512313E-16
  0.149880108324E-14
 -0.111022302463E-15
 -0.555111512313E-15
 -0.777156117238E-15
  0.943689570931E-15
  0.000000000000E+00
 -0.499600361081E-15
 -0.555111512313E-15
  0.444089209850E-15
 -0.222044604925E-15
  0.166533453694E-15
  0.000000000000E+00
  0.222044604925E-15
 -0.222044604925E-15
 -0.444089209850E-15
 -0.882974249272E-15
 -0.499600361081E-15
 -0.222044604925E-15
 -0.111022302463E-15
 -0.228983498829E-15
  0.000000000000E+00
  0.999200722163E-15
 -0.999200722163E-15
  0.111022302463E-15
  0.444089209850E-15
 -0.122124532709E-14
  0.555111512313E-16
  0.555111512313E-15
  0.277555756156E-15
  0.555111512313E-16
  0.555111512313E-16
  0.666133814775E-15
 -0.367761376907E-15
 -0.277555756156E-15
  0.116573417586E-14
 -0.555111512313E-16
 -0.555111512313E-15
 -0.177635683940E-14
 -0.111022302463E-15
  0.000000000000E+00
  0.721644966006E-15
 -0.888178419700E-15
 -0.555111512313E-16
 -0.555111512313E-15
 -0.555111512313E-16
 -0.333066907388E-15
 -0.777156117238E-15
 -0.222044604925E-15
 -0.111022302463E-15
  0.416333634234E-16
  0.000000000000E+00
  0.666133814775E-15
  0.444089209850E-15
  0.610622663544E-15
  0.226381413615E-15
 -0.777156117238E-15
 -0.111022302463E-15
 -0.499600361081E-15
  0.222044604925E-15
  0.111022302463E-15
 -0.555111512313E-15
  0.000000000000E+00
 -0.943689570931E-15
 -0.666133814775E-15
  0.555111512313E-15
 -0.943689570931E-15
 -0.902056207508E-16
 -0.666133814775E-15
  0.999200722163E-15
 -0.333066907388E-15
  0.166533453694E-15
  0.145716771982E-15
 -0.333066907388E-15
  0.222044604925E-15
  0.555111512313E-15
 -0.555111512313E-16
  0.777156117238E-15
  0.166533453694E-15
 -0.111022302463E-15
  0.222044604925E-15
  0.555111512313E-15
  0.133226762955E-14
 -0.457966997658E-15
 -0.111022302463E-15
 -0.444089209850E-15
 -0.111022302463E-15
 -0.943689570931E-15
  0.555111512313E-16
 -0.235922392733E-15
 -0.166533453694E-15
 -0.555111512313E-16
  0.333066907388E-15
 -0.444089209850E-15
  0.277555756156E-16
 -0.222044604925E-15
 -0.111022302463E-15
  0.166533453694E-15
  0.166533453694E-15
  0.555111512313E-16
 -0.166533453694E-15
 -0.999200722163E-15
  0.818789480661E-15
 -0.277555756156E-15
  0.000000000000E+00
  0.555111512313E-15
  0.388578058619E-15
 -0.555111512313E-16
  0.444089209850E-15
 -0.166533453694E-15
  0.166533453694E-15
  0.138777878078E-16
 -0.111022302463E-15
  0.138777878078E-15
 -0.166533453694E-15
 -0.721644966006E-15
  0.000000000000E+00
 -0.652256026967E-15
 -0.277555756156E-15
 -0.555111512313E-16
 -0.111022302463E-15
  0.832667268469E-15
 -0.222044604925E-15
 -0.111022302463E-15
 -0.499600361081E-15
  0.111022302463E-15
  0.222044604925E-15
  0.138777878078E-15
 -0.333066907388E-15
 -0.222044604925E-15
 -0.277555756156E-16
  0.832667268469E-16
 -0.138777878078E-16
  0.610622663544E-15
  0.111022302463E-15
  0.000000000000E+00
  0.000000000000E+00
 -0.777156117238E-15
 -0.888178419700E-15
 -0.166533453694E-15
 -0.111022302463E-15
 -0.360822483003E-15
 -0.333066907388E-15
  0.277555756156E-15
 -0.222044604925E-15
 -0.333066907388E-15
 -0.333066907388E-15
  0.000000000000E+00
 -0.277555756156E-16
 -0.333066907388E-15
 -0.222044604925E-15
  0.444089209850E-15
 -0.111022302463E-15
 -0.166533453694E-15
  0.166533453694E-15
  0.000000000000E+00
  0.999200722163E-15
 -0.333066907388E-15
  0.277555756156E-15
 -0.555111512313E-16
 -0.832667268469E-15
  0.000000000000E+00
  0.277555756156E-15
  0.721644966006E-15
  0.166533453694E-15
  0.777156117238E-15
 -0.555111512313E-16
 -0.277555756156E-15
  0.277555756156E-15
 -0.277555756156E-15
 -0.888178419700E-15
  0.388578058619E-15
 -0.111022302463E-15
  0.111022302463E-15
 -0.333066907388E-15
 -0.333066907388E-15
  0.111022302463E-15
  0.222044604925E-15
  0.444089209850E-15
  0.000000000000E+00
  0.499600361081E-15
  0.444089209850E-15
  0.111022302463E-15
 -0.111022302463E-15
  0.166533453694E-15
  0.185962356625E-14
  0.360822483003E-15
  0.166533453694E-14
 -0.693889390391E-15
  0.108246744901E-14
 -0.277555756156E-15
 -0.555111512313E-16
 -0.166533453694E-15
 -0.222044604925E-15
 -0.111022302463E-15
  0.000000000000E+00
 -0.277555756156E-15
 -0.555111512313E-16
 -0.166533453694E-15
  0.277555756156E-15
 -0.277555756156E-15
  0.000000000000E+00
  0.610622663544E-15
  0.111022302463E-15
  0.610622663544E-15
  0.111022302463E-15
 -0.444089209850E-15
SCALARS phi_mu float 1
LOOKUP_TABLE default
  0.661739710800E+00
  0.771095487767E+00
  0.697426226164E+00
  0.795339259717E+00
  0.847919908225E+00
  0.744063276794E+00
  0.839628587150E+00
  0.647479401697E+00
  0.817427703479E+00
  0.859567758096E+00
  0.747918957617E+00
  0.836731176127E+00
  0.618882186878E+00
  0.815129850898E+00
  0.586130067421E+00
  0.801232107707E+00
  0.837527333754E+00
  0.722713008506E+00
  0.726162043062E+00
  0.416214238737E+00
  0.663520732004E+00
  0.341745154390E+00
  0.773252931800E+00
  0.539477810941E+00
  0.762761579420E+00
  0.600505737164E+00
  0.272640101844E+00
  0.795891597416E+00
  0.679910425676E+00
  0.721758918384E+00
  0.486392293176E+00
  0.533707491217E+00
  0.203668336519E+00
  0.329488496092E+00
  0.607325360933E-02
  0.719202776197E+00
  0.252270472910E+00
 -0.682223192931E-01
  0.751195793063E+00
  0.634931265350E+00
  0.471837183480E+00
  0.141714760537E+00
  0.176616820049E+00
 -0.140168233882E+00
  0.674214488376E+00
  0.438617147291E+00
  0.108861823838E+00
 -0.204769602037E+00
 -0.107878931939E+00
 -0.316913450585E+00
  0.683891248189E+00
  0.715881650936E+00
  0.599634634141E+00
  0.424705920110E+00
  0.951402558560E-01
 -0.162314184440E+00
 -0.362122075795E+00
  0.639501892752E+00
  0.404059026224E+00
  0.576524869411E-01
 -0.253838069364E+00
 -0.209411107527E+00
 -0.403149028404E+00
 -0.327323104558E+00
 -0.421942104298E+00
 -0.349713952440E+00
 -0.436290010125E+00
 -0.243215150502E+00
 -0.433826685274E+00
 -0.391922550796E+00
 -0.422276045450E+00
 -0.394916103872E+00
  0.393924688606E+00
  0.648507074145E-01
  0.659776489904E+00
 -0.359071073008E+00
 -0.442990106536E+00
 -0.382231435935E+00
 -0.408795738696E+00
  0.243476998480E-01
 -0.285949425918E+00
  0.692020055180E+00
  0.575841900355E+00
 -0.364933273523E+00
 -0.375467993555E+00
 -0.401472717958E+00
 -0.265759498530E+00
 -0.454922167315E+00
  0.616729168819E+00
  0.381457660191E+00
 -0.366184479300E+00
 -0.449075996190E+00
 -0.355421771139E+00
 -0.375567732175E+00
 -0.401335849993E+00
 -0.353791823454E+00
 -0.374495279971E+00
 -0.456921012180E+00
  0.313521567297E-02
 -0.306562356682E+00
  0.374134599589E+00
  0.453739029438E-01
 -0.282018169278E+00
 -0.470520302204E+00
  0.643088337058E+00
  0.675494645528E+00
  0.559378457583E+00
 -0.379861134803E+00
 -0.405511013094E+00
 -0.356850629925E+00
  0.600845713570E+00
  0.365708230126E+00
 -0.383334962303E+00
 -0.465533750552E+00
 -0.294606340072E+00
 -0.482790611151E+00
 -0.386240325880E+00
 -0.411827945383E+00
 -0.116296360185E-01
 -0.321009346298E+00
 -0.362386095628E+00
  0.359753142277E+00
  0.312067021704E-01
  0.629579116619E+00
  0.662017658363E+00
  0.545961633326E+00
 -0.391951118999E+00
 -0.474032641337E+00
  0.587539633085E+00
  0.352529195556E+00
 -0.393369030308E+00
 -0.418922163147E+00
 -0.305120723410E+00
 -0.493131500393E+00
 -0.368970777585E+00
 -0.236988502294E-01
 -0.332865296048E+00
  0.346850979009E+00
  0.185088546386E-01
  0.616120828161E+00
  0.648450849123E+00
  0.532472590116E+00
 -0.400301347968E+00
 -0.482314464550E+00
  0.573679459943E+00
  0.338837051005E+00
 -0.400824979252E+00
 -0.426356991658E+00
 -0.376082066653E+00
 -0.315109173865E+00
 -0.502993801130E+00
  0.600366465890E+00
 -0.358912918209E-01
 -0.344836003643E+00
  0.632385134681E+00
  0.516531290411E+00
  0.332397842143E+00
  0.434677708953E-02
  0.556671211931E+00
  0.322110150721E+00
 -0.409033279738E+00
 -0.490993076073E+00
  0.580371674462E+00
  0.611723036541E+00
  0.496088534247E+00
 -0.408955377082E+00
 -0.434471003246E+00
 -0.383961431367E+00
  0.313420713087E+00
 -0.140892553639E-01
 -0.326267976773E+00
 -0.514003791765E+00
  0.533911778127E+00
  0.299880795894E+00
 -0.508541338584E-01
 -0.359437036173E+00
  0.554377182547E+00
  0.584388975743E+00
  0.469159641158E+00
  0.502235041502E+00
  0.269286739356E+00
  0.520449739035E+00
 -0.419130158510E+00
 -0.501022476518E+00
  0.286319600959E+00
 -0.400164690893E-01
  0.547767563560E+00
  0.433336430084E+00
  0.474942186848E+00
 -0.418379018377E+00
 -0.443874487918E+00
 -0.713788844665E-01
 -0.379179997612E+00
  0.496300309353E+00
  0.383775869215E+00
  0.456802212027E+00
  0.226385404967E+00
 -0.340201150882E+00
 -0.527662759831E+00
 -0.393071190965E+00
  0.396516053368E+00
  0.403730111001E+00
  0.301915492391E+00
  0.246744728678E+00
 -0.766799728239E-01
  0.344863726889E+00
  0.277070854393E+00
  0.295842711253E+00
  0.390085811569E+00
  0.167424935014E+00
  0.300836787045E+00
  0.105708619616E+00
  0.216333336638E+00
  0.921560638671E-01
  0.193804751709E+00
 -0.121712933211E+00
  0.136748698620E+00
 -0.430902334544E+00
 -0.512664443165E+00
 -0.991370936672E-01
 -0.404980616879E+00
  0.137278831775E+00
 -0.159454229079E+00
 -0.356836680520E+00
 -0.543662235463E+00
 -0.428611074425E+00
 -0.454067645267E+00
 -0.402574070865E+00
  0.818046428631E-01
 -0.177499436005E+00
 -0.129576160800E+00
 -0.430468437731E+00
  0.203712533760E-02
 -0.159692009050E+00
 -0.916979737715E-01
 -0.441082993811E+00
 -0.522548250775E+00
 -0.152762108481E+00
 -0.442739325569E+00
 -0.370286021989E+00
 -0.555591820911E+00
 -0.434854619579E+00
 -0.460223537346E+00
 -0.166306726989E+00
 -0.435582547300E+00
 -0.407098104181E+00
 -0.177269463801E+00
 -0.409180549336E+00
 -0.369878501039E+00
 -0.551938137722E+00
 -0.214704157047E+00
 -0.357953910181E+00
 -0.440201363467E+00
 -0.521025169569E+00
 -0.285693178498E+00
 -0.427102068110E+00
 -0.452290969848E+00
 -0.351762998652E+00
 -0.527538436150E+00
 -0.396666313698E+00
 -0.419697391249E+00
 -0.499316385190E+00
 -0.321813980783E+00
 -0.485127773157E+00
 -0.291853929759E+00
 -0.425671234358E+00
 -0.398994811999E+00
 -0.423868378869E+00
 -0.295902682107E+00
 -0.378634107604E+00
 -0.329849399240E+00
 -0.380273860695E+00
 -0.457769736482E+00
 -0.366015592160E+00
 -0.328345891572E+00
 -0.401544006787E+00
 -0.353543090906E+00
 -0.377905590814E+00
 -0.319246178394E+00
 -0.272285309878E+00
 -0.327881920256E+00
 -0.269092819137E+00
 -0.303540878822E+00
 -0.281259274180E+00
 -0.297041742946E+00
 -0.320468110662E+00
 -0.263301680272E+00
 -0.229141260090E+00
 -0.245660105643E+00
 -0.226977697616E+00
 -0.237236095587E+00
 -0.230109302395E+00
 -0.194828971655E+00
 -0.394916671238E+00
 -0.364933644824E+00
 -0.355422267327E+00
 -0.353792485239E+00
 -0.356851490786E+00
 -0.362387169340E+00
 -0.368972042574E+00
 -0.376083457375E+00
 -0.383962847079E+00
 -0.393072522494E+00
 -0.402575231816E+00
 -0.407099050250E+00
 -0.396667043868E+00
 -0.366016134520E+00
 -0.319246572185E+00
 -0.263301964217E+00
SCALARS phi_sigma float 1
LOOKUP_TABLE default
 -0.661739710800E+00
 -0.771095487767E+00
 -0.697426226164E+00
 -0.795339259717E+00
 -0.847919908225E+00
 -0.744063276794E+00
 -0.839628587150E+00
 -0.647479401697E+00
 -0.817427703479E+00
 -0.859567758096E+00
 -0.747918957617E+00
 -0.836731176127E+00
 -0.618882186878E+00
 -0.815129850898E+00
 -0.586130067421E+00
 -0.801232107707E+00
 -0.837527333754E+00
 -0.722713008506E+00
 -0.726162043062E+00
 -0.416214238737E+00
 -0.663520732004E+00
 -0.341745154390E+00
 -0.773252931800E+00
 -0.539477810941E+00
 -0.762761579420E+00
 -0.600505737164E+00
 -0.272640101844E+00
 -0.795891597416E+00
 -0.679910425676E+00
 -0.721758918384E+00
 -0.486392293176E+00
 -0.533707491217E+00
 -0.203668336519E+00
 -0.329488496092E+00
 -0.607325360934E-02
 -0.719202776197E+00
 -0.252270472910E+00
  0.682223192931E-01
 -0.751195793063E+00
 -0.634931265350E+00
 -0.471837183480E+00
 -0.141714760537E+00
 -0.176616820049E+00
  0.140168233882E+00
 -0.674214488376E+00
 -0.438617147291E+00
 -0.108861823838E+00
  0.204769602037E+00
  0.107878931939E+00
  0.316913450585E+00
 -0.683891248189E+00
 -0.715881650936E+00
 -0.599634634141E+00
 -0.424705920110E+00
 -0.951402558560E-01
  0.162314184440E+00
  0.362122075795E+00
 -0.639501892752E+00
 -0.404059026224E+00
 -0.576524869411E-01
  0.253838069364E+00
  0.209411107527E+00
  0.403149028404E+00
  0.327323104558E+00
  0.421942104298E+00
  0.349713952440E+00
  0.436290010125E+00
  0.243215150502E+00
  0.433826685274E+00
  0.391922550796E+00
  0.422276045450E+00
  0.394916103872E+00
 -0.393924688606E+00
 -0.648507074145E-01
 -0.659776489904E+00
  0.359071073008E+00
  0.442990106536E+00
  0.382231435935E+00
  0.408795738696E+00
 -0.243476998480E-01
  0.285949425918E+00
 -0.692020055180E+00
 -0.575841900355E+00
  0.364933273523E+00
  0.375467993555E+00
  0.401472717958E+00
  0.265759498530E+00
  0.454922167315E+00
 -0.616729168819E+00
 -0.381457660191E+00
  0.366184479300E+00
  0.449075996190E+00
  0.355421771139E+00
  0.375567732175E+00
  0.401335849993E+00
  0.353791823454E+00
  0.374495279971E+00
  0.456921012180E+00
 -0.313521567297E-02
  0.306562356682E+00
 -0.374134599589E+00
 -0.453739029438E-01
  0.282018169278E+00
  0.470520302204E+00
 -0.643088337058E+00
 -0.675494645528E+00
 -0.559378457583E+00
  0.379861134803E+00
  0.405511013094E+00
  0.356850629925E+00
 -0.600845713570E+00
 -0.365708230126E+00
  0.383334962303E+00
  0.465533750552E+00
  0.294606340072E+00
  0.482790611151E+00
  0.386240325880E+00
  0.411827945383E+00
  0.116296360185E-01
  0.321009346298E+00
  0.362386095628E+00
 -0.359753142277E+00
 -0.312067021704E-01
 -0.629579116619E+00
 -0.662017658363E+00
 -0.545961633326E+00
  0.391951118999E+00
  0.474032641337E+00
 -0.587539633085E+00
 -0.352529195556E+00
  0.393369030308E+00
  0.418922163147E+00
  0.305120723410E+00
  0.493131500393E+00
  0.368970777585E+00
  0.236988502294E-01
  0.332865296048E+00
 -0.346850979009E+00
 -0.185088546386E-01
 -0.616120828161E+00
 -0.648450849123E+00
 -0.532472590116E+00
  0.400301347968E+00
  0.482314464550E+00
 -0.573679459943E+00
 -0.338837051005E+00
  0.400824979252E+00
  0.426356991658E+00
  0.376082066653E+00
  0.315109173865E+00
  0.502993801130E+00
 -0.600366465890E+00
  0.358912918209E-01
  0.344836003643E+00
 -0.632385134681E+00
 -0.516531290411E+00
 -0.332397842143E+00
 -0.434677708953E-02
 -0.556671211931E+00
 -0.322110150721E+00
  0.409033279738E+00
  0.490993076073E+00
 -0.580371674462E+00
 -0.611723036541E+00
 -0.496088534247E+00
  0.408955377082E+00
  0.434471003246E+00
  0.383961431367E+00
 -0.313420713087E+00
  0.140892553639E-01
  0.326267976773E+00
  0.514003791765E+00
 -0.533911778127E+00
 -0.299880795894E+00
  0.508541338584E-01
  0.359437036173E+00
 -0.554377182547E+00
 -0.584388975743E+00
 -0.469159641158E+00
 -0.502235041502E+00
 -0.269286739356E+00
 -0.520449739035E+00
  0.419130158510E+00
  0.501022476518E+00
 -0.286319600959E+00
  0.400164690893E-01
 -0.547767563560E+00
 -0.433336430084E+00
 -0.474942186848E+00
  0.418379018377E+00
  0.443874487918E+00
  0.713788844665E-01
  0.379179997612E+00
 -0.496300309353E+00
 -0.383775869215E+00
 -0.456802212027E+00
 -0.226385404967E+00
  0.340201150882E+00
  0.527662759831E+00
  0.393071190965E+00
 -0.396516053368E+00
 -0.403730111001E+00
 -0.301915492391E+00
 -0.246744728678E+00
  0.766799728239E-01
 -0.344863726889E+00
 -0.277070854393E+00
 -0.295842711253E+00
 -0.390085811569E+00
 -0.167424935014E+00
 -0.300836787045E+00
 -0.105708619616E+00
 -0.216333336638E+00
 -0.921560638671E-01
 -0.193804751709E+00
  0.121712933211E+00
 -0.136748698620E+00
  0.430902334544E+00
  0.512664443165E+00
  0.991370936672E-01
  0.404980616879E+00
 -0.137278831775E+00
  0.159454229079E+00
  0.356836680520E+00
  0.543662235463E+00
  0.428611074425E+00
  0.454067645267E+00
  0.402574070865E+00
 -0.818046428631E-01
  0.177499436005E+00
  0.129576160800E+00
  0.430468437731E+00
 -0.203712533760E-02
  0.159692009050E+00
  0.916979737715E-01
  0.441082993811E+00
  0.522548250775E+00
  0.152762108481E+00
  0.442739325569E+00
  0.370286021989E+00
  0.555591820911E+00
  0.434854619579E+00
  0.460223537346E+00
  0.166306726989E+00
  0.435582547300E+00
  0.407098104181E+00
  0.177269463801E+00
  0.409180549336E+00
  0.369878501039E+00
  0.551938137722E+00
  0.214704157047E+00
  0.357953910181E+00
  0.440201363467E+00
  0.521025169569E+00
  0.285693178498E+00
  0.427102068110E+00
  0.452290969848E+00
  0.351762998652E+00
  0.527538436150E+00
  0.396666313698E+00
  0.419697391249E+00
  0.499316385190E+00
  0.321813980783E+00
  0.485127773157E+00
  0.291853929759E+00
  0.425671234358E+00
  0.398994811999E+00
  0.423868378869E+00
  0.295902682107E+00
  0.378634107604E+00
  0.329849399240E+00
  0.380273860695E+00
  0.457769736482E+00
  0.366015592160E+00
  0.328345891572E+00
  0.401544006787E+00
  0.353543090906E+00
  0.377905590814E+00
  0.319246178394E+00
  0.272285309878E+00
  0.327881920256E+00
  0.269092819137E+00
  0.303540878822E+00
  0.281259274180E+00
  0.297041742946E+00
  0.320468110662E+00
  0.263301680272E+00
  0.229141260090E+00
  0.245660105643E+00
  0.226977697616E+00
  0.237236095587E+00
  0.230109302395E+00
  0.194828971655E+00
  0.394916671238E+00
  0.364933644824E+00
  0.355422267327E+00
  0.353792485239E+00
  0.356851490786E+00
  0.362387169340E+00
  0.368972042574E+00
  0.376083457375E+00
  0.383962847079E+00
  0.393072522494E+00
  0.402575231816E+00
  0.407099050250E+00
  0.396667043868E+00
  0.366016134520E+00
  0.319246572185E+00
  0.263301964217E+00
