# vtk DataFile Version 3.0
MachLine results file. Generated by MachLine, USU AeroLab (c) 2022.
ASCII
DATASET POLYDATA
POINTS                  20 float
  0.387563171387E+02  0.197561950684E+02  0.000000000000E+00
  0.100000000000E+05  0.197561950684E+02  0.000000000000E+00
  0.303820724487E+02  0.113820018768E+02  0.000000000000E+00
  0.100000000000E+05  0.113820018768E+02  0.000000000000E+00
  0.209237651825E+02  0.192375373840E+01  0.000000000000E+00
  0.100000000000E+05  0.192375373840E+01  0.000000000000E+00
  0.190000000000E+02  0.000000000000E+00  0.000000000000E+00
  0.100000000000E+05  0.000000000000E+00  0.000000000000E+00
  0.244703655243E+02  0.547033166885E+01  0.000000000000E+00
  0.100000000000E+05  0.547033166885E+01  0.000000000000E+00
  0.482439842224E+02  0.292438049316E+02  0.000000000000E+00
  0.100000000000E+05  0.292438049316E+02  0.000000000000E+00
  0.566182289124E+02  0.376179962158E+02  0.000000000000E+00
  0.100000000000E+05  0.376179962158E+02  0.000000000000E+00
  0.680002975464E+02  0.490000000000E+02  0.000000000000E+00
  0.100000000000E+05  0.490000000000E+02  0.000000000000E+00
  0.660765380859E+02  0.470762481689E+02  0.000000000000E+00
  0.100000000000E+05  0.470762481689E+02  0.000000000000E+00
  0.625299339294E+02  0.435296669006E+02  0.000000000000E+00
  0.100000000000E+05  0.435296669006E+02  0.000000000000E+00
POLYGONS                  18                  72
3                   4                   5                   7
3                   4                   7                   6
3                   8                   9                   5
3                   8                   5                   4
3                   2                   3                   9
3                   2                   9                   8
3                   0                   1                   3
3                   0                   3                   2
3                  10                  11                   1
3                  10                   1                   0
3                  12                  13                  11
3                  12                  11                  10
3                  18                  19                  13
3                  18                  13                  12
3                  16                  17                  19
3                  16                  19                  18
3                  14                  15                  17
3                  14                  17                  16
CELL_DATA                  18
NORMALS normals float
 -0.000000000000E+00 -0.000000000000E+00 -0.100000000000E+01
 -0.000000000000E+00  0.000000000000E+00 -0.100000000000E+01
 -0.000000000000E+00 -0.000000000000E+00 -0.100000000000E+01
 -0.000000000000E+00  0.000000000000E+00 -0.100000000000E+01
 -0.000000000000E+00 -0.000000000000E+00 -0.100000000000E+01
 -0.000000000000E+00  0.000000000000E+00 -0.100000000000E+01
 -0.000000000000E+00 -0.000000000000E+00 -0.100000000000E+01
 -0.000000000000E+00  0.000000000000E+00 -0.100000000000E+01
 -0.000000000000E+00 -0.000000000000E+00 -0.100000000000E+01
 -0.000000000000E+00  0.000000000000E+00 -0.100000000000E+01
 -0.000000000000E+00 -0.000000000000E+00 -0.100000000000E+01
 -0.000000000000E+00  0.000000000000E+00 -0.100000000000E+01
 -0.000000000000E+00 -0.000000000000E+00 -0.100000000000E+01
 -0.000000000000E+00  0.000000000000E+00 -0.100000000000E+01
 -0.000000000000E+00 -0.000000000000E+00 -0.100000000000E+01
 -0.000000000000E+00  0.000000000000E+00 -0.100000000000E+01
 -0.000000000000E+00 -0.000000000000E+00 -0.100000000000E+01
 -0.000000000000E+00  0.000000000000E+00 -0.100000000000E+01
POINT_DATA                  20
SCALARS mu float 1
LOOKUP_TABLE default
 -0.151288279127E-07
 -0.151288279127E-07
 -0.224420871331E-07
 -0.224420871331E-07
 -0.629124088380E-07
 -0.629124088380E-07
 -0.885507326354E-07
 -0.885507326354E-07
 -0.373192258762E-07
 -0.373192258762E-07
 -0.165704620581E-07
 -0.165704620581E-07
 -0.130558855949E-07
 -0.130558855949E-07
  0.000000000000E+00
  0.000000000000E+00
 -0.218964565368E-07
 -0.218964565368E-07
 -0.387869676932E-07
 -0.387869676932E-07
