# vtk DataFile Version 3.0
TriPan results file. Generated by TriPan, USU AeroLab (c) 2021.
ASCII
DATASET POLYDATA
POINTS                 144 float
  0.000000000000E+00  0.000000000000E+00  0.000000000000E+00
  0.113538098335E+01  0.000000000000E+00 -0.658124566078E+00
  0.113538098335E+01  0.000000000000E+00  0.658124566078E+00
  0.192375373840E+01  0.192375373840E+01  0.000000000000E+00
  0.305913543701E+01  0.192375373840E+01 -0.658124983311E+00
  0.305913543701E+01  0.192375373840E+01  0.658124983311E+00
  0.423028087616E+01  0.000000000000E+00 -0.108747220039E+01
  0.423028087616E+01  0.000000000000E+00  0.108747220039E+01
  0.547033166885E+01  0.547033166885E+01  0.000000000000E+00
  0.615403699875E+01  0.192375373840E+01 -0.108747279644E+01
  0.615403699875E+01  0.192375373840E+01  0.108747279644E+01
  0.660571479797E+01  0.547033166885E+01 -0.658125698566E+00
  0.660571479797E+01  0.547033166885E+01  0.658125698566E+00
  0.939508819580E+01  0.000000000000E+00 -0.980745851994E+00
  0.939508819580E+01  0.000000000000E+00  0.980745851994E+00
  0.970061969757E+01  0.547033166885E+01 -0.108747410774E+01
  0.970061969757E+01  0.547033166885E+01  0.108747410774E+01
  0.113188476562E+02  0.192375373840E+01 -0.980746448040E+00
  0.113188476562E+02  0.192375373840E+01  0.980746448040E+00
  0.113820018768E+02  0.113820018768E+02  0.000000000000E+00
  0.125173873901E+02  0.113820018768E+02 -0.658127009869E+00
  0.125173873901E+02  0.113820018768E+02  0.658127009869E+00
  0.145402030945E+02  0.000000000000E+00 -0.479613035917E+00
  0.145402030945E+02  0.000000000000E+00  0.479613035917E+00
  0.148654365540E+02  0.547033166885E+01 -0.980747580528E+00
  0.148654365540E+02  0.547033166885E+01  0.980747580528E+00
  0.156122989655E+02  0.113820018768E+02 -0.108747613430E+01
  0.156122989655E+02  0.113820018768E+02  0.108747613430E+01
  0.164639663696E+02  0.192375373840E+01 -0.479613333941E+00
  0.164639663696E+02  0.192375373840E+01  0.479613333941E+00
  0.176505107880E+02  0.000000000000E+00 -0.144198849797E+00
  0.176505107880E+02  0.000000000000E+00  0.144198849797E+00
  0.190000000000E+02  0.000000000000E+00  0.000000000000E+00
  0.195742740631E+02  0.192375373840E+01 -0.144198939204E+00
  0.195742740631E+02  0.192375373840E+01  0.144198939204E+00
  0.197561950684E+02  0.197561950684E+02  0.000000000000E+00
  0.200105609894E+02  0.547033166885E+01 -0.479613870382E+00
  0.200105609894E+02  0.547033166885E+01  0.479613870382E+00
  0.207771244049E+02  0.113820018768E+02 -0.980749428272E+00
  0.207771244049E+02  0.113820018768E+02  0.980749428272E+00
  0.208915824890E+02  0.197561950684E+02 -0.658128738403E+00
  0.208915824890E+02  0.197561950684E+02  0.658128738403E+00
  0.209237651825E+02  0.192375373840E+01  0.000000000000E+00
  0.231208724976E+02  0.547033166885E+01 -0.144199103117E+00
  0.231208724976E+02  0.547033166885E+01  0.144199103117E+00
  0.239865016937E+02  0.197561950684E+02 -0.108747911453E+01
  0.239865016937E+02  0.197561950684E+02  0.108747911453E+01
  0.244703655243E+02  0.547033166885E+01  0.000000000000E+00
  0.259222583771E+02  0.113820018768E+02 -0.479614794254E+00
  0.259222583771E+02  0.113820018768E+02  0.479614794254E+00
  0.290325775146E+02  0.113820018768E+02 -0.144199386239E+00
  0.290325775146E+02  0.113820018768E+02  0.144199386239E+00
  0.291513423920E+02  0.197561950684E+02 -0.980752110481E+00
  0.291513423920E+02  0.197561950684E+02  0.980752110481E+00
  0.292438049316E+02  0.292438049316E+02  0.000000000000E+00
  0.303791980743E+02  0.292438049316E+02 -0.658130764961E+00
  0.303791980743E+02  0.292438049316E+02  0.658130764961E+00
  0.303820724487E+02  0.113820018768E+02  0.000000000000E+00
  0.334741249084E+02  0.292438049316E+02 -0.108748245239E+01
  0.334741249084E+02  0.292438049316E+02  0.108748245239E+01
  0.342964897156E+02  0.197561950684E+02 -0.479616105556E+00
  0.342964897156E+02  0.197561950684E+02  0.479616105556E+00
  0.374068183899E+02  0.197561950684E+02 -0.144199773669E+00
  0.374068183899E+02  0.197561950684E+02  0.144199773669E+00
  0.376179962158E+02  0.376179962158E+02  0.000000000000E+00
  0.386389808655E+02  0.292438049316E+02 -0.980755090714E+00
  0.386389808655E+02  0.292438049316E+02  0.980755090714E+00
  0.387533912659E+02  0.376179962158E+02 -0.658132553101E+00
  0.387533912659E+02  0.376179962158E+02  0.658132553101E+00
  0.387563171387E+02  0.197561950684E+02  0.000000000000E+00
  0.418483314514E+02  0.376179962158E+02 -0.108748543262E+01
  0.418483314514E+02  0.376179962158E+02  0.108748543262E+01
  0.435296669006E+02  0.435296669006E+02  0.000000000000E+00
  0.437841453552E+02  0.292438049316E+02 -0.479617565870E+00
  0.437841453552E+02  0.292438049316E+02  0.479617565870E+00
  0.446650657654E+02  0.435296669006E+02 -0.658133804798E+00
  0.446650657654E+02  0.435296669006E+02  0.658133804798E+00
  0.468944816589E+02  0.292438049316E+02 -0.144200220704E+00
  0.468944816589E+02  0.292438049316E+02  0.144200220704E+00
  0.470131988525E+02  0.376179962158E+02 -0.980757772923E+00
  0.470131988525E+02  0.376179962158E+02  0.980757772923E+00
  0.470762481689E+02  0.470762481689E+02  0.000000000000E+00
  0.477600097656E+02  0.435296669006E+02 -0.108748745918E+01
  0.477600097656E+02  0.435296669006E+02  0.108748745918E+01
  0.482116432190E+02  0.470762481689E+02 -0.658134579659E+00
  0.482116432190E+02  0.470762481689E+02  0.658134579659E+00
  0.482439842224E+02  0.292438049316E+02  0.000000000000E+00
  0.490000000000E+02  0.490000000000E+02  0.000000000000E+00
  0.501353988647E+02  0.490000000000E+02 -0.658134996891E+00
  0.501353988647E+02  0.490000000000E+02  0.658134996891E+00
  0.506007728577E+02  0.494653701782E+02 -0.465371757746E+00
  0.506007728577E+02  0.494653701782E+02  0.465371757746E+00
  0.507935333252E+02  0.496581344604E+02 -0.771266485397E-15
  0.513065910339E+02  0.470762481689E+02 -0.108748877048E+01
  0.513065910339E+02  0.470762481689E+02  0.108748877048E+01
  0.521583786011E+02  0.376179962158E+02 -0.479618877172E+00
  0.521583786011E+02  0.376179962158E+02  0.479618877172E+00
  0.529248886108E+02  0.435296669006E+02 -0.980759620667E+00
  0.529248886108E+02  0.435296669006E+02  0.980759620667E+00
  0.532303466797E+02  0.490000000000E+02 -0.108748936653E+01
  0.532303466797E+02  0.490000000000E+02  0.108748936653E+01
  0.539993209839E+02  0.497689704895E+02 -0.768971264362E+00
  0.539993209839E+02  0.497689704895E+02  0.768971264362E+00
  0.543178405762E+02  0.500874900818E+02 -0.157378642191E-15
  0.552687225342E+02  0.376179962158E+02 -0.144200608134E+00
  0.552687225342E+02  0.376179962158E+02  0.144200608134E+00
  0.564714775085E+02  0.470762481689E+02 -0.980760753155E+00
  0.564714775085E+02  0.470762481689E+02  0.980760753155E+00
  0.566182289124E+02  0.376179962158E+02  0.000000000000E+00
  0.580700759888E+02  0.435296669006E+02 -0.479619771242E+00
  0.580700759888E+02  0.435296669006E+02  0.479619771242E+00
  0.583952369690E+02  0.490000000000E+02 -0.980761349201E+00
  0.583952369690E+02  0.490000000000E+02  0.980761349201E+00
  0.590887413025E+02  0.496935043335E+02 -0.693503141403E+00
  0.590887413025E+02  0.496935043335E+02  0.693503141403E+00
  0.593759994507E+02  0.499807624817E+02  0.000000000000E+00
  0.611804275513E+02  0.435296669006E+02 -0.144200876355E+00
  0.611804275513E+02  0.435296669006E+02  0.144200876355E+00
  0.616166725159E+02  0.470762481689E+02 -0.479620337486E+00
  0.616166725159E+02  0.470762481689E+02  0.479620337486E+00
  0.625299339294E+02  0.435296669006E+02  0.000000000000E+00
  0.635404319763E+02  0.490000000000E+02 -0.479620635509E+00
  0.635404319763E+02  0.490000000000E+02  0.479620635509E+00
  0.638795776367E+02  0.493391418457E+02 -0.339143037796E+00
  0.638795776367E+02  0.493391418457E+02  0.339143037796E+00
  0.640200576782E+02  0.494796218872E+02  0.296956834055E-15
  0.647270278931E+02  0.470762481689E+02 -0.144201040268E+00
  0.647270278931E+02  0.470762481689E+02  0.144201040268E+00
  0.660765380859E+02  0.470762481689E+02  0.000000000000E+00
  0.666507873535E+02  0.490000000000E+02 -0.144201144576E+00
  0.666507873535E+02  0.490000000000E+02  0.144201144576E+00
  0.667527542114E+02  0.491019668579E+02 -0.101965606213E+00
  0.667527542114E+02  0.491019668579E+02  0.101965606213E+00
  0.667949905396E+02  0.491441993713E+02 -0.260488604752E-16
  0.680002975464E+02  0.490000000000E+02  0.000000000000E+00
  0.209237651825E+02  0.192375373840E+01  0.000000000000E+00
  0.190000000000E+02  0.000000000000E+00  0.000000000000E+00
  0.244703655243E+02  0.547033166885E+01  0.000000000000E+00
  0.303820724487E+02  0.113820018768E+02  0.000000000000E+00
  0.387563171387E+02  0.197561950684E+02  0.000000000000E+00
  0.482439842224E+02  0.292438049316E+02  0.000000000000E+00
  0.566182289124E+02  0.376179962158E+02  0.000000000000E+00
  0.625299339294E+02  0.435296669006E+02  0.000000000000E+00
  0.660765380859E+02  0.470762481689E+02  0.000000000000E+00
POLYGONS                 256                1024
3                  32                  33                  42
3                  32                  30                  33
3                  30                  28                  33
3                  30                  22                  28
3                  22                  17                  28
3                  22                  13                  17
3                  13                   6                  17
3                  17                   6                   9
3                   6                   1                   9
3                   9                   1                   4
3                   1                   0                   4
3                   4                   0                   3
3                   0                   5                   3
3                   0                   2                   5
3                   2                  10                   5
3                   2                   7                  10
[...]
CELL_DATA                 256
SCALARS sigma float 1
LOOKUP_TABLE default
  0.000000000000E+00
  0.000000000000E+00
  0.000000000000E+00
  0.000000000000E+00
  0.000000000000E+00
  0.000000000000E+00
  0.000000000000E+00
  0.000000000000E+00
  0.000000000000E+00
  0.000000000000E+00
  0.000000000000E+00
  0.000000000000E+00
  0.000000000000E+00
  0.000000000000E+00
  0.000000000000E+00
  0.000000000000E+00
  0.000000000000E+00
  0.000000000000E+00
  0.000000000000E+00
  0.000000000000E+00
  0.000000000000E+00
  0.000000000000E+00
  0.000000000000E+00
  0.000000000000E+00
  0.000000000000E+00
  0.000000000000E+00
  0.000000000000E+00
  0.000000000000E+00
  0.000000000000E+00
  0.000000000000E+00
  0.000000000000E+00
  0.000000000000E+00
  0.000000000000E+00
  0.000000000000E+00
  0.000000000000E+00
  0.000000000000E+00
  0.000000000000E+00
  0.000000000000E+00
  0.000000000000E+00
  0.000000000000E+00
  0.000000000000E+00
  0.000000000000E+00
  0.000000000000E+00
  0.000000000000E+00
  0.000000000000E+00
  0.000000000000E+00
  0.000000000000E+00
  0.000000000000E+00
  0.000000000000E+00
  0.000000000000E+00
  0.000000000000E+00
  0.000000000000E+00
  0.000000000000E+00
  0.000000000000E+00
  0.000000000000E+00
  0.000000000000E+00
  0.000000000000E+00
  0.000000000000E+00
  0.000000000000E+00
  0.000000000000E+00
  0.000000000000E+00
  0.000000000000E+00
  0.000000000000E+00
  0.000000000000E+00
  0.000000000000E+00
  0.000000000000E+00
  0.000000000000E+00
  0.000000000000E+00
  0.000000000000E+00
  0.000000000000E+00
  0.000000000000E+00
  0.000000000000E+00
  0.000000000000E+00
  0.000000000000E+00
  0.000000000000E+00
  0.000000000000E+00
  0.000000000000E+00
  0.000000000000E+00
  0.000000000000E+00
  0.000000000000E+00
  0.000000000000E+00
  0.000000000000E+00
  0.000000000000E+00
  0.000000000000E+00
  0.000000000000E+00
  0.000000000000E+00
  0.000000000000E+00
  0.000000000000E+00
  0.000000000000E+00
  0.000000000000E+00
  0.000000000000E+00
  0.000000000000E+00
  0.000000000000E+00
  0.000000000000E+00
  0.000000000000E+00
  0.000000000000E+00
  0.000000000000E+00
  0.000000000000E+00
  0.000000000000E+00
  0.000000000000E+00
  0.000000000000E+00
  0.000000000000E+00
  0.000000000000E+00
  0.000000000000E+00
  0.000000000000E+00
  0.000000000000E+00
  0.000000000000E+00
  0.000000000000E+00
  0.000000000000E+00
  0.000000000000E+00
  0.000000000000E+00
  0.000000000000E+00
  0.000000000000E+00
  0.000000000000E+00
  0.000000000000E+00
  0.000000000000E+00
  0.000000000000E+00
  0.000000000000E+00
  0.000000000000E+00
  0.000000000000E+00
  0.000000000000E+00
  0.000000000000E+00
  0.000000000000E+00
  0.000000000000E+00
  0.000000000000E+00
  0.000000000000E+00
  0.000000000000E+00
  0.000000000000E+00
  0.000000000000E+00
  0.000000000000E+00
  0.000000000000E+00
  0.000000000000E+00
  0.000000000000E+00
  0.000000000000E+00
  0.000000000000E+00
  0.000000000000E+00
  0.000000000000E+00
  0.000000000000E+00
  0.000000000000E+00
  0.000000000000E+00
  0.000000000000E+00
  0.000000000000E+00
  0.000000000000E+00
  0.000000000000E+00
  0.000000000000E+00
  0.000000000000E+00
  0.000000000000E+00
  0.000000000000E+00
  0.000000000000E+00
  0.000000000000E+00
  0.000000000000E+00
  0.000000000000E+00
  0.000000000000E+00
  0.000000000000E+00
  0.000000000000E+00
  0.000000000000E+00
  0.000000000000E+00
  0.000000000000E+00
  0.000000000000E+00
  0.000000000000E+00
  0.000000000000E+00
  0.000000000000E+00
  0.000000000000E+00
  0.000000000000E+00
  0.000000000000E+00
  0.000000000000E+00
  0.000000000000E+00
  0.000000000000E+00
  0.000000000000E+00
  0.000000000000E+00
  0.000000000000E+00
  0.000000000000E+00
  0.000000000000E+00
  0.000000000000E+00
  0.000000000000E+00
  0.000000000000E+00
  0.000000000000E+00
  0.000000000000E+00
  0.000000000000E+00
  0.000000000000E+00
  0.000000000000E+00
  0.000000000000E+00
  0.000000000000E+00
  0.000000000000E+00
  0.000000000000E+00
  0.000000000000E+00
  0.000000000000E+00
  0.000000000000E+00
  0.000000000000E+00
  0.000000000000E+00
  0.000000000000E+00
  0.000000000000E+00
  0.000000000000E+00
  0.000000000000E+00
  0.000000000000E+00
  0.000000000000E+00
  0.000000000000E+00
  0.000000000000E+00
  0.000000000000E+00
  0.000000000000E+00
  0.000000000000E+00
  0.000000000000E+00
  0.000000000000E+00
  0.000000000000E+00
  0.000000000000E+00
  0.000000000000E+00
  0.000000000000E+00
  0.000000000000E+00
  0.000000000000E+00
  0.000000000000E+00
  0.000000000000E+00
  0.000000000000E+00
  0.000000000000E+00
  0.000000000000E+00
  0.000000000000E+00
  0.000000000000E+00
  0.000000000000E+00
  0.000000000000E+00
  0.000000000000E+00
  0.000000000000E+00
  0.000000000000E+00
  0.000000000000E+00
  0.000000000000E+00
  0.000000000000E+00
  0.000000000000E+00
  0.000000000000E+00
  0.000000000000E+00
  0.000000000000E+00
  0.000000000000E+00
  0.000000000000E+00
  0.000000000000E+00
  0.000000000000E+00
  0.000000000000E+00
  0.000000000000E+00
  0.000000000000E+00
  0.000000000000E+00
  0.000000000000E+00
  0.000000000000E+00
  0.000000000000E+00
  0.000000000000E+00
  0.000000000000E+00
  0.000000000000E+00
  0.000000000000E+00
  0.000000000000E+00
  0.000000000000E+00
  0.000000000000E+00
  0.000000000000E+00
  0.000000000000E+00
  0.000000000000E+00
  0.000000000000E+00
  0.000000000000E+00
  0.000000000000E+00
  0.000000000000E+00
  0.000000000000E+00
  0.000000000000E+00
  0.000000000000E+00
SCALARS inclination float 1
LOOKUP_TABLE default
  0.100000000000E+01
  0.100000000000E+01
  0.100000000000E+01
  0.100000000000E+01
  0.100000000000E+01
  0.100000000000E+01
  0.100000000000E+01
  0.100000000000E+01
  0.100000000000E+01
  0.100000000000E+01
  0.100000000000E+01
  0.100000000000E+01
  0.100000000000E+01
  0.100000000000E+01
  0.100000000000E+01
  0.100000000000E+01
  0.100000000000E+01
  0.100000000000E+01
  0.100000000000E+01
  0.100000000000E+01
  0.100000000000E+01
  0.100000000000E+01
  0.100000000000E+01
  0.100000000000E+01
  0.100000000000E+01
  0.100000000000E+01
  0.100000000000E+01
  0.100000000000E+01
  0.100000000000E+01
  0.100000000000E+01
  0.100000000000E+01
  0.100000000000E+01
  0.100000000000E+01
  0.100000000000E+01
  0.100000000000E+01
  0.100000000000E+01
  0.100000000000E+01
  0.100000000000E+01
  0.100000000000E+01
  0.100000000000E+01
  0.100000000000E+01
  0.100000000000E+01
  0.100000000000E+01
  0.100000000000E+01
  0.100000000000E+01
  0.100000000000E+01
  0.100000000000E+01
  0.100000000000E+01
  0.100000000000E+01
  0.100000000000E+01
  0.100000000000E+01
  0.100000000000E+01
  0.100000000000E+01
  0.100000000000E+01
  0.100000000000E+01
  0.100000000000E+01
  0.100000000000E+01
  0.100000000000E+01
  0.100000000000E+01
  0.100000000000E+01
  0.100000000000E+01
  0.100000000000E+01
  0.100000000000E+01
  0.100000000000E+01
  0.100000000000E+01
  0.100000000000E+01
  0.100000000000E+01
  0.100000000000E+01
  0.100000000000E+01
  0.100000000000E+01
  0.100000000000E+01
  0.100000000000E+01
  0.100000000000E+01
  0.100000000000E+01
  0.100000000000E+01
  0.100000000000E+01
  0.100000000000E+01
  0.100000000000E+01
  0.100000000000E+01
  0.100000000000E+01
  0.100000000000E+01
  0.100000000000E+01
  0.100000000000E+01
  0.100000000000E+01
  0.100000000000E+01
  0.100000000000E+01
  0.100000000000E+01
  0.100000000000E+01
  0.100000000000E+01
  0.100000000000E+01
  0.100000000000E+01
  0.100000000000E+01
  0.100000000000E+01
  0.100000000000E+01
  0.100000000000E+01
  0.100000000000E+01
  0.100000000000E+01
  0.100000000000E+01
  0.100000000000E+01
  0.100000000000E+01
  0.100000000000E+01
  0.100000000000E+01
  0.100000000000E+01
  0.100000000000E+01
  0.100000000000E+01
  0.100000000000E+01
  0.100000000000E+01
  0.100000000000E+01
  0.100000000000E+01
  0.100000000000E+01
  0.100000000000E+01
  0.100000000000E+01
  0.100000000000E+01
  0.100000000000E+01
  0.100000000000E+01
  0.100000000000E+01
  0.100000000000E+01
  0.100000000000E+01
  0.100000000000E+01
  0.100000000000E+01
  0.100000000000E+01
  0.100000000000E+01
  0.100000000000E+01
  0.100000000000E+01
  0.100000000000E+01
  0.100000000000E+01
  0.100000000000E+01
  0.100000000000E+01
  0.100000000000E+01
  0.100000000000E+01
  0.100000000000E+01
  0.100000000000E+01
  0.100000000000E+01
  0.100000000000E+01
  0.100000000000E+01
  0.100000000000E+01
  0.100000000000E+01
  0.100000000000E+01
  0.100000000000E+01
  0.100000000000E+01
  0.100000000000E+01
  0.100000000000E+01
  0.100000000000E+01
  0.100000000000E+01
  0.100000000000E+01
  0.100000000000E+01
  0.100000000000E+01
  0.100000000000E+01
  0.100000000000E+01
  0.100000000000E+01
  0.100000000000E+01
  0.100000000000E+01
  0.100000000000E+01
  0.100000000000E+01
  0.100000000000E+01
  0.100000000000E+01
  0.100000000000E+01
  0.100000000000E+01
  0.100000000000E+01
  0.100000000000E+01
  0.100000000000E+01
  0.100000000000E+01
  0.100000000000E+01
  0.100000000000E+01
  0.100000000000E+01
  0.100000000000E+01
  0.100000000000E+01
  0.100000000000E+01
  0.100000000000E+01
  0.100000000000E+01
  0.100000000000E+01
  0.100000000000E+01
  0.100000000000E+01
  0.100000000000E+01
  0.100000000000E+01
  0.100000000000E+01
  0.100000000000E+01
  0.100000000000E+01
  0.100000000000E+01
  0.100000000000E+01
  0.100000000000E+01
  0.100000000000E+01
  0.100000000000E+01
  0.100000000000E+01
  0.100000000000E+01
  0.100000000000E+01
  0.100000000000E+01
  0.100000000000E+01
  0.100000000000E+01
  0.100000000000E+01
  0.100000000000E+01
  0.100000000000E+01
  0.100000000000E+01
  0.100000000000E+01
  0.100000000000E+01
  0.100000000000E+01
  0.100000000000E+01
  0.100000000000E+01
  0.100000000000E+01
  0.100000000000E+01
  0.100000000000E+01
  0.100000000000E+01
  0.100000000000E+01
  0.100000000000E+01
  0.100000000000E+01
  0.100000000000E+01
  0.100000000000E+01
  0.100000000000E+01
  0.100000000000E+01
  0.100000000000E+01
  0.100000000000E+01
  0.100000000000E+01
  0.100000000000E+01
  0.100000000000E+01
  0.100000000000E+01
  0.100000000000E+01
  0.100000000000E+01
  0.100000000000E+01
  0.100000000000E+01
  0.100000000000E+01
  0.100000000000E+01
  0.100000000000E+01
  0.100000000000E+01
  0.100000000000E+01
  0.100000000000E+01
  0.100000000000E+01
  0.100000000000E+01
  0.100000000000E+01
  0.100000000000E+01
  0.100000000000E+01
  0.100000000000E+01
  0.100000000000E+01
  0.100000000000E+01
  0.100000000000E+01
  0.100000000000E+01
  0.100000000000E+01
  0.100000000000E+01
  0.100000000000E+01
  0.100000000000E+01
  0.100000000000E+01
  0.100000000000E+01
  0.100000000000E+01
  0.100000000000E+01
  0.100000000000E+01
  0.100000000000E+01
  0.100000000000E+01
  0.100000000000E+01
  0.100000000000E+01
  0.100000000000E+01
  0.100000000000E+01
  0.100000000000E+01
  0.100000000000E+01
  0.100000000000E+01
  0.100000000000E+01
  0.100000000000E+01
  0.100000000000E+01
VECTORS v float
  0.153774458603E+03  0.478042062347E+01  0.159206517292E+02
  0.158492933726E+03  0.342055887219E+01  0.165701624220E+02
  0.163463107724E+03 -0.154963970724E+01  0.177949126126E+02
  0.167342260970E+03  0.870400255949E+00  0.179522501658E+02
  0.173417553074E+03 -0.520492205191E+01  0.173977821064E+02
  0.176295181598E+03 -0.434317983057E+00  0.172134062878E+02
  0.180143194747E+03 -0.428234673033E+01  0.381099847234E+01
  0.180742066175E+03 -0.649226284942E+01  0.386903776445E+01
  0.168930262016E+03  0.531954771774E+01 -0.226973013135E+02
  0.177187843358E+03 -0.171748162652E+02 -0.269634340258E+02
  0.114543955786E+03  0.454690917617E+02 -0.400393045596E+02
  0.126383880826E+03  0.190556660531E+02 -0.622128924948E+02
  0.126383917815E+03  0.190556290639E+02  0.622129353764E+02
  0.114543980277E+03  0.454690826546E+02  0.400393240348E+02
  0.177187879327E+03 -0.171748368512E+02  0.269634418716E+02
  0.168930291394E+03  0.531954508878E+01  0.226973057538E+02
  0.180742106935E+03 -0.649227686057E+01 -0.386903889625E+01
  0.180143230691E+03 -0.428234296767E+01 -0.381099913732E+01
  0.176295233138E+03 -0.434329816375E+00 -0.172134124603E+02
  0.173417613732E+03 -0.520491876866E+01 -0.173977876946E+02
  0.167342356075E+03  0.870369091383E+00 -0.179522637828E+02
  0.163463216010E+03 -0.154966264874E+01 -0.177949267642E+02
  0.158493303574E+03  0.342027436750E+01 -0.165702323426E+02
  0.153774574259E+03  0.478020937686E+01 -0.159206866603E+02
  0.153040791812E+03  0.941430630202E+01  0.153470980629E+02
  0.153821373331E+03  0.893620415510E+01  0.154815985034E+02
  0.161458594016E+03  0.129893939961E+01  0.172715531648E+02
  0.163493242170E+03  0.107171321674E+01  0.175154749944E+02
  0.171005636922E+03 -0.644071692176E+01  0.172832301669E+02
  0.173416319504E+03 -0.533618719180E+01  0.174104471363E+02
  0.180739433867E+03 -0.126593284839E+02  0.399642312484E+01
  0.180790960286E+03 -0.127860028330E+02  0.400010762189E+01
  0.177335949529E+03 -0.933099848464E+01 -0.258958286793E+02
  0.180502836792E+03 -0.154168514270E+02 -0.271794456497E+02
  0.130331937992E+03  0.347540619176E+02 -0.554017973916E+02
  0.133334671485E+03  0.299503614519E+02 -0.599267943271E+02
  0.133334726885E+03  0.299503060521E+02  0.599268585521E+02
  0.130331976961E+03  0.347540328027E+02  0.554018368568E+02
  0.180502884908E+03 -0.154168896884E+02  0.271794576326E+02
  0.177335985602E+03 -0.933101360309E+01  0.258958357809E+02
  0.180791009933E+03 -0.127860315262E+02 -0.400010924075E+01
  0.180739474630E+03 -0.126593353345E+02 -0.399642410874E+01
  0.173416379882E+03 -0.533621365755E+01 -0.174104555949E+02
  0.171005703822E+03 -0.644074039904E+01 -0.172832389697E+02
  0.163493349980E+03  0.107164882999E+01 -0.175154935640E+02
  0.161458701132E+03  0.129887509039E+01 -0.172715716512E+02
  0.153821490532E+03  0.893612976050E+01 -0.154816189763E+02
  0.153041046047E+03  0.941414797473E+01 -0.153471421471E+02
  0.152678108398E+03  0.103798768376E+02  0.152051762769E+02
  0.153048484665E+03  0.100957521445E+02  0.152751041949E+02
  0.160842253261E+03  0.230193774458E+01  0.170969142959E+02
  0.161466786431E+03  0.201158615845E+01  0.171955846441E+02
  0.169886663901E+03 -0.640833002692E+01  0.171710878000E+02
  0.171004676089E+03 -0.654295950822E+01  0.172930950028E+02
  0.180789448553E+03 -0.163277653057E+02  0.407326490607E+01
  0.179985178117E+03 -0.148199673422E+02  0.402548748248E+01
  0.180504304752E+03 -0.153391054661E+02 -0.271688640430E+02
  0.181035325493E+03 -0.161617673833E+02 -0.273566429306E+02
  0.133653896345E+03  0.312196737708E+02 -0.593760750322E+02
  0.134378229408E+03  0.302466988279E+02 -0.603599148051E+02
  0.134378308360E+03  0.302466198757E+02  0.603600063345E+02
  0.133653953265E+03  0.312196244144E+02  0.593761366352E+02
  0.181035389240E+03 -0.161618235677E+02  0.273566595685E+02
  0.180504352983E+03 -0.153391376127E+02  0.271688751936E+02
  0.179985236096E+03 -0.148200092365E+02 -0.402548954629E+01
  0.180789498202E+03 -0.163277915829E+02 -0.407326647502E+01
  0.171004742803E+03 -0.654300285054E+01 -0.172931057222E+02
  0.169886727302E+03 -0.640837297020E+01 -0.171710981578E+02
  0.161466893293E+03  0.201149975350E+01 -0.171956054860E+02
  0.160842321178E+03  0.230186944540E+01 -0.170969289854E+02
  0.153048737825E+03  0.100954986011E+02 -0.152751583385E+02
  0.152678153769E+03  0.103797826945E+02 -0.152051911846E+02
  0.152493443468E+03  0.106622201103E+02  0.151552721858E+02
  0.152679540549E+03  0.105067399101E+02  0.151917734487E+02
  0.160606577466E+03  0.257965794047E+01  0.170415444601E+02
  0.160843751117E+03  0.243223500582E+01  0.170830246226E+02
  0.169563188331E+03 -0.628724192102E+01  0.171277897321E+02
  0.169886654097E+03 -0.640937301903E+01  0.171711884623E+02
  0.179984457944E+03 -0.165072109647E+02  0.406033879643E+01
  0.179603359376E+03 -0.158908041167E+02  0.403972527660E+01
  0.181013809659E+03 -0.173012672347E+02 -0.275117372353E+02
  0.180742202933E+03 -0.169246707221E+02 -0.274218264780E+02
  0.134215979026E+03  0.296015569255E+02 -0.606398254160E+02
  0.134119171701E+03  0.297213525291E+02 -0.605143264558E+02
  0.134119276334E+03  0.297212478969E+02  0.605144477561E+02
  0.134216059148E+03  0.296014826248E+02  0.606399149272E+02
  0.180742284663E+03 -0.169247466304E+02  0.274218483468E+02
  0.181013873502E+03 -0.173013183427E+02  0.275117531822E+02
  0.179603432368E+03 -0.158908643737E+02 -0.403972803010E+01
  0.179984515926E+03 -0.165072469425E+02 -0.406034073804E+01
  0.169886717511E+03 -0.640941442975E+01 -0.171711986723E+02
  0.169563281629E+03 -0.628729461483E+01 -0.171278039517E+02
  0.160843819500E+03  0.243220722728E+01 -0.170830349926E+02
  0.160606737812E+03  0.257957299932E+01 -0.170415709118E+02
  0.152679587305E+03  0.105067685585E+02 -0.151917753836E+02
  0.152493761380E+03  0.106620222142E+02 -0.151553273022E+02
  0.152259161755E+03  0.109874919767E+02  0.150954855194E+02
  0.152494841304E+03  0.107860435506E+02  0.151421904913E+02
  0.160406190624E+03  0.287464978450E+01  0.169881325362E+02
  0.160608420721E+03  0.273999992965E+01  0.170244518896E+02
  0.169428505997E+03 -0.608012789128E+01  0.170944936878E+02
  0.169564559042E+03 -0.614138417782E+01  0.171137166917E+02
  0.179603235898E+03 -0.161800954105E+02  0.404570074304E+01
  0.179502781722E+03 -0.160248965388E+02  0.404041950711E+01
  0.180735908320E+03 -0.172580359565E+02 -0.274672004210E+02
  0.180636167813E+03 -0.171242942691E+02 -0.274348266589E+02
  0.134053133196E+03  0.294587613525E+02 -0.606282544514E+02
  0.133990115577E+03  0.295349246284E+02 -0.605474633746E+02
  0.133990248053E+03  0.295347921530E+02  0.605476169534E+02
  0.134053238948E+03  0.294586611719E+02  0.606283738203E+02
  0.180636272565E+03 -0.171243934500E+02  0.274348549500E+02
  0.180735990190E+03 -0.172581044544E+02  0.274672212811E+02
  0.179502885031E+03 -0.160249864754E+02 -0.404042350039E+01
  0.179603308897E+03 -0.161801385211E+02 -0.404570314237E+01
  0.169564652240E+03 -0.614144748693E+01 -0.171137319355E+02
  0.169428679946E+03 -0.608022755757E+01 -0.170945203379E+02
  0.160608581054E+03  0.273991387926E+01 -0.170244784595E+02
  0.160406592257E+03  0.287440307081E+01 -0.169882024538E+02
  0.152495159606E+03  0.107858801688E+02 -0.151422419613E+02
  0.152260327990E+03  0.109866038199E+02 -0.150957050406E+02
  0.151032466388E+03  0.123835955511E+02  0.148152246084E+02
  0.152263313420E+03  0.113552494209E+02  0.150566320298E+02
  0.159628823017E+03  0.398969628617E+01  0.167840596109E+02
  0.160413402688E+03  0.350201591673E+01  0.169212548248E+02
  0.169298728435E+03 -0.538335433909E+01  0.170139836122E+02
  0.169434571999E+03 -0.543464407356E+01  0.170322142140E+02
  0.179503004435E+03 -0.155031127792E+02  0.402964177439E+01
  0.179656028283E+03 -0.157506214296E+02  0.403792097792E+01
  0.180643460477E+03 -0.167380666047E+02 -0.273822584253E+02
  0.180806769500E+03 -0.169645014509E+02 -0.274362831031E+02
  0.134053863944E+03  0.297884077074E+02 -0.604374860545E+02
  0.134137122016E+03  0.296853698220E+02 -0.605455328883E+02
  0.134137246850E+03  0.296852449877E+02  0.605456776089E+02
  0.134053996071E+03  0.297882738479E+02  0.604376402337E+02
  0.180806856561E+03 -0.169645902442E+02  0.274363074989E+02
  0.180643564968E+03 -0.167381795666E+02  0.273822885921E+02
  0.179656082491E+03 -0.157506841081E+02 -0.403792339331E+01
  0.179503107721E+03 -0.155032548384E+02 -0.402964684430E+01
  0.169434744896E+03 -0.543485574308E+01 -0.170322516707E+02
  0.169298709559E+03 -0.538349360158E+01 -0.170139953379E+02
  0.160413800763E+03  0.350145970023E+01 -0.169213577356E+02
  0.159628567273E+03  0.398954647126E+01 -0.167840481877E+02
  0.152264472023E+03  0.113536852513E+02 -0.150569229710E+02
  0.151031510099E+03  0.123837983286E+02 -0.148151007569E+02
  0.137157140412E+03  0.259379012192E+02  0.118842639780E+02
  0.151065038106E+03  0.152688528187E+02  0.145104010587E+02
  0.158395356356E+03  0.793849207573E+01  0.162251943379E+02
  0.159667418957E+03  0.734710429410E+01  0.164261582626E+02
  0.169845385173E+03 -0.283090783609E+01  0.168186255877E+02