# vtk DataFile Version 3.0
MachLine results file. Generated by MachLine, USU AeroLab (c) 2022.
ASCII
DATASET POLYDATA
POINTS                7064 float
  0.000000000000E+00  0.000000000000E+00  0.000000000000E+00
  0.389988087118E-01  0.000000000000E+00 -0.109218262136E+00
  0.389988087118E-01  0.000000000000E+00  0.109218262136E+00
  0.147665724158E+00  0.000000000000E+00 -0.234920635819E+00
  0.147665724158E+00  0.000000000000E+00  0.234920635819E+00
  0.161138445139E+00  0.161138445139E+00  0.000000000000E+00
  0.200137257576E+00  0.161138445139E+00 -0.109218269587E+00
  0.200137257576E+00  0.161138445139E+00  0.109218269587E+00
  0.290265858173E+00  0.000000000000E+00 -0.347333192825E+00
  0.290265858173E+00  0.000000000000E+00  0.347333192825E+00
  0.308804154396E+00  0.161138445139E+00 -0.234920650721E+00
  0.308804154396E+00  0.161138445139E+00  0.234920650721E+00
  0.335006117821E+00  0.335006117821E+00  0.000000000000E+00
  0.374004930258E+00  0.335006117821E+00 -0.109218277037E+00
  0.374004930258E+00  0.335006117821E+00  0.109218277037E+00
  0.451404303312E+00  0.161138445139E+00 -0.347333222628E+00
  0.451404303312E+00  0.161138445139E+00  0.347333222628E+00
  0.473465979099E+00  0.000000000000E+00 -0.436293870211E+00
  0.473465979099E+00  0.000000000000E+00  0.436293870211E+00
  0.482671856880E+00  0.335006117821E+00 -0.234920650721E+00
  0.482671856880E+00  0.335006117821E+00  0.234920650721E+00
  0.522506594658E+00  0.522506594658E+00  0.000000000000E+00
  0.561505436897E+00  0.522506594658E+00 -0.109218284488E+00
  0.561505436897E+00  0.522506594658E+00  0.109218284488E+00
  0.625271975994E+00  0.335006117821E+00 -0.347333222628E+00
  0.625271975994E+00  0.335006117821E+00  0.347333222628E+00
  0.634604454041E+00  0.161138445139E+00 -0.436293900013E+00
  0.634604454041E+00  0.161138445139E+00  0.436293900013E+00
  0.670172333717E+00  0.522506594658E+00 -0.234920665622E+00
  0.670172333717E+00  0.522506594658E+00  0.234920665622E+00
  0.689334988594E+00  0.000000000000E+00 -0.522850036621E+00
  0.689334988594E+00  0.000000000000E+00  0.522850036621E+00
  0.724590361118E+00  0.724590361118E+00  0.000000000000E+00
  0.763589203358E+00  0.724590361118E+00 -0.109218291938E+00
  0.763589203358E+00  0.724590361118E+00  0.109218291938E+00
  0.808472156525E+00  0.335006117821E+00 -0.436293929815E+00
  0.808472156525E+00  0.335006117821E+00  0.436293929815E+00
  0.812772512436E+00  0.522506594658E+00 -0.347333252430E+00
  0.812772512436E+00  0.522506594658E+00  0.347333252430E+00
  0.850473463535E+00  0.161138445139E+00 -0.522850036621E+00
  0.850473463535E+00  0.161138445139E+00  0.522850036621E+00
  0.872256100178E+00  0.724590361118E+00 -0.234920680523E+00
  0.872256100178E+00  0.724590361118E+00  0.234920680523E+00
  0.942254066467E+00  0.942254066467E+00  0.000000000000E+00
  0.944064557552E+00  0.000000000000E+00 -0.604293465614E+00
  0.944064557552E+00  0.000000000000E+00  0.604293465614E+00
  0.981252849102E+00  0.942254066467E+00 -0.109218299389E+00
  0.981252849102E+00  0.942254066467E+00  0.109218299389E+00
  0.995972692966E+00  0.522506594658E+00 -0.436293959618E+00
  0.995972692966E+00  0.522506594658E+00  0.436293959618E+00
  0.101485633850E+01  0.724590361118E+00 -0.347333282232E+00
  0.101485633850E+01  0.724590361118E+00  0.347333282232E+00
  0.102434122562E+01  0.335006117821E+00 -0.522850096226E+00
  0.102434122562E+01  0.335006117821E+00  0.522850096226E+00
  0.108991980553E+01  0.942254066467E+00 -0.234920710325E+00
  0.108991980553E+01  0.942254066467E+00  0.234920710325E+00
  0.110520303249E+01  0.161138445139E+00 -0.604293525219E+00
  0.110520303249E+01  0.161138445139E+00  0.604293525219E+00
  0.117653930187E+01  0.117653930187E+01  0.000000000000E+00
  0.119805645943E+01  0.724590361118E+00 -0.436293989420E+00
  0.119805645943E+01  0.724590361118E+00  0.436293989420E+00
  0.121184170246E+01  0.522506594658E+00 -0.522850096226E+00
  0.121184170246E+01  0.522506594658E+00  0.522850096226E+00
  0.121553814411E+01  0.117653930187E+01 -0.109218306839E+00
  0.121553814411E+01  0.117653930187E+01  0.109218306839E+00
  0.123251998425E+01  0.942254066467E+00 -0.347333312035E+00
  0.123251998425E+01  0.942254066467E+00  0.347333312035E+00
  0.123833239079E+01  0.000000000000E+00 -0.683996438980E+00
  0.123833239079E+01  0.000000000000E+00  0.683996438980E+00
  0.127907073498E+01  0.335006117821E+00 -0.604293525219E+00
  0.127907073498E+01  0.335006117821E+00  0.604293525219E+00
  0.132420504093E+01  0.117653930187E+01 -0.234920725226E+00
  0.132420504093E+01  0.117653930187E+01  0.234920725226E+00
  0.139947092533E+01  0.161138445139E+00 -0.683996498585E+00
  0.139947092533E+01  0.161138445139E+00  0.683996498585E+00
  0.141392552853E+01  0.724590361118E+00 -0.522850155830E+00
  0.141392552853E+01  0.724590361118E+00  0.522850155830E+00
  0.141572022438E+01  0.942254066467E+00 -0.436294019222E+00
  0.141572022438E+01  0.942254066467E+00  0.436294019222E+00
  0.142853081226E+01  0.142853081226E+01  0.000000000000E+00
  0.146657133102E+01  0.522506594658E+00 -0.604293584824E+00
  0.146657133102E+01  0.522506594658E+00  0.604293584824E+00
  0.146680521965E+01  0.117653930187E+01 -0.347333341837E+00
  0.146680521965E+01  0.117653930187E+01  0.347333341837E+00
  0.146752965450E+01  0.142853081226E+01 -0.109218314290E+00
  0.146752965450E+01  0.142853081226E+01  0.109218314290E+00
  0.157333862782E+01  0.335006117821E+00 -0.683996558189E+00
  0.157333862782E+01  0.335006117821E+00  0.683996558189E+00
  0.157619655132E+01  0.142853081226E+01 -0.234920740128E+00
  0.157619655132E+01  0.142853081226E+01  0.234920740128E+00
  0.157641971111E+01  0.000000000000E+00 -0.760520398617E+00
  0.157641971111E+01  0.000000000000E+00  0.760520398617E+00
  0.163158929348E+01  0.942254066467E+00 -0.522850155830E+00
  0.163158929348E+01  0.942254066467E+00  0.522850155830E+00
  0.165000545979E+01  0.117653930187E+01 -0.436294049025E+00
  0.165000545979E+01  0.117653930187E+01  0.436294049025E+00
  0.166865515709E+01  0.724590361118E+00 -0.604293584824E+00
  0.166865515709E+01  0.724590361118E+00  0.604293584824E+00
  0.169935321808E+01  0.169935321808E+01  0.000000000000E+00
  0.171879673004E+01  0.142853081226E+01 -0.347333371639E+00
  0.171879673004E+01  0.142853081226E+01  0.347333371639E+00
  0.173755824566E+01  0.161138445139E+00 -0.760520458221E+00
  0.173755824566E+01  0.161138445139E+00  0.760520458221E+00
  0.173835194111E+01  0.169935321808E+01 -0.109218329191E+00
  0.173835194111E+01  0.169935321808E+01  0.109218329191E+00
  0.176083922386E+01  0.522506594658E+00 -0.683996558189E+00
  0.176083922386E+01  0.522506594658E+00  0.683996558189E+00
  0.184701895714E+01  0.169935321808E+01 -0.234920755029E+00
  0.184701895714E+01  0.169935321808E+01  0.234920755029E+00
  0.186587452888E+01  0.117653930187E+01 -0.522850215435E+00
  0.186587452888E+01  0.117653930187E+01  0.522850215435E+00
  0.188631892204E+01  0.942254066467E+00 -0.604293644428E+00
  0.188631892204E+01  0.942254066467E+00  0.604293644428E+00
  0.190199697018E+01  0.142853081226E+01 -0.436294078827E+00
  0.190199697018E+01  0.142853081226E+01  0.436294078827E+00
  0.191142594814E+01  0.335006117821E+00 -0.760520458221E+00
  0.191142594814E+01  0.335006117821E+00  0.760520458221E+00
  0.196138751507E+01  0.000000000000E+00 -0.833668828011E+00
  0.196138751507E+01  0.000000000000E+00  0.833668828011E+00
  0.196292304993E+01  0.724590361118E+00 -0.683996617794E+00
  0.196292304993E+01  0.724590361118E+00  0.683996617794E+00
  0.198961913586E+01  0.169935321808E+01 -0.347333401442E+00
  0.198961913586E+01  0.169935321808E+01  0.347333401442E+00
  0.199016737938E+01  0.199016737938E+01  0.000000000000E+00
  0.202916622162E+01  0.199016737938E+01 -0.109218336642E+00
  0.202916622162E+01  0.199016737938E+01  0.109218336642E+00
  0.209892654419E+01  0.522506594658E+00 -0.760520517826E+00
  0.209892654419E+01  0.522506594658E+00  0.760520517826E+00
  0.211786603928E+01  0.142853081226E+01 -0.522850275040E+00
  0.211786603928E+01  0.142853081226E+01  0.522850275040E+00
  0.212060427666E+01  0.117653930187E+01 -0.604293704033E+00
  0.212060427666E+01  0.117653930187E+01  0.604293704033E+00
  0.212252616882E+01  0.161138445139E+00 -0.833668828011E+00
  0.212252616882E+01  0.161138445139E+00  0.833668828011E+00
  0.213783311844E+01  0.199016737938E+01 -0.234920784831E+00
  0.213783311844E+01  0.199016737938E+01  0.234920784831E+00
  0.217281937599E+01  0.169935321808E+01 -0.436294138432E+00
  0.217281937599E+01  0.169935321808E+01  0.436294138432E+00
  0.218058681488E+01  0.942254066467E+00 -0.683996677399E+00
  0.218058681488E+01  0.942254066467E+00  0.683996677399E+00
  0.228043341637E+01  0.199016737938E+01 -0.347333431244E+00
  0.228043341637E+01  0.199016737938E+01  0.347333431244E+00
  0.229639387131E+01  0.335006117821E+00 -0.833668887615E+00
  0.229639387131E+01  0.335006117821E+00  0.833668887615E+00
  0.230101037025E+01  0.724590361118E+00 -0.760520577431E+00
  0.230101037025E+01  0.724590361118E+00  0.760520577431E+00
  0.230216526985E+01  0.230216526985E+01  0.000000000000E+00
  0.234116411209E+01  0.230216526985E+01 -0.109218344092E+00
  0.234116411209E+01  0.230216526985E+01  0.109218344092E+00
  0.237259578705E+01  0.142853081226E+01 -0.604293763638E+00
  0.237259578705E+01  0.142853081226E+01  0.604293763638E+00
  0.238868856430E+01  0.169935321808E+01 -0.522850275040E+00
  0.238868856430E+01  0.169935321808E+01  0.522850275040E+00
  0.239635515213E+01  0.000000000000E+00 -0.902061045170E+00
  0.239635515213E+01  0.000000000000E+00  0.902061045170E+00
  0.241487216949E+01  0.117653930187E+01 -0.683996737003E+00
  0.241487216949E+01  0.117653930187E+01  0.683996737003E+00
  0.244983124733E+01  0.230216526985E+01 -0.234920799732E+00
  0.244983124733E+01  0.230216526985E+01  0.234920799732E+00
  0.246363353729E+01  0.199016737938E+01 -0.436294168234E+00
  0.246363353729E+01  0.199016737938E+01  0.436294168234E+00
[...]
CELL_DATA               13888
SCALARS C_p_inc float 1
LOOKUP_TABLE default
  0.195913387014E+00
  0.153550906974E+00
  0.123257283994E+00
  0.886841513694E-01
  0.829124865190E-01
  0.598445334589E-01
  0.544455157775E-01
  0.385841158199E-01
  0.326831065270E-01
  0.208938807902E-01
  0.144242550533E-01
  0.515800221412E-02
 -0.183930691669E-02
 -0.941943843902E-02
 -0.169355810562E-01
 -0.233505509217E-01
 -0.314921444674E-01
 -0.371299018599E-01
 -0.461475961140E-01
 -0.513109580580E-01
 -0.611429284474E-01
 -0.658903476187E-01
 -0.761465387158E-01
 -0.804487989285E-01
 -0.912871060724E-01
 -0.953597402398E-01
 -0.107935002629E+00
 -0.112204749865E+00
 -0.125222255563E+00
 -0.129124321364E+00
 -0.143056749915E+00
 -0.147077405417E+00
 -0.163492506475E+00
 -0.167968835574E+00
 -0.182051803612E+00
 -0.185387881027E+00
 -0.200268495631E+00
 -0.204189426584E+00
 -0.216399565567E+00
 -0.219099217256E+00
 -0.234336108568E+00
 -0.231174267456E+00
 -0.245466457725E+00
 -0.243572759369E+00
 -0.250845098613E+00
 -0.250115208212E+00
 -0.256094804517E+00
 -0.255625623301E+00
 -0.241784156360E+00
 -0.247156962623E+00
 -0.216906628687E+00
 -0.223938688667E+00
 -0.188699150116E+00
 -0.197309878106E+00
 -0.158223567406E+00
 -0.168311044452E+00
 -0.127248968828E+00
 -0.138560946957E+00
 -0.981885226355E-01
 -0.110760903717E+00
 -0.672820726555E-01
 -0.834345542122E-01
 -0.293701273392E-01
 -0.509952538213E-01
  0.143666823850E-01
 -0.130171534783E-01
  0.673330226876E-01
  0.318329713416E-01
  0.124522684168E+00
  0.801620545896E-01
  0.205611148049E+00
  0.145351314588E+00
  0.293943505343E+00
  0.218029519191E+00
  0.460162669797E+00
  0.379962466600E+00
  0.643566149304E+00
  0.608813677190E+00
  0.790624495169E+00
  0.793713662315E+00
  0.793713662437E+00
  0.790624495271E+00
  0.608813677463E+00
  0.643566149521E+00
  0.379962466946E+00
  0.460162670081E+00
  0.218029519569E+00
  0.293943505662E+00
  0.145351314931E+00
  0.205611148331E+00
  0.801620549134E-01
  0.124522684517E+00
  0.318329716904E-01
  0.673330229767E-01
 -0.130171531682E-01
  0.143666827256E-01
 -0.509952535232E-01
 -0.293701270230E-01
 -0.834345538703E-01
 -0.672820723415E-01
 -0.110760903408E+00
 -0.981885223190E-01
 -0.138560946648E+00
 -0.127248968504E+00
 -0.168311044132E+00
 -0.158223567113E+00
 -0.197309877787E+00
 -0.188699149794E+00
 -0.223938688353E+00
 -0.216906628373E+00
 -0.247156962309E+00
 -0.241784156047E+00
 -0.255625623000E+00
 -0.256094804210E+00
 -0.250115207925E+00
 -0.250845098325E+00
 -0.243572759108E+00
 -0.245466457459E+00
 -0.231174267226E+00
 -0.234336108330E+00
 -0.219099217060E+00
 -0.216399565380E+00
 -0.204189426443E+00
 -0.200268495502E+00
 -0.185387880958E+00
 -0.182051803559E+00
 -0.167968835595E+00
 -0.163492506520E+00
 -0.147077405563E+00
 -0.143056750087E+00
 -0.129124321652E+00
 -0.125222255891E+00
 -0.112204750352E+00
 -0.107935003165E+00
 -0.953597409616E-01
 -0.912871068674E-01
 -0.804487999439E-01
 -0.761465398405E-01
 -0.658903490193E-01
 -0.611429299887E-01
 -0.513109599417E-01
 -0.461475981886E-01
 -0.371299043350E-01
 -0.314921472312E-01
 -0.233505541948E-01
 -0.169355847719E-01
 -0.941944278820E-02
 -0.183931199731E-02
  0.515799622956E-02
  0.144242478462E-01
  0.208938723044E-01
  0.326830956906E-01
  0.385841027138E-01
  0.544454979585E-01
  0.598445105591E-01
  0.829124548775E-01
  0.886840949593E-01
  0.123257237380E+00
  0.153550600172E+00
  0.195913445222E+00
  0.195152529053E+00
  0.193044804991E+00
  0.132752280023E+00
  0.122667632729E+00
  0.994008253839E-01
  0.827552702358E-01
  0.701999965398E-01
  0.543883499176E-01
  0.454770449126E-01
  0.326553159710E-01
  0.246722259837E-01
  0.144085185116E-01
  0.655143424746E-02
 -0.184884498545E-02
 -0.987083679837E-02
 -0.169414488295E-01
 -0.253609791828E-01
 -0.314953586048E-01
 -0.406589003835E-01
 -0.461478788804E-01
 -0.561404763322E-01
 -0.611399842997E-01
 -0.715640228127E-01
 -0.761413206824E-01
 -0.869808922392E-01
 -0.912798807955E-01
 -0.103701058660E+00
 -0.107922412511E+00
 -0.121195023072E+00
 -0.125207933238E+00
 -0.139074907203E+00
 -0.143038204837E+00
 -0.159475872966E+00
 -0.163466130168E+00
 -0.178631251720E+00
 -0.182041415109E+00
 -0.196955639580E+00
 -0.200257894185E+00
 -0.213828109763E+00
 -0.216424725185E+00
 -0.231367206486E+00
 -0.228847149094E+00
 -0.243809604239E+00
 -0.242338093729E+00
 -0.250374504574E+00
 -0.250165798232E+00
 -0.255965785370E+00
 -0.257154484001E+00
 -0.247328807447E+00
 -0.252313230683E+00
 -0.223969215508E+00
 -0.231211711473E+00
 -0.197237026538E+00
 -0.206148071685E+00
 -0.168149519199E+00
 -0.178542119690E+00
 -0.138331529950E+00
 -0.150108532194E+00
 -0.110464828748E+00
 -0.123901971899E+00
 -0.829757761994E-01
 -0.991382541797E-01
 -0.502964460729E-01
 -0.701145274854E-01
 -0.121042879076E-01
 -0.359612011902E-01
  0.327984712090E-01
  0.468284616508E-02
  0.809502073081E-01
  0.482376192260E-01
  0.144026566736E+00
  0.107875101985E+00
  0.212698089366E+00
  0.173503183081E+00
  0.344302942910E+00
  0.316945975754E+00
  0.523665375390E+00
  0.514470590034E+00
  0.659668871668E+00
  0.662065315959E+00
  0.662065316077E+00
  0.659668871781E+00
  0.514470590305E+00
  0.523665375629E+00
  0.316945976120E+00
  0.344302943231E+00
  0.173503183499E+00
  0.212698089728E+00
  0.107875102316E+00
  0.144026567070E+00
  0.482376195681E-01
  0.809502076296E-01
  0.468284651513E-02
  0.327984715541E-01
 -0.359612008585E-01
 -0.121042875957E-01
 -0.701145271510E-01
 -0.502964457748E-01
 -0.991382538444E-01
 -0.829757758589E-01
 -0.123901971593E+00
 -0.110464828439E+00
 -0.150108531875E+00
 -0.138331529641E+00
 -0.178542119372E+00
 -0.168149518880E+00
 -0.206148071357E+00
 -0.197237026219E+00
 -0.231211711159E+00
 -0.223969215194E+00
 -0.252313230373E+00
 -0.247328807134E+00
 -0.257154483701E+00
 -0.255965785069E+00
 -0.250165797948E+00
 -0.250374504287E+00
 -0.242338093472E+00
 -0.243809603977E+00
 -0.228847148871E+00
 -0.231367206256E+00
 -0.216424724999E+00
 -0.213828109586E+00
 -0.200257894056E+00
 -0.196955639465E+00
 -0.182041415057E+00
 -0.178631251686E+00
 -0.163466130212E+00
 -0.159475873035E+00
 -0.143038205010E+00
 -0.139074907407E+00
 -0.125207933567E+00
 -0.121195023445E+00
 -0.107922413047E+00
 -0.103701059248E+00
 -0.912798815905E-01
 -0.869808931179E-01
 -0.761413218070E-01
 -0.715640240521E-01
 -0.611399858408E-01
 -0.561404780234E-01
 -0.461478809544E-01
 -0.406589026792E-01
 -0.314953613675E-01
 -0.253609822714E-01
 -0.169414525433E-01
 -0.987084101651E-02
 -0.184885006272E-02
  0.655142843771E-02
  0.144085113122E-01
  0.246722177227E-01
  0.326553051555E-01
  0.454770330122E-01
  0.543883321708E-01
  0.701999807013E-01
  0.827552389169E-01
  0.994008106273E-01
  0.122667587432E+00
  0.132752277398E+00
  0.193044856198E+00
  0.195152518200E+00
  0.193652076338E+00
  0.193501017882E+00
  0.134988680751E+00
  0.131924501977E+00
  0.106104808758E+00
  0.989694181849E-01
  0.806196265412E-01
  0.700116497386E-01
  0.568307984127E-01
  0.453922431188E-01
  0.350171440219E-01
  0.246291601887E-01
  0.154381496998E-01
  0.652746498441E-02
 -0.227702912047E-02
 -0.988463969043E-02
 -0.187755432498E-01
 -0.253683432697E-01
 -0.348158983415E-01
 -0.406606867363E-01
 -0.508483629151E-01
 -0.561364502823E-01
 -0.667159161415E-01
 -0.715551238915E-01
 -0.824672420563E-01
 -0.869681275865E-01
 -0.993710988465E-01
 -0.103681498192E+00
 -0.117047831574E+00
 -0.121168950510E+00
 -0.135069986831E+00
 -0.139042959843E+00
 -0.155560010258E+00
 -0.159434391108E+00
 -0.175146144486E+00
 -0.178599319906E+00
 -0.193820062117E+00
 -0.196933506277E+00
 -0.211309213185E+00
 -0.213847527772E+00
 -0.229176354874E+00
 -0.226885822978E+00
 -0.242703065011E+00
 -0.241384432219E+00
 -0.250514442048E+00
 -0.250550544600E+00
 -0.257481216973E+00
 -0.259173040037E+00
 -0.252354067598E+00
 -0.257003377339E+00
 -0.230985650785E+00
 -0.238187221851E+00
 -0.205748137505E+00
 -0.214716049777E+00
 -0.178014384030E+00
 -0.188483099911E+00
 -0.149483299687E+00
 -0.161353418283E+00
 -0.123156050587E+00
 -0.136610791510E+00
 -0.982041840534E-01
 -0.113773581209E+00
 -0.690109231766E-01
 -0.872001242078E-01
 -0.348058788600E-01
 -0.558049863737E-01
  0.554521532960E-02
 -0.180313556362E-01
  0.484261556478E-01
  0.224116714237E-01
  0.105580768480E+00
  0.787227941225E-01
  0.167337700481E+00
  0.140319217026E+00
  0.295381029819E+00
  0.277816988324E+00
  0.473623642105E+00
  0.468035224586E+00
  0.607891771271E+00
  0.609395324696E+00
  0.609395324830E+00
  0.607891771408E+00
  0.468035224894E+00
  0.473623642387E+00
  0.277816988722E+00
  0.295381030183E+00
  0.140319217405E+00
  0.167337700884E+00
  0.787227944684E-01
  0.105580768803E+00
  0.224116718499E-01
  0.484261559853E-01
 -0.180313553008E-01
  0.554521567528E-02
 -0.558049860381E-01
 -0.348058785319E-01
 -0.872001238627E-01
 -0.690109228450E-01
 -0.113773580877E+00
 -0.982041837179E-01
 -0.136610791183E+00
 -0.123156050281E+00
 -0.161353417963E+00
 -0.149483299369E+00
 -0.188483099591E+00
 -0.178014383712E+00
 -0.214716049456E+00
 -0.205748137176E+00
 -0.238187221528E+00
 -0.230985650470E+00
 -0.257003377024E+00
 -0.252354067289E+00
 -0.259173039745E+00
 -0.257481216673E+00
 -0.250550544319E+00
 -0.250514441764E+00
 -0.241384431969E+00
 -0.242703064753E+00
 -0.226885822763E+00
 -0.229176354651E+00
 -0.213847527595E+00
 -0.211309213019E+00
 -0.196933506162E+00
 -0.193820062016E+00
 -0.178599319872E+00
 -0.175146144470E+00
 -0.159434391177E+00
 -0.155560010352E+00
 -0.139042960048E+00
 -0.135069987071E+00
 -0.121168950883E+00
 -0.117047831998E+00
 -0.103681498781E+00
 -0.993710995021E-01
 -0.869681284652E-01
 -0.824672430267E-01
 -0.715551251308E-01
 -0.667159175000E-01
 -0.561364519730E-01
 -0.508483647858E-01
 -0.406606890309E-01
 -0.348159008678E-01
 -0.253683463560E-01
 -0.187755466661E-01
 -0.988464390396E-02
 -0.227703374934E-02
  0.652745918447E-02
  0.154381434708E-01
  0.246291519514E-01
  0.350171359304E-01
  0.453922312827E-01
  0.568307891286E-01
  0.700116340668E-01
  0.806196187337E-01
  0.989694036590E-01
  0.106104806105E+00
  0.131924498853E+00
  0.134988687674E+00
  0.193501009343E+00
  0.193652117525E+00
  0.192439121397E+00
  0.192439531769E+00
  0.135698184628E+00
  0.134261263019E+00
  0.108988922895E+00
  0.105605431876E+00
  0.862037509200E-01
  0.803123762644E-01
  0.647804609938E-01
  0.566634453764E-01
  0.439696274306E-01
  0.349300312045E-01
  0.241059172549E-01
  0.153918151747E-01
  0.555110187937E-02
 -0.230208831513E-02
 -0.118411152442E-01
 -0.187880842527E-01
 -0.286407797531E-01
 -0.348190876942E-01
 -0.452702764189E-01
 -0.508429573404E-01
 -0.616140289452E-01
 -0.667032737859E-01
 -0.777435733011E-01
 -0.824488699749E-01
 -0.949084538205E-01
 -0.993445501576E-01
 -0.112791305375E+00
 -0.117012531731E+00
 -0.131014251679E+00
 -0.135028311060E+00
 -0.151676369129E+00
 -0.155509607931E+00
 -0.171625345714E+00
 -0.175103686918E+00
 -0.190766614845E+00
 -0.193798548808E+00
 -0.208840218739E+00
 -0.211335129309E+00
 -0.227301472312E+00
 -0.225126526971E+00
 -0.241828772452E+00
 -0.240607355855E+00
 -0.250951357158E+00
 -0.251122777780E+00
 -0.259487733658E+00
 -0.261415490087E+00
 -0.257027467905E+00
 -0.261445507810E+00
 -0.237878581912E+00
 -0.244877818808E+00
 -0.214185846443E+00
 -0.223056284109E+00
 -0.187800995430E+00
 -0.198182845332E+00
 -0.160560781682E+00
 -0.172302644572E+00
 -0.135694922836E+00
 -0.148879596950E+00
 -0.112707284839E+00
 -0.127592458444E+00
 -0.860497364395E-01
 -0.102825376684E+00
 -0.547199290668E-01
 -0.734097778229E-01
 -0.173610010048E-01
 -0.376403610052E-01
  0.223099043332E-01
  0.749724047908E-03
  0.764693815758E-01
  0.550559638803E-01
  0.135051867938E+00
  0.114421443283E+00
  0.262347117738E+00
  0.249308771552E+00
  0.440861079149E+00
  0.436727295333E+00
  0.574846050198E+00
  0.575805211340E+00
  0.575805211472E+00
  0.574846050323E+00
  0.436727295616E+00
  0.440861079422E+00
  0.249308771994E+00
  0.262347118115E+00
  0.114421443671E+00
  0.135051868304E+00
  0.550559643296E-01
  0.764693819195E-01
  0.749724419213E-03
  0.223099047516E-01
 -0.376403606101E-01
 -0.173610006713E-01
 -0.734097775003E-01
 -0.547199287330E-01
 -0.102825376343E+00
 -0.860497360955E-01
 -0.127592458101E+00
 -0.112707284508E+00
 -0.148879596615E+00
 -0.135694922510E+00
 -0.172302644246E+00
 -0.160560781361E+00
 -0.198182844991E+00
 -0.187800995111E+00
 -0.223056283789E+00
 -0.214185846122E+00
 -0.244877818487E+00
 -0.237878581589E+00
 -0.261445507495E+00
 -0.257027467589E+00
 -0.261415489793E+00
 -0.259487733365E+00
 -0.251122777505E+00
 -0.250951356876E+00
 -0.240607355609E+00
 -0.241828772201E+00
 -0.225126526764E+00
 -0.227301472096E+00
 -0.211335129143E+00
 -0.208840218584E+00
 -0.193798548706E+00
 -0.190766614758E+00
 -0.175103686903E+00
 -0.171625345719E+00
 -0.155509608026E+00
 -0.151676369255E+00
 -0.135028311300E+00
 -0.131014251954E+00
 -0.117012532156E+00
 -0.112791305848E+00
 -0.993445508136E-01
 -0.949084545531E-01
 -0.824488709455E-01
 -0.777435743708E-01
 -0.667032751442E-01
 -0.616140304328E-01
 -0.508429592102E-01
 -0.452702784673E-01
 -0.348190902184E-01
 -0.286407825110E-01
 -0.187880876646E-01
 -0.118411189181E-01
 -0.230209293514E-02
  0.555109708347E-02
  0.153918089646E-01
  0.241059113315E-01
  0.349300231530E-01
  0.439696210441E-01
  0.566634361624E-01
  0.647804556069E-01
  0.803123685069E-01
  0.862037484447E-01
  0.105605429098E+00
  0.108988925906E+00
  0.134261269503E+00
  0.135698199993E+00
  0.192439569500E+00
  0.192439180412E+00
  0.191515969106E+00
  0.191481169911E+00
  0.136002278201E+00
  0.135082426477E+00
  0.110527390028E+00
  0.108523367427E+00
  0.893553279540E-01
  0.858649906460E-01
  0.698230793164E-01
  0.645540252489E-01
  0.506815154252E-01
  0.438329130087E-01
  0.316696083003E-01
  0.240290647056E-01
  0.130935609878E-01
  0.550966260440E-02
 -0.480251288795E-02
 -0.118615282535E-01
 -0.222315293654E-01
 -0.286467533649E-01
 -0.394423000778E-01
 -0.452643759671E-01
 -0.562778882577E-01
 -0.615984709450E-01
 -0.728153678980E-01
 -0.777204408752E-01
 -0.902962042475E-01
 -0.948760534811E-01
 -0.108428491795E+00
 -0.112749093703E+00
 -0.126892513508E+00
 -0.130965604277E+00
 -0.147791560596E+00
 -0.151621002555E+00
 -0.168091233415E+00
 -0.171578680505E+00
 -0.187744060587E+00
 -0.190749918249E+00
 -0.206421743205E+00
 -0.208878797627E+00
 -0.225613369969E+00
 -0.223485773675E+00
 -0.241114501664E+00
 -0.239963753652E+00
 -0.251568705786E+00
 -0.251805274033E+00
 -0.261734907986E+00
 -0.263749545003E+00
 -0.261480417749E+00
 -0.265729360687E+00
 -0.244554325201E+00
 -0.251219230780E+00
 -0.222469779178E+00
 -0.231074823588E+00
 -0.197422158853E+00
 -0.207547292021E+00
 -0.171423978687E+00
 -0.182858599331E+00
 -0.147887106404E+00
 -0.160630933562E+00
 -0.126487466897E+00
 -0.140636224904E+00
 -0.101702139963E+00
 -0.117243007255E+00
 -0.724258961249E-01
 -0.892600549181E-01
 -0.371096213117E-01
 -0.548905306547E-01
  0.529119482441E-03
 -0.178762094231E-01
  0.530277133131E-01
  0.352100211734E-01
  0.110032068701E+00
  0.933063336950E-01
  0.237542797614E+00
  0.227090663301E+00
  0.416966230910E+00
  0.413589078373E+00
  0.551297472049E+00
  0.551927165826E+00
  0.551927165968E+00
  0.551297472191E+00
  0.413589078722E+00
  0.416966231227E+00
  0.227090663755E+00
  0.237542798068E+00
  0.933063341184E-01
  0.110032069087E+00
  0.352100215655E-01
  0.530277137533E-01
 -0.178762089785E-01
  0.529119849719E-03
 -0.548905302903E-01
 -0.371096209214E-01
 -0.892600545440E-01
 -0.724258958034E-01
 -0.117243006897E+00
 -0.101702139624E+00
 -0.140636224564E+00
 -0.126487466555E+00
 -0.160630933211E+00
 -0.147887106070E+00
 -0.182858599005E+00
 -0.171423978362E+00
 -0.207547291689E+00
 -0.197422158513E+00
 -0.231074823253E+00
 -0.222469778857E+00
 -0.251219230453E+00
 -0.244554324879E+00
 -0.265729360371E+00
 -0.261480417434E+00
 -0.263749544709E+00
 -0.261734907691E+00
 -0.251805273762E+00
 -0.251568705510E+00
 -0.239963753413E+00
 -0.241114501417E+00
 -0.223485773477E+00
 -0.225613369761E+00
 -0.208878797472E+00
 -0.206421743062E+00
 -0.190749918162E+00
 -0.187744060517E+00
 -0.171578680510E+00
 -0.168091233443E+00
 -0.151621002682E+00
 -0.147791560747E+00
 -0.130965604553E+00
 -0.126892513826E+00
 -0.112749094176E+00
 -0.108428492327E+00
 -0.948760542141E-01
 -0.902962050542E-01
 -0.777204419451E-01
 -0.728153690696E-01
 -0.615984724322E-01
 -0.562778898815E-01
 -0.452643780139E-01
 -0.394423022926E-01
 -0.286467561193E-01
 -0.222315323095E-01
 -0.118615319204E-01
 -0.480251665479E-02
  0.550965782206E-02
  0.130935564017E-01
  0.240290588064E-01
  0.316696033480E-01
  0.438329066552E-01
  0.506815108514E-01
  0.645540198721E-01
  0.698230758009E-01
  0.858649880789E-01
  0.893553251742E-01
  0.108523370061E+00
  0.110527383962E+00
  0.135082440482E+00
  0.136002247877E+00
  0.191481222247E+00
  0.191515807411E+00
  0.190832516187E+00
  0.190730379456E+00
  0.136195091271E+00
  0.135477423717E+00
  0.111519451797E+00
  0.110112499380E+00
  0.913663900580E-01
  0.890299426161E-01
  0.731191431796E-01
  0.695787078955E-01
  0.554222166053E-01
  0.505116214499E-01
  0.376711104970E-01
  0.315622872307E-01
  0.197912428872E-01
  0.130318354473E-01
  0.196650874489E-02
 -0.483400888119E-02
 -0.157819023636E-01
 -0.222423059904E-01
 -0.334523407087E-01
 -0.394371990582E-01
 -0.507495884421E-01
 -0.562604647620E-01
 -0.677015912016E-01
 -0.727885057992E-01
 -0.855323808622E-01
 -0.902591301945E-01
 -0.103956888635E+00
 -0.108381274731E+00
 -0.122696994848E+00
 -0.126839130225E+00
 -0.143883355401E+00
 -0.147733962404E+00
 -0.164548717053E+00
 -0.168044588198E+00
 -0.184724629506E+00
 -0.187733435987E+00
 -0.204039697737E+00
 -0.206475006523E+00
 -0.224032221105E+00
 -0.221907877901E+00
 -0.240520467422E+00
 -0.239404558838E+00
 -0.252288979533E+00
 -0.252533067941E+00
 -0.264082201540E+00
 -0.266077952715E+00
 -0.265779773563E+00
 -0.269849143938E+00
 -0.250913946899E+00
 -0.257182667115E+00
 -0.230480888420E+00
 -0.238688717330E+00
 -0.206761886093E+00
 -0.216497593326E+00
 -0.181951580065E+00
 -0.192953522633E+00
 -0.159622316554E+00
 -0.171819228678E+00
 -0.139546596237E+00
 -0.152929451244E+00
 -0.116179282399E+00
 -0.130615784704E+00
 -0.883756745162E-01
 -0.103683573818E+00
 -0.544572529514E-01
 -0.702881697962E-01
 -0.181338863529E-01
 -0.341953615015E-01
  0.334375631980E-01
  0.181608223947E-01
  0.896485359767E-01
  0.755447373365E-01
  0.217815441457E+00
  0.209019582558E+00
  0.398463169705E+00
  0.395541132133E+00
  0.533464105344E+00
  0.533882080797E+00
  0.533882080960E+00
  0.533464105511E+00
  0.395541132449E+00
  0.398463170035E+00
  0.209019583021E+00
  0.217815441885E+00
  0.755447378290E-01
  0.896485363933E-01
  0.181608228663E-01
  0.334375635877E-01
 -0.341953610882E-01
 -0.181338859136E-01
 -0.702881694112E-01
 -0.544572525901E-01
 -0.103683573461E+00
 -0.883756741462E-01
 -0.130615784301E+00
 -0.116179282044E+00
 -0.152929450891E+00
 -0.139546595899E+00
 -0.171819228344E+00
 -0.159622316204E+00
 -0.192953522287E+00
 -0.181951579740E+00
 -0.216497592987E+00
 -0.206761885763E+00
 -0.238688717000E+00
 -0.230480888087E+00
 -0.257182666789E+00
 -0.250913946573E+00
 -0.269849143626E+00
 -0.265779773246E+00
 -0.266077952417E+00
 -0.264082201246E+00
 -0.252533067673E+00
 -0.252288979260E+00
 -0.239404558604E+00
 -0.240520467181E+00
 -0.221907877713E+00
 -0.224032220906E+00
 -0.206475006381E+00
 -0.204039697606E+00
 -0.187733435919E+00
 -0.184724629455E+00
 -0.168044588228E+00
 -0.164548717108E+00
 -0.147733962556E+00
 -0.143883355585E+00
 -0.126839130544E+00
 -0.122696995209E+00
 -0.108381275265E+00
 -0.103956889231E+00
 -0.902591310018E-01
 -0.855323817508E-01
 -0.727885069708E-01
 -0.677015924576E-01
 -0.562604663850E-01
 -0.507495901986E-01
 -0.394372012706E-01
 -0.334523430576E-01
 -0.222423089293E-01
 -0.157819053877E-01
 -0.483401263833E-02
  0.196650507487E-02
  0.130318308771E-01
  0.197912387586E-01
  0.315622822968E-01
  0.376711063117E-01