# vtk DataFile Version 3.0
MachLine results file. Generated by MachLine, USU AeroLab (c) 2022.
ASCII
DATASET POLYDATA
POINTS                1848 float
  0.000000000000E+00  0.000000000000E+00  0.000000000000E+00
  0.147665724158E+00  0.000000000000E+00 -0.234920635819E+00
  0.147665724158E+00  0.000000000000E+00  0.234920635819E+00
  0.339639574289E+00  0.339639574289E+00  0.000000000000E+00
  0.473465979099E+00  0.000000000000E+00 -0.436293870211E+00
  0.473465979099E+00  0.000000000000E+00  0.436293870211E+00
  0.487305283546E+00  0.339639574289E+00 -0.234920650721E+00
  0.487305283546E+00  0.339639574289E+00  0.234920650721E+00
  0.735364913940E+00  0.735364913940E+00  0.000000000000E+00
  0.813105583191E+00  0.339639574289E+00 -0.436293929815E+00
  0.813105583191E+00  0.339639574289E+00  0.436293929815E+00
  0.883030653000E+00  0.735364913940E+00 -0.234920680523E+00
  0.883030653000E+00  0.735364913940E+00  0.234920680523E+00
  0.944064557552E+00  0.000000000000E+00 -0.604293465614E+00
  0.944064557552E+00  0.000000000000E+00  0.604293465614E+00
  0.119528055191E+01  0.119528055191E+01  0.000000000000E+00
  0.120883107185E+01  0.735364913940E+00 -0.436293989420E+00
  0.120883107185E+01  0.735364913940E+00  0.436293989420E+00
  0.128370416164E+01  0.339639574289E+00 -0.604293525219E+00
  0.128370416164E+01  0.339639574289E+00  0.604293525219E+00
  0.134294629097E+01  0.119528055191E+01 -0.234920725226E+00
  0.134294629097E+01  0.119528055191E+01  0.234920725226E+00
  0.157641971111E+01  0.000000000000E+00 -0.760520398617E+00
  0.157641971111E+01  0.000000000000E+00  0.760520398617E+00
  0.166874670982E+01  0.119528055191E+01 -0.436294049025E+00
  0.166874670982E+01  0.119528055191E+01  0.436294049025E+00
  0.167942965031E+01  0.735364913940E+00 -0.604293584824E+00
  0.167942965031E+01  0.735364913940E+00  0.604293584824E+00
  0.172824025154E+01  0.172824025154E+01  0.000000000000E+00
  0.187590610981E+01  0.172824025154E+01 -0.234920769930E+00
  0.187590610981E+01  0.172824025154E+01  0.234920769930E+00
  0.191605937481E+01  0.339639574289E+00 -0.760520458221E+00
  0.191605937481E+01  0.339639574289E+00  0.760520458221E+00
  0.213934540749E+01  0.119528055191E+01 -0.604293704033E+00
  0.213934540749E+01  0.119528055191E+01  0.604293704033E+00
  0.220170640945E+01  0.172824025154E+01 -0.436294138432E+00
  0.220170640945E+01  0.172824025154E+01  0.436294138432E+00
  0.231178498268E+01  0.735364913940E+00 -0.760520577431E+00
  0.231178498268E+01  0.735364913940E+00  0.760520577431E+00
  0.234375929832E+01  0.234375929832E+01  0.000000000000E+00
  0.239635515213E+01  0.000000000000E+00 -0.902061045170E+00
  0.239635515213E+01  0.000000000000E+00  0.902061045170E+00
  0.249142503738E+01  0.234375929832E+01 -0.234920814633E+00
  0.249142503738E+01  0.234375929832E+01  0.234920814633E+00
  0.267230534554E+01  0.172824025154E+01 -0.604293823242E+00
  0.267230534554E+01  0.172824025154E+01  0.604293823242E+00
  0.273599505424E+01  0.339639574289E+00 -0.902061164379E+00
  0.273599505424E+01  0.339639574289E+00  0.902061164379E+00
  0.277170085907E+01  0.119528055191E+01 -0.760520696640E+00
  0.277170085907E+01  0.119528055191E+01  0.760520696640E+00
  0.281722569466E+01  0.234375929832E+01 -0.436294227839E+00
  0.281722569466E+01  0.234375929832E+01  0.436294227839E+00
  0.305185556412E+01  0.305185556412E+01  0.000000000000E+00
  0.313172078133E+01  0.735364913940E+00 -0.902061283588E+00
  0.313172078133E+01  0.735364913940E+00  0.902061283588E+00
  0.319952154160E+01  0.305185556412E+01 -0.234920859337E+00
  0.319952154160E+01  0.305185556412E+01  0.234920859337E+00
  0.328782463074E+01  0.234375929832E+01 -0.604293942451E+00
  0.328782463074E+01  0.234375929832E+01  0.604293942451E+00
  0.330466079712E+01  0.172824025154E+01 -0.760520815849E+00
  0.330466079712E+01  0.172824025154E+01  0.760520815849E+00
  0.342464399338E+01  0.000000000000E+00 -0.102348911762E+01
  0.342464399338E+01  0.000000000000E+00  0.102348911762E+01
  0.352532196045E+01  0.305185556412E+01 -0.436294317245E+00
  0.352532196045E+01  0.305185556412E+01  0.436294317245E+00
  0.359163665771E+01  0.119528055191E+01 -0.902061402798E+00
  0.359163665771E+01  0.119528055191E+01  0.902061402798E+00
  0.376428389549E+01  0.339639574289E+00 -0.102348923683E+01
  0.376428389549E+01  0.339639574289E+00  0.102348923683E+01
  0.386280250549E+01  0.386280250549E+01  0.000000000000E+00
  0.392018008232E+01  0.234375929832E+01 -0.760520994663E+00
  0.392018008232E+01  0.234375929832E+01  0.760520994663E+00
  0.399592113495E+01  0.305185556412E+01 -0.604294061661E+00
  0.399592113495E+01  0.305185556412E+01  0.604294061661E+00
  0.401046848297E+01  0.386280250549E+01 -0.234920918941E+00
  0.401046848297E+01  0.386280250549E+01  0.234920918941E+00
  0.412459707260E+01  0.172824025154E+01 -0.902061522007E+00
  0.412459707260E+01  0.172824025154E+01  0.902061522007E+00
  0.416000986099E+01  0.735364913940E+00 -0.102348935604E+01
  0.416000986099E+01  0.735364913940E+00  0.102348935604E+01
  0.433626890182E+01  0.386280250549E+01 -0.436294436455E+00
  0.433626890182E+01  0.386280250549E+01  0.436294436455E+00
  0.461992597580E+01  0.119528055191E+01 -0.102348947525E+01
  0.461992597580E+01  0.119528055191E+01  0.102348947525E+01
  0.462827682495E+01  0.305185556412E+01 -0.760521173477E+00
  0.462827682495E+01  0.305185556412E+01  0.760521173477E+00
  0.466872262955E+01  0.000000000000E+00 -0.111146688461E+01
  0.466872262955E+01  0.000000000000E+00  0.111146688461E+01
  0.474011659622E+01  0.234375929832E+01 -0.902061700821E+00
  0.474011659622E+01  0.234375929832E+01  0.902061700821E+00
  0.478677463531E+01  0.478677463531E+01  0.000000000000E+00
  0.480686807632E+01  0.386280250549E+01 -0.604294240475E+00
  0.480686807632E+01  0.386280250549E+01  0.604294240475E+00
  0.493444061279E+01  0.478677463531E+01 -0.234920993447E+00
  0.493444061279E+01  0.478677463531E+01  0.234920993447E+00
  0.500836277008E+01  0.339639574289E+00 -0.111146700382E+01
  0.500836277008E+01  0.339639574289E+00  0.111146700382E+01
  0.515288639069E+01  0.172824025154E+01 -0.102348971367E+01
  0.515288639069E+01  0.172824025154E+01  0.102348971367E+01
  0.526024150848E+01  0.478677463531E+01 -0.436294555664E+00
  0.526024150848E+01  0.478677463531E+01  0.436294555664E+00
  0.540408849716E+01  0.735364913940E+00 -0.111146712303E+01
  0.540408849716E+01  0.735364913940E+00  0.111146712303E+01
  0.543922424316E+01  0.386280250549E+01 -0.760521352291E+00
  0.543922424316E+01  0.386280250549E+01  0.760521352291E+00
  0.544821310043E+01  0.305185556412E+01 -0.902061939240E+00
  0.544821310043E+01  0.305185556412E+01  0.902061939240E+00
  0.573084068298E+01  0.478677463531E+01 -0.604294419289E+00
  0.573084068298E+01  0.478677463531E+01  0.604294419289E+00
  0.576840591431E+01  0.234375929832E+01 -0.102348983288E+01
  0.576840591431E+01  0.234375929832E+01  0.102348983288E+01
  0.583337688446E+01  0.583337688446E+01  0.000000000000E+00
  0.586400508881E+01  0.119528055191E+01 -0.111146736145E+01
  0.586400508881E+01  0.119528055191E+01  0.111146736145E+01
  0.598104286194E+01  0.583337688446E+01 -0.234921067953E+00
  0.598104286194E+01  0.583337688446E+01  0.234921067953E+00
  0.611307668686E+01  0.000000000000E+00 -0.114008128643E+01
  0.611307668686E+01  0.000000000000E+00  0.114008128643E+01
  0.625916051865E+01  0.386280250549E+01 -0.902062177658E+00
  0.625916051865E+01  0.386280250549E+01  0.902062177658E+00
  0.630684375763E+01  0.583337688446E+01 -0.436294704676E+00
  0.630684375763E+01  0.583337688446E+01  0.436294704676E+00
  0.636319684982E+01  0.478677463531E+01 -0.760521590710E+00
  0.636319684982E+01  0.478677463531E+01  0.760521590710E+00
  0.639696550369E+01  0.172824025154E+01 -0.111146748066E+01
  0.639696550369E+01  0.172824025154E+01  0.111146748066E+01
  0.645271682739E+01  0.339639574289E+00 -0.114008140564E+01
  0.645271682739E+01  0.339639574289E+00  0.114008140564E+01
  0.647650289536E+01  0.305185556412E+01 -0.102349007130E+01
  0.647650289536E+01  0.305185556412E+01  0.102349007130E+01
  0.677744340897E+01  0.583337688446E+01 -0.604294598103E+00
  0.677744340897E+01  0.583337688446E+01  0.604294598103E+00
  0.684844303131E+01  0.735364913940E+00 -0.114008152485E+01
  0.684844303131E+01  0.735364913940E+00  0.114008152485E+01
  0.701104879379E+01  0.701104879379E+01  0.000000000000E+00
  0.701248550415E+01  0.234375929832E+01 -0.111146771908E+01
  0.701248550415E+01  0.234375929832E+01  0.111146771908E+01
  0.715871477127E+01  0.701104879379E+01 -0.234921157360E+00
  0.715871477127E+01  0.701104879379E+01  0.234921157360E+00
  0.718313360214E+01  0.478677463531E+01 -0.902062416077E+00
  0.718313360214E+01  0.478677463531E+01  0.902062416077E+00
  0.728745079041E+01  0.386280250549E+01 -0.102349042892E+01
  0.728745079041E+01  0.386280250549E+01  0.102349042892E+01
  0.730835962296E+01  0.119528055191E+01 -0.114008176327E+01
  0.730835962296E+01  0.119528055191E+01  0.114008176327E+01
  0.740979957581E+01  0.583337688446E+01 -0.760521829128E+00
  0.740979957581E+01  0.583337688446E+01  0.760521829128E+00
  0.748451566696E+01  0.701104879379E+01 -0.436294883490E+00
  0.748451566696E+01  0.701104879379E+01  0.436294883490E+00
  0.771254587173E+01  0.000000000000E+00 -0.108925735950E+01
  0.771254587173E+01  0.000000000000E+00  0.108925735950E+01
  0.772058296204E+01  0.305185556412E+01 -0.111146795750E+01
  0.772058296204E+01  0.305185556412E+01  0.111146795750E+01
  0.784132003784E+01  0.172824025154E+01 -0.114008188248E+01
  0.784132003784E+01  0.172824025154E+01  0.114008188248E+01
  0.795511531830E+01  0.701104879379E+01 -0.604294836521E+00
  0.795511531830E+01  0.701104879379E+01  0.604294836521E+00
  0.805218601227E+01  0.339639574289E+00 -0.108925747871E+01
  0.805218601227E+01  0.339639574289E+00  0.108925747871E+01
  0.821142387390E+01  0.478677463531E+01 -0.102349066734E+01
  0.821142387390E+01  0.478677463531E+01  0.102349066734E+01
[...]
CELL_DATA                3576
SCALARS C_p_inc float 1
LOOKUP_TABLE default
  0.164261371134E+00
  0.119431036379E+00
  0.839322430026E-01
  0.484543896823E-01
  0.347440082653E-01
  0.125561381903E-01
 -0.197232936686E-02
 -0.167745885728E-01
 -0.334832603481E-01
 -0.447853276835E-01
 -0.640757519920E-01
 -0.734929541390E-01
 -0.960415177183E-01
 -0.104640121071E+00
 -0.130921411979E+00
 -0.139244381135E+00
 -0.168768610581E+00
 -0.176943042746E+00
 -0.205043956103E+00
 -0.211889353636E+00
 -0.239921531929E+00
 -0.234846658002E+00
 -0.253630275672E+00
 -0.253116030940E+00
 -0.226985256335E+00
 -0.238885454691E+00
 -0.173609143533E+00
 -0.193146840500E+00
 -0.114875281872E+00
 -0.140257280476E+00
 -0.494263292688E-01
 -0.867022389967E-01
  0.373225559508E-01
 -0.216678366225E-01
  0.159936315190E+00
  0.679598297968E-01
  0.382241167494E+00
  0.270500032727E+00
  0.670060096401E+00
  0.660433431168E+00
  0.660433777321E+00
  0.670060333625E+00
  0.270500653142E+00
  0.382241616918E+00
  0.679604429741E-01
  0.159936835001E+00
 -0.216672342292E-01
  0.373231037957E-01
 -0.867016207727E-01
 -0.494257481947E-01
 -0.140256616294E+00
 -0.114874650383E+00
 -0.193146103330E+00
 -0.173608437351E+00
 -0.238884610098E+00
 -0.226984446173E+00
 -0.253115056041E+00
 -0.253629332241E+00
 -0.234845522392E+00
 -0.239920433819E+00
 -0.211888047474E+00
 -0.205042601806E+00
 -0.176941452204E+00
 -0.168766948641E+00
 -0.139242393543E+00
 -0.130919311155E+00
 -0.104637570805E+00
 -0.960387813254E-01
 -0.734896059936E-01
 -0.640720826637E-01
 -0.447808416240E-01
 -0.334781925477E-01
 -0.167684304002E-01
 -0.196505335495E-02
  0.125649980023E-01
  0.347551631316E-01
  0.484692771788E-01
  0.839502130280E-01
  0.119476629116E+00
  0.164285167031E+00
  0.164518632714E+00
  0.161393718581E+00
  0.964026043761E-01
  0.833960629632E-01
  0.541976412082E-01
  0.346248324321E-01
  0.147290920772E-01
 -0.200552951400E-02
 -0.205514466493E-01
 -0.334853368848E-01
 -0.535498259721E-01
 -0.640558267555E-01
 -0.868858611398E-01
 -0.959979751582E-01
 -0.122599817175E+00
 -0.130852829284E+00
 -0.161319061739E+00
 -0.168695301029E+00
 -0.199391925760E+00
 -0.205071497970E+00
 -0.235538498445E+00
 -0.231943583837E+00
 -0.253967186077E+00
 -0.255931298455E+00
 -0.239088918535E+00
 -0.250911270782E+00
 -0.192602209178E+00
 -0.212021745841E+00
 -0.139191467403E+00
 -0.164598782580E+00
 -0.848336543932E-01
 -0.117809246573E+00
 -0.189918818510E-01
 -0.607655348131E-01
  0.687112619273E-01
  0.208570286480E-01
  0.241078636103E+00
  0.204867131187E+00
  0.531308697939E+00
  0.529464669466E+00
  0.529465039647E+00
  0.531309028951E+00
  0.204867810824E+00
  0.241079205256E+00
  0.208577180425E-01
  0.687118523878E-01
 -0.607648725260E-01
 -0.189912883622E-01
 -0.117808576311E+00
 -0.848330398431E-01
 -0.164598075079E+00
 -0.139190805360E+00
 -0.212020965300E+00
 -0.192601473803E+00
 -0.250910383440E+00
 -0.239088075690E+00
 -0.255930278776E+00
 -0.253966212352E+00
 -0.231942398862E+00
 -0.235537363911E+00
 -0.205070141065E+00
 -0.199390510593E+00
 -0.168693636897E+00
 -0.161317310898E+00
 -0.130850726814E+00
 -0.122597578510E+00
 -0.959952378733E-01
 -0.868828971403E-01
 -0.640521578317E-01
 -0.535457634113E-01
 -0.334802722154E-01
 -0.205457055085E-01
 -0.199826439819E-02
  0.147373659048E-01
  0.346359420451E-01
  0.542091485427E-01
  0.834137932059E-01
  0.964172010509E-01
  0.161417013611E+00
  0.164535682979E+00
  0.163952128710E+00
  0.162904074187E+00
  0.100217465275E+00
  0.956221796405E-01
  0.640592648217E-01
  0.538497909255E-01
  0.287471187935E-01
  0.146182853533E-01
 -0.703530168189E-02
 -0.205722736731E-01
 -0.420586395599E-01
 -0.535249590368E-01
 -0.770384965102E-01
 -0.868238917630E-01
 -0.113940762092E+00
 -0.122502775289E+00
 -0.153873630290E+00
 -0.161217054753E+00
 -0.193939594795E+00
 -0.199419469772E+00
 -0.232972692172E+00
 -0.229673943960E+00
 -0.256763694673E+00
 -0.259001054732E+00
 -0.250614086771E+00
 -0.261265102369E+00
 -0.210657136870E+00
 -0.228895172830E+00
 -0.162625622746E+00
 -0.186475282164E+00
 -0.115417729699E+00
 -0.144332267869E+00
 -0.588659397343E-01
 -0.919193613705E-01
  0.193028720987E-01
 -0.147192099792E-01
  0.188187277823E+00
  0.164454990774E+00
  0.483985662835E+00
  0.482298275192E+00
  0.482298697175E+00
  0.483986052132E+00
  0.164455756083E+00
  0.188187940017E+00
 -0.147184418439E-01
  0.193035433631E-01
 -0.919186310251E-01
 -0.588652890942E-01
 -0.144331539119E+00
 -0.115417067204E+00
 -0.186474523829E+00
 -0.162624920770E+00
 -0.228894341348E+00
 -0.210656361351E+00
 -0.261264164301E+00
 -0.250613204177E+00
 -0.258999982729E+00
 -0.256762678977E+00
 -0.229672699093E+00
 -0.232971510410E+00
 -0.199418049359E+00
 -0.193938103408E+00
 -0.161215299689E+00
 -0.153871771885E+00
 -0.122500533632E+00
 -0.113938358697E+00
 -0.868209264656E-01
 -0.770352694921E-01
 -0.535208983851E-01
 -0.420541593315E-01
 -0.205665425247E-01
 -0.702898907866E-02
  0.146265254608E-01
  0.287558878667E-01
  0.538612095735E-01
  0.640716521043E-01
  0.956367174372E-01
  0.100238594830E+00
  0.162921809622E+00
  0.164002559991E+00
  0.163743343800E+00
  0.162833034795E+00
  0.102186510668E+00
  0.995639912992E-01
  0.690042590289E-01
  0.636449070732E-01
  0.377317044243E-01
  0.285446232321E-01
  0.470416873210E-02
 -0.709142030880E-02
 -0.303738796611E-01
 -0.420344368896E-01
 -0.666411987556E-01
 -0.769632170599E-01
 -0.104898070240E+00
 -0.113829573949E+00
 -0.146287444265E+00
 -0.153773090008E+00
 -0.188480648186E+00
 -0.194003899996E+00
 -0.230889874119E+00
 -0.227512997651E+00
 -0.259905311662E+00
 -0.261838215694E+00
 -0.261053832547E+00
 -0.270345947157E+00
 -0.227550221442E+00
 -0.243914944843E+00
 -0.184527042408E+00
 -0.206014659147E+00
 -0.142211917728E+00
 -0.167410584121E+00
 -0.905542340766E-01
 -0.117789373850E+00
 -0.161556841324E-01
 -0.426571934650E-01
  0.153501560549E+00
  0.135600782306E+00
  0.455395229285E+00
  0.453736904126E+00
  0.453737383569E+00
  0.455395674966E+00
  0.135601641848E+00
  0.153502317477E+00
 -0.426563376407E-01
 -0.161549299400E-01
 -0.117788568654E+00
 -0.905535150937E-01
 -0.167409790519E+00
 -0.142211197817E+00
 -0.206013838692E+00
 -0.184526291282E+00
 -0.243914056202E+00
 -0.227549396591E+00
 -0.270344948655E+00
 -0.261052900908E+00
 -0.261837079636E+00
 -0.259904245537E+00
 -0.227511680675E+00
 -0.230888634197E+00
 -0.194002400998E+00
 -0.188479067595E+00
 -0.153771225228E+00
 -0.146285461821E+00
 -0.113827165928E+00
 -0.104895485364E+00
 -0.769599883612E-01
 -0.666377082309E-01
 -0.420299614950E-01
 -0.303690670735E-01
 -0.708512869502E-02
  0.471081417928E-02
  0.285533382408E-01
  0.377411171945E-01
  0.636571878270E-01
  0.690188106462E-01
  0.995847958873E-01
  0.102211826533E+00
  0.162881343377E+00
  0.163795659860E+00
  0.163878566023E+00
  0.162929824609E+00
  0.103651683909E+00
  0.101677361297E+00
  0.720944463349E-01
  0.686410146093E-01
  0.433081276976E-01
  0.375027781485E-01
  0.132984956660E-01
  0.460814817788E-02
 -0.198952768194E-01
 -0.303630128372E-01
 -0.562330909458E-01
 -0.665617722970E-01
 -0.955870817962E-01
 -0.104782574318E+00
 -0.138513745336E+00
 -0.146198703197E+00
 -0.182898955403E+00
 -0.188582725392E+00
 -0.228875787528E+00
 -0.225187249564E+00
 -0.262873030248E+00
 -0.264148367944E+00
 -0.270363157984E+00
 -0.278092182628E+00
 -0.242839474175E+00
 -0.256762445701E+00
 -0.204341925840E+00
 -0.222919474069E+00
 -0.165647888557E+00
 -0.187280240546E+00
 -0.116746037339E+00
 -0.139567358562E+00
 -0.437558442681E-01
 -0.653788464445E-01
  0.128072498292E+00
  0.113600883451E+00
  0.436098630984E+00
  0.434484253582E+00
  0.434484795256E+00
  0.436099135286E+00
  0.113601848488E+00
  0.128073354230E+00
 -0.653778952795E-01
 -0.437549993740E-01
 -0.139566469058E+00
 -0.116745242405E+00
 -0.187279372589E+00
 -0.165647103946E+00
 -0.222918584525E+00
 -0.204341113433E+00
 -0.256761487955E+00
 -0.242838593163E+00
 -0.278091114708E+00
 -0.270362167383E+00
 -0.264147158968E+00
 -0.262871901219E+00
 -0.225185848112E+00
 -0.228874476192E+00
 -0.188581134768E+00
 -0.182897273588E+00
 -0.146196712301E+00
 -0.138511630143E+00
 -0.104779983532E+00
 -0.955843283536E-01
 -0.665582806596E-01
 -0.562294245217E-01
 -0.303582099370E-01
 -0.198903837512E-01
  0.461476114852E-02
  0.133050095461E-01
  0.375121084686E-01
  0.433167853136E-01
  0.686553334060E-01
  0.721055476842E-01
  0.101702002939E+00
  0.103665051583E+00
  0.162980083522E+00
  0.163893231337E+00
  0.164252970152E+00
  0.163279776099E+00
  0.104935169212E+00
  0.103263227419E+00
  0.743769624885E-01
  0.718031758015E-01
  0.470974369718E-01
  0.431033168619E-01
  0.192527158641E-01
  0.131871011311E-01
 -0.116169810715E-01
 -0.199055522791E-01
 -0.467257582651E-01
 -0.561605254775E-01
 -0.863791198271E-01
 -0.954737331806E-01
 -0.130615012108E+00
 -0.138436799607E+00
 -0.177115957028E+00
 -0.183024056729E+00
 -0.226655779525E+00
 -0.222487460291E+00
 -0.265324558776E+00
 -0.265663082340E+00
 -0.278377795039E+00
 -0.284345796495E+00
 -0.256065732892E+00
 -0.267358312720E+00
 -0.221646831497E+00
 -0.237063280375E+00
 -0.185906462542E+00
 -0.204003442817E+00
 -0.138757064983E+00
 -0.157790514446E+00
 -0.661465869577E-01
 -0.840697194754E-01
  0.108374357441E+00
  0.963212079388E-01
  0.422515378202E+00
  0.420979315965E+00
  0.420979926928E+00
  0.422515946000E+00
  0.963222884927E-01
  0.108375322208E+00
 -0.840686608458E-01
 -0.661456442188E-01
 -0.157789531489E+00
 -0.138756184514E+00
 -0.204002490670E+00
 -0.185905603240E+00
 -0.237062312094E+00
 -0.221645950202E+00
 -0.267357279375E+00
 -0.256064783272E+00
 -0.284344649112E+00
 -0.278376735314E+00
 -0.265661789714E+00
 -0.265323357154E+00
 -0.222485968476E+00
 -0.226654383146E+00
 -0.183022362502E+00
 -0.177114168862E+00
 -0.138434674156E+00
 -0.130612781606E+00
 -0.954709732246E-01
 -0.863762780276E-01
 -0.561568598021E-01
 -0.467221511552E-01
 -0.199006737871E-01
 -0.116125647938E-01
  0.131935740080E-01
  0.192576646578E-01
  0.431118764708E-01
  0.471018991201E-01
  0.718140812854E-01
  0.743787176159E-01
  0.103276338886E+00
  0.104929282676E+00
  0.163294692712E+00
  0.164224136252E+00
  0.164755576408E+00
  0.163814267592E+00
  0.106111068961E+00
  0.104644474564E+00
  0.762229962941E-01
  0.741534864556E-01
  0.499075919549E-01
  0.469321022631E-01
  0.234872640267E-01
  0.191501413132E-01
 -0.550489685277E-02
 -0.116426294533E-01
 -0.388825059175E-01
 -0.466702014562E-01
 -0.778969438833E-01
 -0.862747365408E-01
 -0.122839879215E+00
 -0.130545669638E+00
 -0.171147483811E+00
 -0.177244061772E+00
 -0.224016296076E+00
 -0.219302649104E+00
 -0.266973978994E+00
 -0.266211971526E+00
 -0.284910946733E+00
 -0.289005658805E+00
 -0.267065629470E+00
 -0.275713084789E+00
 -0.236227414158E+00
 -0.248448817185E+00
 -0.203020963001E+00
 -0.217637285888E+00
 -0.157180505964E+00
 -0.172707731416E+00
 -0.845603200330E-01
 -0.992858074484E-01
  0.927730801710E-01
  0.827387737944E-01
  0.412933848845E+00
  0.411523084952E+00
  0.411523772287E+00
  0.412934486506E+00
  0.827399812960E-01
  0.927741627079E-01
 -0.992846301313E-01
 -0.845592677046E-01
 -0.172706643249E+00
 -0.157179530605E+00
 -0.217636241191E+00
 -0.203020018636E+00
 -0.248447762455E+00
 -0.236226453500E+00
 -0.275711965095E+00
 -0.267064603937E+00
 -0.289004425687E+00
 -0.284909807252E+00
 -0.266210590021E+00
 -0.266972692647E+00
 -0.219301067240E+00
 -0.224014806716E+00
 -0.177242259474E+00
 -0.171145608477E+00
 -0.130543428034E+00
 -0.122837600041E+00
 -0.862718892541E-01
 -0.778941968364E-01
 -0.466665979483E-01
 -0.388793786934E-01
 -0.116382291091E-01
 -0.550181578788E-02
  0.191550619860E-01
  0.234893808773E-01
  0.469365489871E-01
  0.499075155500E-01
  0.741553492778E-01
  0.762194785185E-01
  0.104639175759E+00
  0.106102239358E+00
  0.163788090448E+00
  0.164736270187E+00
  0.165334408403E+00
  0.164440626034E+00
  0.107199184966E+00
  0.105898780231E+00
  0.777802469085E-01
  0.760572901429E-01
  0.521106288894E-01
  0.497817380010E-01
  0.266312900699E-01
  0.234038088245E-01
 -0.103751334102E-02
 -0.553477262468E-02
 -0.328628539765E-01
 -0.388467860920E-01
 -0.707261209943E-01
 -0.778096538963E-01
 -0.115627201764E+00
 -0.122775694950E+00
 -0.165168508822E+00
 -0.171260075528E+00
 -0.220831704245E+00
 -0.215651939509E+00
 -0.267622854766E+00
 -0.265742925927E+00
 -0.289824445524E+00
 -0.292044593856E+00
 -0.275796806994E+00
 -0.281884602668E+00
 -0.248029048583E+00
 -0.257186913264E+00
 -0.217024285541E+00
 -0.228309686902E+00
 -0.172285856713E+00
 -0.184503116487E+00
 -0.995652322340E-01
 -0.111329534814E+00
  0.804686395576E-01
  0.723103227626E-01
  0.406399342749E+00
  0.405164996266E+00
  0.405165767743E+00
  0.406400057335E+00
  0.723116703353E-01
  0.804698511956E-01
 -0.111328225390E+00
 -0.995640592102E-01
 -0.184501916966E+00
 -0.172284774637E+00
 -0.228308540085E+00
 -0.217023247444E+00
 -0.257185765383E+00
 -0.248028000522E+00
 -0.281883393955E+00
 -0.275795693856E+00
 -0.292043271069E+00
 -0.289823218143E+00
 -0.265741460765E+00
 -0.267621475807E+00
 -0.215650287615E+00
 -0.220830118554E+00
 -0.171258185448E+00
 -0.165166600481E+00
 -0.122773405880E+00
 -0.115625005899E+00
 -0.778069046788E-01
 -0.707237397880E-01
 -0.388436653226E-01
 -0.328606186872E-01
 -0.553170054704E-02
 -0.103597895405E-02
  0.234059396672E-01
  0.266316693233E-01
  0.497817584417E-01
  0.521098758941E-01
  0.760540475177E-01
  0.777790308798E-01
  0.105890515085E+00
  0.107199432522E+00
  0.164422328799E+00
  0.165343060441E+00
  0.165978000390E+00
  0.165113985555E+00
  0.108207222224E+00
  0.107048543615E+00
  0.791194252647E-01
  0.776614189801E-01
  0.538929502422E-01
  0.520189796449E-01
  0.290456687643E-01
  0.265683021322E-01
  0.227610633562E-02
 -0.106430903479E-02
 -0.283840457612E-01
 -0.328426121645E-01
 -0.650855281374E-01
 -0.706609907636E-01
 -0.109426543482E+00
 -0.115570552616E+00
 -0.159514252294E+00
 -0.165254367095E+00
 -0.217103757514E+00
 -0.211714945212E+00
 -0.267188898779E+00
 -0.264347351946E+00
 -0.293056222601E+00
 -0.293546230550E+00
 -0.282283462534E+00
 -0.286004916719E+00
 -0.257127597001E+00
 -0.263462674410E+00
 -0.228023214424E+00
 -0.236228856745E+00
 -0.184257940034E+00
 -0.193401117643E+00
 -0.111463663217E+00
 -0.120459063617E+00
  0.710140130212E-01
  0.646515779695E-01
  0.402267529047E+00
  0.401251488655E+00
  0.401252350911E+00
  0.402268327757E+00
  0.646530766426E-01
  0.710153662479E-01
 -0.120457612762E+00
 -0.111462356332E+00
 -0.193399799521E+00
 -0.184256744896E+00
 -0.236227604104E+00
 -0.228022072590E+00
 -0.263461429867E+00
 -0.257126453920E+00
 -0.286003619745E+00
 -0.282282257798E+00
 -0.293544828450E+00
 -0.293054901307E+00
 -0.264345823326E+00
 -0.267187429284E+00
 -0.211713272244E+00
 -0.217102091632E+00
 -0.165252445592E+00
 -0.159512405106E+00
 -0.115568351028E+00
 -0.109424597333E+00
 -0.706586128296E-01
 -0.650836925594E-01
 -0.328403847056E-01
 -0.283826148342E-01
 -0.106277174625E-02
  0.227696588051E-02
  0.265687183097E-01
  0.290459892607E-01
  0.520183069169E-01
  0.538925767579E-01
  0.776602756556E-01
  0.791172230679E-01
  0.107048625404E+00
  0.108199182523E+00
  0.165121155103E+00
  0.165949348498E+00
  0.166559749138E+00
  0.165825118014E+00
  0.109102766055E+00
  0.108102779059E+00
  0.802656760393E-01
  0.790367577354E-01
  0.553542522676E-01
  0.538286796904E-01
  0.309395796080E-01
  0.290006200769E-01
  0.477829618780E-02
  0.225509564439E-02
 -0.250660210141E-01
 -0.283733852437E-01
 -0.608333049145E-01
 -0.650414419352E-01
 -0.104458984067E+00
 -0.109381815219E+00
 -0.154551045207E+00
 -0.159572496690E+00
 -0.213006007284E+00
 -0.207808615522E+00
 -0.265740705301E+00
 -0.262272891413E+00
 -0.294661121989E+00
 -0.293731004385E+00
 -0.286632150954E+00
 -0.288308510848E+00
 -0.263686266695E+00
 -0.267541071701E+00
 -0.236209838772E+00
 -0.241680041380E+00
 -0.193312991585E+00
 -0.199695549535E+00
 -0.120505007265E+00
 -0.126973717658E+00
  0.640725707292E-01
  0.593936531365E-01
  0.400015397691E+00
  0.399239350211E+00
  0.399240307635E+00
  0.400016286469E+00
  0.593953108661E-01
  0.640740761512E-01
 -0.126972124259E+00
 -0.120503557390E+00
 -0.199694110198E+00
 -0.193311676078E+00
 -0.241678682195E+00
 -0.236208589082E+00
 -0.267539739443E+00
 -0.263685024108E+00
 -0.288307137551E+00
 -0.286630853596E+00
 -0.293729544917E+00
 -0.294659714577E+00
 -0.262271343762E+00
 -0.265739162536E+00
 -0.207806992667E+00
 -0.213004308357E+00
 -0.159570640937E+00
 -0.154549362983E+00
 -0.109379870019E+00
 -0.104457364660E+00
 -0.650396146327E-01
 -0.608318878523E-01
 -0.283719606086E-01
 -0.250648312491E-01
  0.225596297791E-02
  0.477941717921E-02
  0.290009701925E-01
  0.309410191917E-01
  0.538283748848E-01
  0.553569472708E-01
  0.790347590780E-01
  0.802718147585E-01
  0.108095448076E+00
  0.109117793194E+00
  0.165799423965E+00
  0.166601074167E+00
  0.167142967298E+00
  0.166460348408E+00
  0.109905492940E+00
  0.109033293271E+00
  0.812467061755E-01
  0.802101193112E-01
  0.565575335044E-01
  0.553107298633E-01
  0.324426408531E-01
  0.309087050865E-01
  0.669475769037E-02
  0.476312491434E-02
 -0.225924250687E-01
 -0.250606136415E-01
 -0.576811087642E-01
 -0.608053881760E-01
 -0.100667130255E+00
 -0.104427785692E+00
 -0.150494158992E+00
 -0.154588359060E+00
 -0.208874977959E+00
 -0.204266418631E+00
 -0.263522038490E+00
 -0.259878956650E+00
 -0.294843968690E+00
 -0.292950377411E+00
 -0.289060867261E+00
 -0.289145217346E+00
 -0.267956076665E+00
 -0.269780742434E+00
 -0.241857894549E+00
 -0.245031333561E+00
 -0.199734461270E+00
 -0.203754808935E+00
 -0.126974668407E+00
 -0.131237427674E+00
  0.593108672825E-01
  0.561384104339E-01
  0.399174051782E+00
  0.398635788607E+00
  0.398636841197E+00
  0.399175033951E+00
  0.561402222487E-01
  0.593125318366E-01
 -0.131235691924E+00
 -0.126973074667E+00
 -0.203753256010E+00
 -0.199733022727E+00
 -0.245029884978E+00
 -0.241856535505E+00
 -0.269779336848E+00
 -0.267954742419E+00
 -0.289143793789E+00
 -0.289059487955E+00
 -0.292948901203E+00
 -0.294842495477E+00
 -0.259877446544E+00
 -0.263520466309E+00
 -0.204264909773E+00
 -0.208873321008E+00
 -0.154586675029E+00
 -0.150492676105E+00
 -0.104426172880E+00
 -0.100665738133E+00
 -0.608039798953E-01
 -0.576797607280E-01
 -0.250594272887E-01
 -0.225908781323E-01
  0.476425169848E-02
  0.669700857197E-02
  0.309101617334E-01
  0.324463578266E-01
  0.553134424249E-01
  0.565636952156E-01
  0.802161907583E-01
  0.812568657698E-01
  0.109047831637E+00
  0.109923317863E+00
  0.166499171493E+00
  0.167179642558E+00
  0.167697866242E+00
  0.167078991394E+00
  0.110616747989E+00
  0.109860582848E+00
  0.820844157717E-01
  0.812105630125E-01
  0.575514028986E-01
  0.565290113300E-01
  0.336439548044E-01
  0.324222112347E-01
  0.817812147228E-02
  0.668439268293E-02
 -0.207315551501E-01
 -0.225897245948E-01
 -0.553489702020E-01
 -0.576641300725E-01
 -0.978426619738E-01
 -0.100647488719E+00
 -0.147346367149E+00
 -0.150518465698E+00
 -0.205087313377E+00
 -0.201295746916E+00
 -0.260916857791E+00
 -0.257520556151E+00
 -0.293963191836E+00
 -0.291623165898E+00
 -0.289917790818E+00
 -0.288952015203E+00
 -0.270291264731E+00
 -0.270625253132E+00
 -0.245329819683E+00
 -0.246729441206E+00
 -0.203882369494E+00
 -0.206017626225E+00
 -0.131221600985E+00
 -0.133678681685E+00
  0.563651743111E-01
  0.544557327894E-01
  0.399314622449E+00
  0.398989766825E+00
  0.398990906798E+00
  0.399315696390E+00
  0.544576869255E-01
  0.563669924051E-01
 -0.133676827628E+00
 -0.131219863891E+00
 -0.206015980269E+00
 -0.203880815307E+00
 -0.246727925155E+00
 -0.245328368124E+00
 -0.270623804507E+00
 -0.270289852958E+00
 -0.288950580264E+00
 -0.289916355033E+00
 -0.291621718031E+00
 -0.293961694302E+00
 -0.257519126202E+00
 -0.260915317570E+00
 -0.201294368124E+00
 -0.205085771718E+00
 -0.150516985826E+00
 -0.147345026837E+00
 -0.100646103034E+00
 -0.978413276614E-01
 -0.576627859399E-01
 -0.553474901424E-01
 -0.225881783545E-01
 -0.207297148646E-01