# vtk DataFile Version 3.0
MachLine results file. Generated by MachLine, USU AeroLab (c) 2022.
ASCII
DATASET POLYDATA
POINTS                  40 float
  0.457662315369E+02  0.267660694122E+02  0.000000000000E+00
  0.100000000000E+05  0.267660694122E+02  0.000000000000E+00
  0.412340698242E+02  0.222339305878E+02  0.000000000000E+00
  0.100000000000E+05  0.222339305878E+02  0.000000000000E+00
  0.501681861877E+02  0.311679935455E+02  0.000000000000E+00
  0.100000000000E+05  0.311679935455E+02  0.000000000000E+00
  0.542080955505E+02  0.352078781128E+02  0.000000000000E+00
  0.100000000000E+05  0.352078781128E+02  0.000000000000E+00
  0.197579002380E+02  0.757896304131E+00  0.000000000000E+00
  0.100000000000E+05  0.757896304131E+00  0.000000000000E+00
  0.190000000000E+02  0.000000000000E+00  0.000000000000E+00
  0.100000000000E+05  0.000000000000E+00  0.000000000000E+00
  0.207889842987E+02  0.178897356987E+01  0.000000000000E+00
  0.100000000000E+05  0.178897356987E+01  0.000000000000E+00
  0.221728172302E+02  0.317279767990E+01  0.000000000000E+00
  0.100000000000E+05  0.317279767990E+01  0.000000000000E+00
  0.577274017334E+02  0.387271614075E+02  0.000000000000E+00
  0.100000000000E+05  0.387271614075E+02  0.000000000000E+00
  0.606566314697E+02  0.416563758850E+02  0.000000000000E+00
  0.100000000000E+05  0.416563758850E+02  0.000000000000E+00
  0.672424011230E+02  0.482421035767E+02  0.000000000000E+00
  0.100000000000E+05  0.482421035767E+02  0.000000000000E+00
  0.662113189697E+02  0.472110252380E+02  0.000000000000E+00
  0.100000000000E+05  0.472110252380E+02  0.000000000000E+00
  0.680002975464E+02  0.490000000000E+02  0.000000000000E+00
  0.100000000000E+05  0.490000000000E+02  0.000000000000E+00
  0.630036544800E+02  0.440033836365E+02  0.000000000000E+00
  0.100000000000E+05  0.440033836365E+02  0.000000000000E+00
  0.648274841309E+02  0.458272018433E+02  0.000000000000E+00
  0.100000000000E+05  0.458272018433E+02  0.000000000000E+00
  0.239966468811E+02  0.499661636353E+01  0.000000000000E+00
  0.100000000000E+05  0.499661636353E+01  0.000000000000E+00
  0.263436698914E+02  0.734362459183E+01  0.000000000000E+00
  0.100000000000E+05  0.734362459183E+01  0.000000000000E+00
  0.292729015350E+02  0.102728376389E+02  0.000000000000E+00
  0.100000000000E+05  0.102728376389E+02  0.000000000000E+00
  0.327922058105E+02  0.137921218872E+02  0.000000000000E+00
  0.100000000000E+05  0.137921218872E+02  0.000000000000E+00
  0.368321151733E+02  0.178320064545E+02  0.000000000000E+00
  0.100000000000E+05  0.178320064545E+02  0.000000000000E+00
POLYGONS                  38                 152
3                   8                   9                  11
3                   8                  11                  10
3                  12                  13                   9
3                  12                   9                   8
3                  14                  15                  13
3                  14                  13                  12
3                  30                  31                  15
3                  30                  15                  14
3                  32                  33                  31
3                  32                  31                  30
3                  34                  35                  33
3                  34                  33                  32
3                  36                  37                  35
3                  36                  35                  34
3                  38                  39                  37
3                  38                  37                  36
3                   2                   3                  39
3                   2                  39                  38
3                   0                   1                   3
3                   0                   3                   2
3                   4                   5                   1
3                   4                   1                   0
3                   6                   7                   5
3                   6                   5                   4
3                  16                  17                   7
3                  16                   7                   6
3                  18                  19                  17
3                  18                  17                  16
3                  26                  27                  19
3                  26                  19                  18
3                  28                  29                  27
3                  28                  27                  26
3                  22                  23                  29
3                  22                  29                  28
3                  20                  21                  23
3                  20                  23                  22
3                  24                  25                  21
3                  24                  21                  20
CELL_DATA                  38
NORMALS normals float
 -0.000000000000E+00 -0.000000000000E+00 -0.100000000000E+01
 -0.000000000000E+00  0.000000000000E+00 -0.100000000000E+01
 -0.000000000000E+00 -0.000000000000E+00 -0.100000000000E+01
 -0.000000000000E+00  0.000000000000E+00 -0.100000000000E+01
 -0.000000000000E+00 -0.000000000000E+00 -0.100000000000E+01
 -0.000000000000E+00  0.000000000000E+00 -0.100000000000E+01
 -0.000000000000E+00 -0.000000000000E+00 -0.100000000000E+01
 -0.000000000000E+00  0.000000000000E+00 -0.100000000000E+01
 -0.000000000000E+00 -0.000000000000E+00 -0.100000000000E+01
 -0.000000000000E+00  0.000000000000E+00 -0.100000000000E+01
 -0.000000000000E+00 -0.000000000000E+00 -0.100000000000E+01
 -0.000000000000E+00  0.000000000000E+00 -0.100000000000E+01
 -0.000000000000E+00 -0.000000000000E+00 -0.100000000000E+01
 -0.000000000000E+00  0.000000000000E+00 -0.100000000000E+01
 -0.000000000000E+00 -0.000000000000E+00 -0.100000000000E+01
 -0.000000000000E+00  0.000000000000E+00 -0.100000000000E+01
 -0.000000000000E+00 -0.000000000000E+00 -0.100000000000E+01
 -0.000000000000E+00  0.000000000000E+00 -0.100000000000E+01
 -0.000000000000E+00 -0.000000000000E+00 -0.100000000000E+01
 -0.000000000000E+00  0.000000000000E+00 -0.100000000000E+01
 -0.000000000000E+00 -0.000000000000E+00 -0.100000000000E+01
 -0.000000000000E+00  0.000000000000E+00 -0.100000000000E+01
 -0.000000000000E+00 -0.000000000000E+00 -0.100000000000E+01
 -0.000000000000E+00  0.000000000000E+00 -0.100000000000E+01
 -0.000000000000E+00 -0.000000000000E+00 -0.100000000000E+01
 -0.000000000000E+00  0.000000000000E+00 -0.100000000000E+01
 -0.000000000000E+00 -0.000000000000E+00 -0.100000000000E+01
 -0.000000000000E+00  0.000000000000E+00 -0.100000000000E+01
 -0.000000000000E+00 -0.000000000000E+00 -0.100000000000E+01
 -0.000000000000E+00  0.000000000000E+00 -0.100000000000E+01
 -0.000000000000E+00 -0.000000000000E+00 -0.100000000000E+01
 -0.000000000000E+00  0.000000000000E+00 -0.100000000000E+01
 -0.000000000000E+00 -0.000000000000E+00 -0.100000000000E+01
 -0.000000000000E+00  0.000000000000E+00 -0.100000000000E+01
 -0.000000000000E+00 -0.000000000000E+00 -0.100000000000E+01
 -0.000000000000E+00  0.000000000000E+00 -0.100000000000E+01
 -0.000000000000E+00 -0.000000000000E+00 -0.100000000000E+01
 -0.000000000000E+00  0.000000000000E+00 -0.100000000000E+01
POINT_DATA                  40
SCALARS mu float 1
LOOKUP_TABLE default
 -0.153702444550E-06
 -0.153702444550E-06
 -0.993794962767E-06
 -0.993794962767E-06
  0.356527143452E-05
  0.356527143452E-05
 -0.781962647523E-06
 -0.781962647523E-06
  0.583458275116E-05
  0.583458275116E-05
  0.673242142568E-05
  0.673242142568E-05
  0.135761784748E-05
  0.135761784748E-05
 -0.536894098602E-05
 -0.536894098602E-05
 -0.279361367461E-05
 -0.279361367461E-05
  0.564757879573E-05
  0.564757879573E-05
 -0.667236089669E-05
 -0.667236089669E-05
  0.103899738093E-04
  0.103899738093E-04
  0.000000000000E+00
  0.000000000000E+00
  0.113424796666E-05
  0.113424796666E-05
 -0.400506134213E-05
 -0.400506134213E-05
 -0.622602920686E-05
 -0.622602920686E-05
 -0.393512610231E-05
 -0.393512610231E-05
 -0.433050056614E-05
 -0.433050056614E-05
  0.214262892939E-05
  0.214262892939E-05
  0.191721378684E-05
  0.191721378684E-05
