# vtk DataFile Version 3.0
MachLine results file. Generated by MachLine, USU AeroLab (c) 2022.
ASCII
DATASET POLYDATA
POINTS                  80 float
  0.401973724365E+02  0.211972446442E+02  0.000000000000E+00
  0.100000000000E+05  0.211972446442E+02  0.000000000000E+00
  0.380459861755E+02  0.190458717346E+02  0.000000000000E+00
  0.100000000000E+05  0.190458717346E+02  0.000000000000E+00
  0.530148696899E+02  0.340146598816E+02  0.000000000000E+00
  0.100000000000E+05  0.340146598816E+02  0.000000000000E+00
  0.510328712463E+02  0.320326728821E+02  0.000000000000E+00
  0.100000000000E+05  0.320326728821E+02  0.000000000000E+00
  0.423940925598E+02  0.233939495087E+02  0.000000000000E+00
  0.100000000000E+05  0.233939495087E+02  0.000000000000E+00
  0.548812789917E+02  0.358810577393E+02  0.000000000000E+00
  0.100000000000E+05  0.358810577393E+02  0.000000000000E+00
  0.446062088013E+02  0.256060504913E+02  0.000000000000E+00
  0.100000000000E+05  0.256060504913E+02  0.000000000000E+00
  0.566182289124E+02  0.376179962158E+02  0.000000000000E+00
  0.100000000000E+05  0.376179962158E+02  0.000000000000E+00
  0.468029289246E+02  0.278027553558E+02  0.000000000000E+00
  0.100000000000E+05  0.278027553558E+02  0.000000000000E+00
  0.582170410156E+02  0.392168006897E+02  0.000000000000E+00
  0.100000000000E+05  0.392168006897E+02  0.000000000000E+00
  0.489543113708E+02  0.299541282654E+02  0.000000000000E+00
  0.100000000000E+05  0.299541282654E+02  0.000000000000E+00
  0.596738929749E+02  0.406736450195E+02  0.000000000000E+00
  0.100000000000E+05  0.406736450195E+02  0.000000000000E+00
  0.287832584381E+02  0.978319931030E+01  0.000000000000E+00
  0.100000000000E+05  0.978319931030E+01  0.000000000000E+00
  0.273264064789E+02  0.832635498047E+01  0.000000000000E+00
  0.100000000000E+05  0.832635498047E+01  0.000000000000E+00
  0.303820724487E+02  0.113820018768E+02  0.000000000000E+00
  0.100000000000E+05  0.113820018768E+02  0.000000000000E+00
  0.321190223694E+02  0.131189413071E+02  0.000000000000E+00
  0.100000000000E+05  0.131189413071E+02  0.000000000000E+00
  0.339854316711E+02  0.149853391647E+02  0.000000000000E+00
  0.100000000000E+05  0.149853391647E+02  0.000000000000E+00
  0.359674301147E+02  0.169673271179E+02  0.000000000000E+00
  0.100000000000E+05  0.169673271179E+02  0.000000000000E+00
  0.228628253937E+02  0.386280250549E+01  0.000000000000E+00
  0.100000000000E+05  0.386280250549E+01  0.000000000000E+00
  0.220518741608E+02  0.305185556412E+01  0.000000000000E+00
  0.100000000000E+05  0.305185556412E+01  0.000000000000E+00
  0.237868041992E+02  0.478677463531E+01  0.000000000000E+00
  0.100000000000E+05  0.478677463531E+01  0.000000000000E+00
  0.609892082214E+02  0.419889526367E+02  0.000000000000E+00
  0.100000000000E+05  0.419889526367E+02  0.000000000000E+00
  0.621668891907E+02  0.431666221619E+02  0.000000000000E+00
  0.100000000000E+05  0.431666221619E+02  0.000000000000E+00
  0.632134971619E+02  0.442132263184E+02  0.000000000000E+00
  0.100000000000E+05  0.442132263184E+02  0.000000000000E+00
  0.641374740601E+02  0.451371994019E+02  0.000000000000E+00
  0.100000000000E+05  0.451371994019E+02  0.000000000000E+00
  0.649484252930E+02  0.459481430054E+02  0.000000000000E+00
  0.100000000000E+05  0.459481430054E+02  0.000000000000E+00
  0.656565246582E+02  0.466562423706E+02  0.000000000000E+00
  0.100000000000E+05  0.466562423706E+02  0.000000000000E+00
  0.248334121704E+02  0.583337688446E+01  0.000000000000E+00
  0.100000000000E+05  0.583337688446E+01  0.000000000000E+00
  0.260110912323E+02  0.701104879379E+01  0.000000000000E+00
  0.100000000000E+05  0.701104879379E+01  0.000000000000E+00
  0.662720489502E+02  0.472717590332E+02  0.000000000000E+00
  0.100000000000E+05  0.472717590332E+02  0.000000000000E+00
  0.668050155640E+02  0.478047180176E+02  0.000000000000E+00
  0.100000000000E+05  0.478047180176E+02  0.000000000000E+00
  0.672649307251E+02  0.482646369934E+02  0.000000000000E+00
  0.100000000000E+05  0.482646369934E+02  0.000000000000E+00
  0.676606597900E+02  0.486603622437E+02  0.000000000000E+00
  0.100000000000E+05  0.486603622437E+02  0.000000000000E+00
  0.680002975464E+02  0.490000000000E+02  0.000000000000E+00
  0.100000000000E+05  0.490000000000E+02  0.000000000000E+00
  0.193396415710E+02  0.339639574289E+00  0.000000000000E+00
  0.100000000000E+05  0.339639574289E+00  0.000000000000E+00
  0.190000000000E+02  0.000000000000E+00  0.000000000000E+00
  0.100000000000E+05  0.000000000000E+00  0.000000000000E+00
  0.197353687286E+02  0.735364913940E+00  0.000000000000E+00
  0.100000000000E+05  0.735364913940E+00  0.000000000000E+00
  0.201952877045E+02  0.119528055191E+01  0.000000000000E+00
  0.100000000000E+05  0.119528055191E+01  0.000000000000E+00
  0.207282505035E+02  0.172824025154E+01  0.000000000000E+00
  0.100000000000E+05  0.172824025154E+01  0.000000000000E+00
  0.213437728882E+02  0.234375929832E+01  0.000000000000E+00
  0.100000000000E+05  0.234375929832E+01  0.000000000000E+00
POLYGONS                  78                 312
3                  68                  69                  71
3                  68                  71                  70
3                  72                  73                  69
3                  72                  69                  68
3                  74                  75                  73
3                  74                  73                  72
3                  76                  77                  75
3                  76                  75                  74
3                  78                  79                  77
3                  78                  77                  76
3                  38                  39                  79
3                  38                  79                  78
3                  36                  37                  39
3                  36                  39                  38
3                  40                  41                  37
3                  40                  37                  36
3                  54                  55                  41
3                  54                  41                  40
3                  56                  57                  55
3                  56                  55                  54
3                  26                  27                  57
3                  26                  57                  56
3                  24                  25                  27
3                  24                  27                  26
3                  28                  29                  25
3                  28                  25                  24
3                  30                  31                  29
3                  30                  29                  28
3                  32                  33                  31
3                  32                  31                  30
3                  34                  35                  33
3                  34                  33                  32
3                   2                   3                  35
3                   2                  35                  34
3                   0                   1                   3
3                   0                   3                   2
3                   8                   9                   1
3                   8                   1                   0
3                  12                  13                   9
3                  12                   9                   8
3                  16                  17                  13
3                  16                  13                  12
3                  20                  21                  17
3                  20                  17                  16
3                   6                   7                  21
3                   6                  21                  20
3                   4                   5                   7
3                   4                   7                   6
3                  10                  11                   5
3                  10                   5                   4
3                  14                  15                  11
3                  14                  11                  10
3                  18                  19                  15
3                  18                  15                  14
3                  22                  23                  19
3                  22                  19                  18
3                  42                  43                  23
3                  42                  23                  22
3                  44                  45                  43
3                  44                  43                  42
3                  46                  47                  45
3                  46                  45                  44
3                  48                  49                  47
3                  48                  47                  46
3                  50                  51                  49
3                  50                  49                  48
3                  52                  53                  51
3                  52                  51                  50
3                  58                  59                  53
3                  58                  53                  52
3                  60                  61                  59
3                  60                  59                  58
3                  62                  63                  61
3                  62                  61                  60
3                  64                  65                  63
3                  64                  63                  62
3                  66                  67                  65
3                  66                  65                  64
CELL_DATA                  78
NORMALS normals float
 -0.000000000000E+00 -0.000000000000E+00 -0.100000000000E+01
 -0.000000000000E+00  0.000000000000E+00 -0.100000000000E+01
 -0.000000000000E+00 -0.000000000000E+00 -0.100000000000E+01
 -0.000000000000E+00  0.000000000000E+00 -0.100000000000E+01
 -0.000000000000E+00 -0.000000000000E+00 -0.100000000000E+01
 -0.000000000000E+00  0.000000000000E+00 -0.100000000000E+01
 -0.000000000000E+00 -0.000000000000E+00 -0.100000000000E+01
 -0.000000000000E+00  0.000000000000E+00 -0.100000000000E+01
 -0.000000000000E+00 -0.000000000000E+00 -0.100000000000E+01
 -0.000000000000E+00  0.000000000000E+00 -0.100000000000E+01
 -0.000000000000E+00 -0.000000000000E+00 -0.100000000000E+01
 -0.000000000000E+00  0.000000000000E+00 -0.100000000000E+01
 -0.000000000000E+00 -0.000000000000E+00 -0.100000000000E+01
 -0.000000000000E+00  0.000000000000E+00 -0.100000000000E+01
 -0.000000000000E+00 -0.000000000000E+00 -0.100000000000E+01
 -0.000000000000E+00  0.000000000000E+00 -0.100000000000E+01
 -0.000000000000E+00 -0.000000000000E+00 -0.100000000000E+01
 -0.000000000000E+00  0.000000000000E+00 -0.100000000000E+01
 -0.000000000000E+00 -0.000000000000E+00 -0.100000000000E+01
 -0.000000000000E+00  0.000000000000E+00 -0.100000000000E+01
 -0.000000000000E+00 -0.000000000000E+00 -0.100000000000E+01
 -0.000000000000E+00  0.000000000000E+00 -0.100000000000E+01
 -0.000000000000E+00 -0.000000000000E+00 -0.100000000000E+01
 -0.000000000000E+00  0.000000000000E+00 -0.100000000000E+01
 -0.000000000000E+00 -0.000000000000E+00 -0.100000000000E+01
 -0.000000000000E+00  0.000000000000E+00 -0.100000000000E+01
 -0.000000000000E+00 -0.000000000000E+00 -0.100000000000E+01
 -0.000000000000E+00  0.000000000000E+00 -0.100000000000E+01
 -0.000000000000E+00 -0.000000000000E+00 -0.100000000000E+01
 -0.000000000000E+00  0.000000000000E+00 -0.100000000000E+01
 -0.000000000000E+00 -0.000000000000E+00 -0.100000000000E+01
 -0.000000000000E+00  0.000000000000E+00 -0.100000000000E+01
 -0.000000000000E+00 -0.000000000000E+00 -0.100000000000E+01
 -0.000000000000E+00  0.000000000000E+00 -0.100000000000E+01
 -0.000000000000E+00 -0.000000000000E+00 -0.100000000000E+01
 -0.000000000000E+00  0.000000000000E+00 -0.100000000000E+01
 -0.000000000000E+00 -0.000000000000E+00 -0.100000000000E+01
 -0.000000000000E+00  0.000000000000E+00 -0.100000000000E+01
 -0.000000000000E+00 -0.000000000000E+00 -0.100000000000E+01
 -0.000000000000E+00  0.000000000000E+00 -0.100000000000E+01
 -0.000000000000E+00 -0.000000000000E+00 -0.100000000000E+01
 -0.000000000000E+00  0.000000000000E+00 -0.100000000000E+01
 -0.000000000000E+00 -0.000000000000E+00 -0.100000000000E+01
 -0.000000000000E+00  0.000000000000E+00 -0.100000000000E+01
 -0.000000000000E+00 -0.000000000000E+00 -0.100000000000E+01
 -0.000000000000E+00  0.000000000000E+00 -0.100000000000E+01
 -0.000000000000E+00 -0.000000000000E+00 -0.100000000000E+01
 -0.000000000000E+00  0.000000000000E+00 -0.100000000000E+01
 -0.000000000000E+00 -0.000000000000E+00 -0.100000000000E+01
 -0.000000000000E+00  0.000000000000E+00 -0.100000000000E+01
 -0.000000000000E+00 -0.000000000000E+00 -0.100000000000E+01
 -0.000000000000E+00  0.000000000000E+00 -0.100000000000E+01
 -0.000000000000E+00 -0.000000000000E+00 -0.100000000000E+01
 -0.000000000000E+00  0.000000000000E+00 -0.100000000000E+01
 -0.000000000000E+00 -0.000000000000E+00 -0.100000000000E+01
 -0.000000000000E+00  0.000000000000E+00 -0.100000000000E+01
 -0.000000000000E+00 -0.000000000000E+00 -0.100000000000E+01
 -0.000000000000E+00  0.000000000000E+00 -0.100000000000E+01
 -0.000000000000E+00 -0.000000000000E+00 -0.100000000000E+01
 -0.000000000000E+00  0.000000000000E+00 -0.100000000000E+01
 -0.000000000000E+00 -0.000000000000E+00 -0.100000000000E+01
 -0.000000000000E+00  0.000000000000E+00 -0.100000000000E+01
 -0.000000000000E+00 -0.000000000000E+00 -0.100000000000E+01
 -0.000000000000E+00  0.000000000000E+00 -0.100000000000E+01
 -0.000000000000E+00 -0.000000000000E+00 -0.100000000000E+01
 -0.000000000000E+00  0.000000000000E+00 -0.100000000000E+01
 -0.000000000000E+00 -0.000000000000E+00 -0.100000000000E+01
 -0.000000000000E+00  0.000000000000E+00 -0.100000000000E+01
 -0.000000000000E+00 -0.000000000000E+00 -0.100000000000E+01
 -0.000000000000E+00  0.000000000000E+00 -0.100000000000E+01
 -0.000000000000E+00 -0.000000000000E+00 -0.100000000000E+01
 -0.000000000000E+00  0.000000000000E+00 -0.100000000000E+01
 -0.000000000000E+00 -0.000000000000E+00 -0.100000000000E+01
 -0.000000000000E+00  0.000000000000E+00 -0.100000000000E+01
 -0.000000000000E+00 -0.000000000000E+00 -0.100000000000E+01
 -0.000000000000E+00  0.000000000000E+00 -0.100000000000E+01
 -0.000000000000E+00 -0.000000000000E+00 -0.100000000000E+01
 -0.000000000000E+00  0.000000000000E+00 -0.100000000000E+01
POINT_DATA                  80
SCALARS mu float 1
LOOKUP_TABLE default
  0.797538765340E-05
  0.797538765340E-05
  0.431953165503E-05
  0.431953165503E-05
  0.191526758755E-04
  0.191526758755E-04
  0.260804091923E-04
  0.260804091923E-04
  0.442391499433E-05
  0.442391499433E-05
 -0.239373351718E-05
 -0.239373351718E-05
 -0.195371938503E-04
 -0.195371938503E-04
 -0.468787446550E-05
 -0.468787446550E-05
 -0.210146855295E-04
 -0.210146855295E-04
 -0.255274777814E-04
 -0.255274777814E-04
  0.147973016240E-04
  0.147973016240E-04
 -0.176043020232E-04
 -0.176043020232E-04
  0.107606834945E-04
  0.107606834945E-04
  0.281258746249E-04
  0.281258746249E-04
  0.296896876151E-05
  0.296896876151E-05
  0.856660579984E-05
  0.856660579984E-05
  0.127157409011E-04
  0.127157409011E-04
  0.772507752345E-05
  0.772507752345E-05
  0.933963538330E-05
  0.933963538330E-05
  0.135991467793E-04
  0.135991467793E-04
  0.138786274029E-04
  0.138786274029E-04
 -0.186099578841E-04
 -0.186099578841E-04
 -0.104218349364E-04
 -0.104218349364E-04
 -0.222664868232E-04
 -0.222664868232E-04
 -0.426954749457E-04
 -0.426954749457E-04
 -0.552813353210E-04
 -0.552813353210E-04
 -0.536971402738E-04
 -0.536971402738E-04
  0.482276434610E-05
  0.482276434610E-05
  0.240128041042E-04
  0.240128041042E-04
 -0.514496385762E-04
 -0.514496385762E-04
 -0.228859984617E-04
 -0.228859984617E-04
  0.237063976698E-04
  0.237063976698E-04
 -0.756922960932E-05
 -0.756922960932E-05
  0.000000000000E+00
  0.000000000000E+00
  0.255014363653E-04
  0.255014363653E-04
  0.261252861158E-04
  0.261252861158E-04
  0.254758438025E-04
  0.254758438025E-04
  0.336130046321E-04
  0.336130046321E-04
  0.371074475964E-04
  0.371074475964E-04
  0.287439996463E-04
  0.287439996463E-04
