# vtk DataFile Version 3.0
MachLine results file. Generated by MachLine, USU AeroLab (c) 2022.
ASCII
DATASET POLYDATA
POINTS                 482 float
  0.000000000000E+00  0.000000000000E+00  0.000000000000E+00
  0.473465979099E+00  0.000000000000E+00 -0.436293870211E+00
  0.473465979099E+00  0.000000000000E+00  0.436293870211E+00
  0.757896304131E+00  0.757896304131E+00  0.000000000000E+00
  0.123136246204E+01  0.757896304131E+00 -0.436293989420E+00
  0.123136246204E+01  0.757896304131E+00  0.436293989420E+00
  0.157641971111E+01  0.000000000000E+00 -0.760520398617E+00
  0.157641971111E+01  0.000000000000E+00  0.760520398617E+00
  0.178897356987E+01  0.178897356987E+01  0.000000000000E+00
  0.226243972778E+01  0.178897356987E+01 -0.436294138432E+00
  0.226243972778E+01  0.178897356987E+01  0.436294138432E+00
  0.233431649208E+01  0.757896304131E+00 -0.760520577431E+00
  0.233431649208E+01  0.757896304131E+00  0.760520577431E+00
  0.317279767990E+01  0.317279767990E+01  0.000000000000E+00
  0.336539411545E+01  0.178897356987E+01 -0.760520815849E+00
  0.336539411545E+01  0.178897356987E+01  0.760520815849E+00
  0.342464399338E+01  0.000000000000E+00 -0.102348911762E+01
  0.342464399338E+01  0.000000000000E+00  0.102348911762E+01
  0.364626431465E+01  0.317279767990E+01 -0.436294317245E+00
  0.364626431465E+01  0.317279767990E+01  0.436294317245E+00
  0.418254137039E+01  0.757896304131E+00 -0.102348935604E+01
  0.418254137039E+01  0.757896304131E+00  0.102348935604E+01
  0.474921894073E+01  0.317279767990E+01 -0.760521173477E+00
  0.474921894073E+01  0.317279767990E+01  0.760521173477E+00
  0.499661636353E+01  0.499661636353E+01  0.000000000000E+00
  0.521361970901E+01  0.178897356987E+01 -0.102348971367E+01
  0.521361970901E+01  0.178897356987E+01  0.102348971367E+01
  0.547008323669E+01  0.499661636353E+01 -0.436294585466E+00
  0.547008323669E+01  0.499661636353E+01  0.436294585466E+00
  0.611307668686E+01  0.000000000000E+00 -0.114008128643E+01
  0.611307668686E+01  0.000000000000E+00  0.114008128643E+01
  0.657303857803E+01  0.499661636353E+01 -0.760521650314E+00
  0.657303857803E+01  0.499661636353E+01  0.760521650314E+00
  0.659744548798E+01  0.317279767990E+01 -0.102349019051E+01
  0.659744548798E+01  0.317279767990E+01  0.102349019051E+01
  0.687097454071E+01  0.757896304131E+00 -0.114008152485E+01
  0.687097454071E+01  0.757896304131E+00  0.114008152485E+01
  0.734362459183E+01  0.734362459183E+01  0.000000000000E+00
  0.781709194183E+01  0.734362459183E+01 -0.436294913292E+00
  0.781709194183E+01  0.734362459183E+01  0.436294913292E+00
  0.790205335617E+01  0.178897356987E+01 -0.114008200169E+01
  0.790205335617E+01  0.178897356987E+01  0.114008200169E+01
  0.842126560211E+01  0.499661636353E+01 -0.102349078655E+01
  0.842126560211E+01  0.499661636353E+01  0.102349078655E+01
  0.892004776001E+01  0.734362459183E+01 -0.760522186756E+00
  0.892004776001E+01  0.734362459183E+01  0.760522186756E+00
  0.928588008881E+01  0.317279767990E+01 -0.114008247852E+01
  0.928588008881E+01  0.317279767990E+01  0.114008247852E+01
  0.939508819580E+01  0.000000000000E+00 -0.980745851994E+00
  0.939508819580E+01  0.000000000000E+00  0.980745851994E+00
  0.101529865265E+02  0.757896304131E+00 -0.980746090412E+00
  0.101529865265E+02  0.757896304131E+00  0.980746090412E+00
  0.102728376389E+02  0.102728376389E+02  0.000000000000E+00
  0.107463054657E+02  0.102728376389E+02 -0.436295330524E+00
  0.107463054657E+02  0.102728376389E+02  0.436295330524E+00
  0.107682771683E+02  0.734362459183E+01 -0.102349150181E+01
  0.107682771683E+02  0.734362459183E+01  0.102349150181E+01
  0.111097030640E+02  0.499661636353E+01 -0.114008307457E+01
  0.111097030640E+02  0.499661636353E+01  0.114008307457E+01
  0.111840667725E+02  0.178897356987E+01 -0.980746388435E+00
  0.111840667725E+02  0.178897356987E+01  0.980746388435E+00
  0.118492631912E+02  0.102728376389E+02 -0.760522902012E+00
  0.118492631912E+02  0.102728376389E+02  0.760522902012E+00
  0.125678949356E+02  0.317279767990E+01 -0.980746865273E+00
  0.125678949356E+02  0.317279767990E+01  0.980746865273E+00
  0.126670312881E+02  0.000000000000E+00 -0.678052663803E+00
  0.126670312881E+02  0.000000000000E+00  0.678052663803E+00
  0.134249305725E+02  0.757896304131E+00 -0.678052842617E+00
  0.134249305725E+02  0.757896304131E+00  0.678052842617E+00
  0.134567155838E+02  0.734362459183E+01 -0.114008402824E+01
  0.134567155838E+02  0.734362459183E+01  0.114008402824E+01
  0.136974935532E+02  0.102728376389E+02 -0.102349245548E+01
  0.136974935532E+02  0.102728376389E+02  0.102349245548E+01
  0.137921218872E+02  0.137921218872E+02  0.000000000000E+00
  0.142655897141E+02  0.137921218872E+02 -0.436295837164E+00
  0.142655897141E+02  0.137921218872E+02  0.436295837164E+00
  0.143917188644E+02  0.499661636353E+01 -0.980747401714E+00
  0.143917188644E+02  0.499661636353E+01  0.980747401714E+00
  0.144560117722E+02  0.178897356987E+01 -0.678053081036E+00
  0.144560117722E+02  0.178897356987E+01  0.678053081036E+00
  0.153437566757E+02  0.000000000000E+00 -0.393031150103E+00
  0.153437566757E+02  0.000000000000E+00  0.393031150103E+00
  0.153685483932E+02  0.137921218872E+02 -0.760523796082E+00
  0.153685483932E+02  0.137921218872E+02  0.760523796082E+00
  0.158398418427E+02  0.317279767990E+01 -0.678053379059E+00
  0.158398418427E+02  0.317279767990E+01  0.678053379059E+00
  0.161016559601E+02  0.757896304131E+00 -0.393031239510E+00
  0.161016559601E+02  0.757896304131E+00  0.393031239510E+00
  0.163859348297E+02  0.102728376389E+02 -0.114008510113E+01
  0.163859348297E+02  0.102728376389E+02  0.114008510113E+01
  0.167387351990E+02  0.734362459183E+01 -0.980748176575E+00
  0.167387351990E+02  0.734362459183E+01  0.980748176575E+00
  0.171327381134E+02  0.178897356987E+01 -0.393031388521E+00
  0.171327381134E+02  0.178897356987E+01  0.393031388521E+00
  0.172004318237E+02  0.000000000000E+00 -0.192506864667E+00
  0.172004318237E+02  0.000000000000E+00  0.192506864667E+00
  0.172167816162E+02  0.137921218872E+02 -0.102349364758E+01
  0.172167816162E+02  0.137921218872E+02  0.102349364758E+01
  0.176636676788E+02  0.499661636353E+01 -0.678053736687E+00
  0.176636676788E+02  0.499661636353E+01  0.678053736687E+00
  0.178320064545E+02  0.178320064545E+02  0.000000000000E+00
  0.179583320618E+02  0.757896304131E+00 -0.192506924272E+00
  0.179583320618E+02  0.757896304131E+00  0.192506924272E+00
  0.183054752350E+02  0.178320064545E+02 -0.436296403408E+00
  0.183054752350E+02  0.178320064545E+02  0.436296403408E+00
  0.183450412750E+02  0.000000000000E+00 -0.698660761118E-01
  0.183450412750E+02  0.000000000000E+00  0.698660761118E-01
  0.185165691376E+02  0.317279767990E+01 -0.393031567335E+00
  0.185165691376E+02  0.317279767990E+01  0.393031567335E+00
  0.189894161224E+02  0.178897356987E+01 -0.192506983876E+00
  0.189894161224E+02  0.178897356987E+01  0.192506983876E+00
  0.190000000000E+02  0.000000000000E+00  0.000000000000E+00
  0.191029415131E+02  0.757896304131E+00 -0.698660910130E-01
  0.191029415131E+02  0.757896304131E+00  0.698660910130E-01
  0.194084339142E+02  0.178320064545E+02 -0.760524809361E+00
  0.194084339142E+02  0.178320064545E+02  0.760524809361E+00
  0.196679573059E+02  0.102728376389E+02 -0.980749070644E+00
  0.196679573059E+02  0.102728376389E+02  0.980749070644E+00
  0.197579002380E+02  0.757896304131E+00  0.000000000000E+00
  0.199052257538E+02  0.137921218872E+02 -0.114008641243E+01
  0.199052257538E+02  0.137921218872E+02  0.114008641243E+01
  0.200106849670E+02  0.734362459183E+01 -0.678054273129E+00
  0.200106849670E+02  0.734362459183E+01  0.678054273129E+00
  0.201340255737E+02  0.178897356987E+01 -0.698661133647E-01
  0.201340255737E+02  0.178897356987E+01  0.698661133647E-01
  0.203403968811E+02  0.499661636353E+01 -0.393031775951E+00
  0.203403968811E+02  0.499661636353E+01  0.393031775951E+00
  0.203732471466E+02  0.317279767990E+01 -0.192507073283E+00
  0.203732471466E+02  0.317279767990E+01  0.192507073283E+00
  0.207889842987E+02  0.178897356987E+01  0.000000000000E+00
  0.212566699982E+02  0.178320064545E+02 -0.102349495888E+01
  0.212566699982E+02  0.178320064545E+02  0.102349495888E+01
  0.215178565979E+02  0.317279767990E+01 -0.698661431670E-01
  0.215178565979E+02  0.317279767990E+01  0.698661431670E-01
  0.221728172302E+02  0.317279767990E+01  0.000000000000E+00
  0.221970767975E+02  0.499661636353E+01 -0.192507177591E+00
  0.221970767975E+02  0.499661636353E+01  0.192507177591E+00
  0.222339305878E+02  0.222339305878E+02  0.000000000000E+00
  0.226874179840E+02  0.734362459183E+01 -0.393032073975E+00
  0.226874179840E+02  0.734362459183E+01  0.393032073975E+00
  0.227074012756E+02  0.222339305878E+02 -0.436297029257E+00
  0.227074012756E+02  0.222339305878E+02  0.436297029257E+00
  0.229399108887E+02  0.102728376389E+02 -0.678054928780E+00
  0.229399108887E+02  0.102728376389E+02  0.678054928780E+00
  0.231872520447E+02  0.137921218872E+02 -0.980750203133E+00
  0.231872520447E+02  0.137921218872E+02  0.980750203133E+00
  0.233416862488E+02  0.499661636353E+01 -0.698661878705E-01
  0.233416862488E+02  0.499661636353E+01  0.698661878705E-01
  0.238103618622E+02  0.222339305878E+02 -0.760525882244E+00
  0.238103618622E+02  0.222339305878E+02  0.760525882244E+00
  0.239451179504E+02  0.178320064545E+02 -0.114008784294E+01
  0.239451179504E+02  0.178320064545E+02  0.114008784294E+01
  0.239966468811E+02  0.499661636353E+01  0.000000000000E+00
  0.245440979004E+02  0.734362459183E+01 -0.192507326603E+00
  0.245440979004E+02  0.734362459183E+01  0.192507326603E+00
  0.256166458130E+02  0.102728376389E+02 -0.393032461405E+00
  0.256166458130E+02  0.102728376389E+02  0.393032461405E+00
  0.256585998535E+02  0.222339305878E+02 -0.102349650860E+01
  0.256585998535E+02  0.222339305878E+02  0.102349650860E+01
  0.256887092590E+02  0.734362459183E+01 -0.698662400246E-01
  0.256887092590E+02  0.734362459183E+01  0.698662400246E-01
[...]
CELL_DATA                 904
SCALARS C_p_inc float 1
LOOKUP_TABLE default
  0.165933667697E+00
  0.143626043281E+00
  0.110403937614E+00
  0.934292858082E-01
  0.771890245879E-01
  0.683496346611E-01
  0.499195095713E-01
  0.432102565816E-01
  0.261061879794E-01
  0.214986509647E-01
  0.315412574906E-01
  0.256703095544E-01
  0.128903892668E+00
  0.966806418648E-01
  0.277284871265E+00
  0.232956188011E+00
  0.482294120923E+00
  0.438988573704E+00
  0.702295954879E+00
  0.693150640588E+00
 -0.294495358892E+00
  0.123194273242E+00
 -0.630603826724E+00
 -0.374306005506E+00
 -0.561165386189E+00
 -0.482679475158E+00
 -0.543485340682E+00
 -0.519565174235E+00
 -0.479361328621E+00
 -0.499739266106E+00
 -0.382291220473E+00
 -0.354051270041E+00
 -0.256597077905E+00
 -0.226329647166E+00
 -0.151292163018E+00
 -0.114678247960E+00
 -0.606099018511E-01
 -0.456399145372E-02
  0.561116138752E-01
  0.127529793465E+00
  0.160977442872E+00
  0.164566684256E+00
  0.113869836457E+00
  0.110208664892E+00
  0.860452533132E-01
  0.771779174637E-01
  0.560656005991E-01
  0.499640348446E-01
  0.282262791073E-01
  0.260569913054E-01
  0.256594488615E-01
  0.184984140363E-01
  0.979331276606E-01
  0.767200481668E-01
  0.229255953534E+00
  0.210594840242E+00
  0.406952923399E+00
  0.406771189315E+00
  0.576963563500E+00
  0.528796349329E+00
 -0.548202989700E+00
 -0.312930412448E+00
 -0.790709362185E+00
 -0.601940735225E+00
 -0.651200939926E+00
 -0.560161624974E+00
 -0.580429921018E+00
 -0.548956231915E+00
 -0.472914021290E+00
 -0.486065193479E+00
 -0.353678037464E+00
 -0.329108991918E+00
 -0.225802076121E+00
 -0.192843256934E+00
 -0.114510556141E+00
 -0.736263883938E-01
 -0.513791852713E-02
  0.287011858403E-01
  0.123177964399E+00
  0.133887615013E+00
  0.157784007909E+00
  0.160308545036E+00
  0.111915667799E+00
  0.113584624994E+00
  0.891868925858E-01
  0.859565152673E-01
  0.616956823597E-01
  0.560993517564E-01
  0.309726165839E-01
  0.282408517583E-01
  0.188605819927E-01
  0.152389844444E-01
  0.773874340873E-01
  0.672269325121E-01
  0.205942885755E+00
  0.199575242171E+00
  0.391568144644E+00
  0.397518732788E+00
  0.513303470142E+00
  0.462351450073E+00
 -0.758111774224E+00
 -0.554916850720E+00
 -0.933850963229E+00
 -0.770538573518E+00
 -0.730659627202E+00
 -0.645197305097E+00
 -0.613127942285E+00
 -0.584836856153E+00
 -0.469002843853E+00
 -0.482018850861E+00
 -0.329193402940E+00
 -0.304091979412E+00
 -0.192315064611E+00
 -0.158822975112E+00
 -0.735876950981E-01
 -0.438943650969E-01
  0.277813688624E-01
  0.430427944979E-01
  0.131811666678E+00
  0.137342394651E+00
  0.156581695474E+00
  0.157278594365E+00
  0.110214991180E+00
  0.111662405158E+00
  0.886954317703E-01
  0.890506023437E-01
  0.645068813086E-01
  0.616992713035E-01
  0.343925035160E-01
  0.310525744867E-01
  0.154207073235E-01
  0.160369672099E-01
  0.673069393088E-01
  0.657122807269E-01
  0.196749060891E+00
  0.199322500401E+00
  0.390987560024E+00
  0.399825431124E+00
  0.463607919093E+00
  0.412791118691E+00
 -0.941910084952E+00
 -0.759416293254E+00
 -0.105832245695E+01
 -0.920864743450E+00
 -0.797797299295E+00
 -0.727724069619E+00
 -0.640591759229E+00
 -0.619287289012E+00
 -0.464341790366E+00
 -0.479199250953E+00
 -0.304657862240E+00
 -0.280353934171E+00
 -0.158453894333E+00
 -0.132553354947E+00
 -0.439758109915E-01
 -0.272520506343E-01
  0.425730476684E-01
  0.509450175608E-01
  0.136535727703E+00
  0.140034971866E+00
  0.156242986064E+00
  0.156104935975E+00
  0.109329006835E+00
  0.109965453003E+00
  0.877789640920E-01
  0.885424980527E-01
  0.649764630298E-01
  0.644638006050E-01
  0.370550315929E-01
  0.344891232646E-01
  0.160827190117E-01
  0.196695394984E-01
  0.656664060461E-01
  0.702079006518E-01
  0.198304439898E+00
  0.206588652702E+00
  0.398816816705E+00
  0.408985024965E+00
  0.421692064587E+00
  0.372538425823E+00
 -0.109984905715E+01
 -0.941376379823E+00
 -0.116120234063E+01
 -0.105211334009E+01
 -0.850573317408E+00
 -0.798799995328E+00
 -0.660518667227E+00
 -0.648151586546E+00
 -0.459223385217E+00
 -0.474206392599E+00
 -0.281160063758E+00
 -0.262537052958E+00
 -0.132473914944E+00
 -0.117093440888E+00
 -0.272769116679E-01
 -0.181732562662E-01
  0.509016481997E-01
  0.559003081441E-01
  0.140052039815E+00
  0.142650417467E+00
  0.156451890523E+00
  0.155760024408E+00
  0.109039951399E+00
  0.109061894534E+00
  0.872750009394E-01
  0.876038179480E-01
  0.649304582660E-01
  0.648960742021E-01
  0.386539082531E-01
  0.371147256912E-01
  0.196944747161E-01
  0.239860879426E-01
  0.701974611885E-01
  0.776234245386E-01
  0.206697291051E+00
  0.217474547847E+00
  0.410925724234E+00
  0.420882471424E+00
  0.384400042726E+00
  0.339413885671E+00
 -0.122881509093E+01
 -0.109912851597E+01
 -0.124083555201E+01
 -0.115987585049E+01
 -0.889224915683E+00
 -0.854075441897E+00
 -0.674298503595E+00
 -0.667952496835E+00
 -0.456527767623E+00
 -0.466975829737E+00
 -0.263461472191E+00
 -0.252828062177E+00
 -0.117234594832E+00
 -0.109312906987E+00
 -0.181334240707E-01
 -0.132235792165E-01
  0.561085367352E-01
  0.591229956749E-01
  0.143112781734E+00
  0.144940998417E+00
  0.156740935090E+00
  0.155935714826E+00
  0.108945051224E+00
  0.108743500012E+00
  0.870332290837E-01
  0.870723638236E-01
  0.649652435756E-01
  0.648188369730E-01
  0.398298757372E-01
  0.386645505374E-01
  0.240157626305E-01
  0.277304463892E-01
  0.776409249332E-01
  0.849737587151E-01
  0.217981357907E+00
  0.228345229189E+00
  0.423663642461E+00
  0.432105610735E+00
  0.350611768131E+00
  0.312473921081E+00
 -0.132847492955E+01
 -0.122840369981E+01
 -0.129946248490E+01
 -0.124179221512E+01
 -0.916995740150E+00
 -0.893030032146E+00
 -0.685107293942E+00
 -0.679937946387E+00
 -0.457203418131E+00
 -0.461512622566E+00
 -0.253805286735E+00
 -0.248986106107E+00
 -0.109572911403E+00
 -0.105713985336E+00
 -0.131664386176E-01
 -0.104214754069E-01
  0.594400572819E-01
  0.614229628234E-01
  0.145618075243E+00
  0.147097104134E+00
  0.156649919902E+00
  0.156167935253E+00
  0.108529461901E+00
  0.108606905646E+00
  0.865375046308E-01
  0.867978665523E-01
  0.647577600087E-01
  0.648251375167E-01
  0.405828799053E-01
  0.398005591422E-01
  0.277488360123E-01
  0.305151613932E-01
  0.849685420817E-01
  0.907293687676E-01
  0.228769777574E+00
  0.236984542036E+00
  0.434404494357E+00
  0.440695922682E+00
  0.320896776731E+00
  0.291141738694E+00
 -0.140213823017E+01
 -0.132826979115E+01
 -0.134164232482E+01
 -0.130065548323E+01
 -0.937219485779E+00
 -0.919735821005E+00
 -0.694041699740E+00
 -0.688628872119E+00
 -0.459441185765E+00
 -0.460158305503E+00
 -0.249943074641E+00
 -0.247848458384E+00
 -0.106034755185E+00
 -0.103780229081E+00
 -0.103795230603E-01
 -0.831019387345E-02
  0.617706372743E-01
  0.636165483989E-01
  0.147866966284E+00
  0.149530081197E+00
  0.155763382135E+00
  0.155973081953E+00
  0.107214957880E+00
  0.108122795640E+00
  0.851053711533E-01
  0.862548323912E-01
  0.635988343562E-01
  0.645863541668E-01
  0.402885795607E-01
  0.405230150540E-01
  0.305140725921E-01
  0.318165830922E-01
  0.906724636339E-01
  0.942609320170E-01
  0.237161025478E+00
  0.242659348718E+00
  0.442099015761E+00
  0.446248106128E+00
  0.296511226685E+00
  0.275394025738E+00
 -0.145324755254E+01
 -0.140198647518E+01
 -0.137042852946E+01
 -0.134241612515E+01
 -0.951033300373E+00
 -0.938937324053E+00
 -0.700286099961E+00
 -0.696254069433E+00
 -0.461052359846E+00
 -0.461427644046E+00
 -0.248752598815E+00
 -0.246900442364E+00
 -0.104139974860E+00
 -0.101634603919E+00
 -0.829692185669E-02
 -0.560361293086E-02
  0.639718567447E-01
  0.666037678226E-01
  0.150370888661E+00
  0.152828529848E+00
  0.153803017315E+00
  0.154878196120E+00
  0.104387297640E+00
  0.106676212057E+00
  0.819349131805E-01
  0.847361558468E-01
  0.605879484791E-01
  0.633794137260E-01
  0.380443465524E-01
  0.402005132852E-01
  0.317866303744E-01
  0.308473492774E-01
  0.941204477461E-01
  0.950048713902E-01
  0.242539018148E+00
  0.245104163817E+00
  0.446780192166E+00
  0.448973677992E+00
  0.278306424529E+00
  0.265796490643E+00
 -0.148319999172E+01
 -0.145313259558E+01
 -0.138664678695E+01
 -0.137101094514E+01
 -0.958095070353E+00
 -0.952357163718E+00
 -0.702506780272E+00
 -0.702104034379E+00
 -0.460139034874E+00
 -0.462864919669E+00
 -0.247765947806E+00
 -0.244166735638E+00
 -0.102044401312E+00
 -0.976257290584E-01
 -0.562807352308E-02
 -0.947723711022E-03
  0.669821272132E-01
  0.714768201224E-01
  0.153807282976E+00
  0.157747778771E+00
  0.150356413344E+00
  0.152492562707E+00
  0.993552312138E-01
  0.103580158639E+00
  0.761206244933E-01
  0.813905057559E-01
  0.546735991645E-01
  0.602758689851E-01
  0.327685497804E-01
  0.379174383265E-01
  0.307628423556E-01
  0.266290258178E-01
  0.947218260930E-01
  0.922416745763E-01
  0.244600898201E+00
  0.243963520092E+00
  0.448627771797E+00
  0.448981392724E+00
  0.266677875142E+00
  0.262994792765E+00
 -0.149194618222E+01
 -0.148316501450E+01
 -0.138995201068E+01
 -0.138742068897E+01
 -0.957521617132E+00
 -0.959608709828E+00
 -0.699288650317E+00
 -0.704634919174E+00
 -0.454938506875E+00
 -0.462391295615E+00
 -0.245044489771E+00
 -0.237803439870E+00
 -0.981354209827E-01
 -0.899479539871E-01
 -0.103453940246E-02
  0.737983939265E-02
  0.719140842636E-01
  0.798483745170E-01
  0.159019850664E+00
  0.165780882325E+00
  0.145380203500E+00
  0.148247893898E+00
  0.918164978655E-01
  0.980261393123E-01
  0.670547282953E-01
  0.752245070671E-01
  0.449143457671E-01
  0.541709617573E-01
  0.232894337526E-01
  0.325690036469E-01
  0.264319516197E-01
  0.179966196916E-01
  0.917139735757E-01
  0.850562118007E-01
  0.242901473575E+00
  0.238697126864E+00
  0.447562526775E+00
  0.446120615075E+00
  0.261796178665E+00
  0.267226299533E+00
 -0.147934073884E+01
 -0.149203374566E+01
 -0.137984714321E+01
 -0.139123450876E+01
 -0.948402005179E+00
 -0.959700187063E+00
 -0.689220557487E+00
 -0.702355390805E+00
 -0.443597442375E+00
 -0.458292998711E+00
 -0.238767823535E+00
 -0.225774917767E+00
 -0.906609340518E-01
 -0.764563464928E-01
  0.715713464252E-02
  0.214785364145E-01
  0.803597589034E-01
  0.937482064583E-01
  0.167548668336E+00
  0.178982770130E+00
  0.139241754964E+00
  0.141912416126E+00
  0.822850417299E-01
  0.895498369234E-01
  0.552132160524E-01
  0.654894174847E-01
  0.313730865514E-01
  0.440195114678E-01
  0.889107632388E-02
  0.229338772635E-01
  0.175557677319E-01
  0.371864536812E-02
  0.841058646801E-01
  0.722913428838E-01
  0.236767338983E+00
  0.228550514794E+00
  0.443195701314E+00
  0.439983364492E+00
  0.263406176108E+00
  0.278025193399E+00
 -0.144619518037E+01
 -0.147957564429E+01
 -0.135635101440E+01
 -0.138189336681E+01
 -0.930083073168E+00
 -0.951698990863E+00
 -0.670906760347E+00
 -0.693962273364E+00
 -0.424002750552E+00
 -0.449004712645E+00
 -0.226909253096E+00
 -0.205812078573E+00
 -0.775683933737E-01
 -0.550635420732E-01
  0.209169968479E-01
  0.430682763854E-01
  0.942119975256E-01
  0.114784708821E+00
  0.181356625027E+00
  0.199267669930E+00
  0.131201241084E+00
  0.133621539713E+00
  0.707220673662E-01
  0.784777930689E-01
  0.416280096117E-01
  0.524876698232E-01
  0.158509964085E-01
  0.297064313323E-01
 -0.923799971893E-02
  0.817294304378E-02
  0.272230231591E-02
 -0.167303146537E-01
  0.705810042073E-01
  0.525205925614E-01
  0.225215874141E+00
  0.212411098210E+00
  0.434789151244E+00
  0.429849781352E+00
  0.270492235106E+00
  0.294138255118E+00
 -0.139470148775E+01
 -0.144657618727E+01
 -0.132026179993E+01
 -0.135936758373E+01
 -0.902224023342E+00
 -0.935012059904E+00
 -0.642850773884E+00
 -0.678383457117E+00
 -0.393685260803E+00
 -0.433064082647E+00
 -0.207222071141E+00
 -0.176202282032E+00
 -0.569691655233E-01
 -0.254667291965E-01
  0.416342244980E-01
  0.716095561833E-01
  0.114632267440E+00
  0.142470720035E+00
  0.201846551958E+00
  0.226770832768E+00
  0.116684773505E+00
  0.121983503950E+00
  0.536016521459E-01
  0.644212707944E-01
  0.248919514335E-01
  0.370573174024E-01
 -0.434961627662E-03
  0.128314374019E-01
 -0.275944259587E-01
 -0.107903332991E-01
 -0.189637267666E-01
 -0.408309463091E-01
  0.493426794841E-01
  0.245355840580E-01
  0.206657336591E+00
  0.188411748452E+00
  0.421041436200E+00
  0.414443354583E+00
  0.281016440062E+00
  0.313687337412E+00
 -0.132808270139E+01
 -0.139519244169E+01
 -0.127288479641E+01
 -0.132441212752E+01
 -0.864357543877E+00
 -0.909507731882E+00
 -0.602806939148E+00
 -0.654947862001E+00
 -0.350472231770E+00
 -0.409349355597E+00
 -0.178146789409E+00
 -0.138741135298E+00
 -0.289568231447E-01
  0.857560227365E-02
  0.680680284261E-01
  0.103573294960E+00
  0.140126522637E+00
  0.174461642695E+00
  0.227922704201E+00
  0.260514825133E+00
  0.842723637570E-01
  0.100522789003E+00
  0.223938502092E-01
  0.429372597344E-01
 -0.234922641234E-03
  0.173987107305E-01
 -0.198936415018E-01
 -0.557601720057E-02
 -0.447041055378E-01
 -0.308001145941E-01
 -0.454592934439E-01
 -0.623816652429E-01
  0.184654857112E-01
 -0.960145127500E-02
  0.178078440474E+00
  0.153378992129E+00
  0.399379140991E+00
  0.391220142466E+00
  0.291631997219E+00
  0.334470638340E+00
 -0.124952361450E+01
 -0.132860397065E+01
 -0.121500280832E+01
 -0.127834546487E+01
 -0.814263429780E+00
 -0.875478385330E+00
 -0.546819880939E+00
 -0.623659150985E+00
 -0.297228920484E+00
 -0.377627926172E+00
 -0.141850825632E+00
 -0.100982177628E+00
  0.209073821716E-02
  0.405803553204E-01
  0.955110363779E-01
  0.134679279180E+00
  0.166571504817E+00
  0.209558453157E+00
  0.256335521406E+00
  0.303013604488E+00
  0.762065629852E-02
  0.529438955667E-01
 -0.394746363712E-01
  0.336989671818E-02
 -0.426667702034E-01
 -0.127127170346E-01
 -0.480260845167E-01
 -0.284042332122E-01
 -0.639502366733E-01
 -0.507792904795E-01
 -0.710243709372E-01
 -0.794169137563E-01
 -0.207492807479E-01
 -0.407858161494E-01
  0.133770185164E+00
  0.104537838576E+00
  0.363664385794E+00
  0.354342052924E+00
  0.296500520019E+00
  0.354065474796E+00
 -0.116043005856E+01
 -0.124993877134E+01
 -0.114411485275E+01
 -0.122229713927E+01
 -0.743339358672E+00
 -0.833774914071E+00
 -0.475626121646E+00
 -0.584511580494E+00
 -0.245799609050E+00
 -0.342142670539E+00
 -0.106385375107E+00
 -0.721454595759E-01
  0.285184035608E-01
  0.632479971257E-01
  0.117552986144E+00
  0.159888783989E+00
  0.189261551645E+00
  0.248722889056E+00
  0.284299323166E+00
  0.365166349565E+00
 -0.193465052570E+00
 -0.626401803368E-01
 -0.170683963944E+00
 -0.772487524369E-01
 -0.120517861666E+00
 -0.657379681798E-01
 -0.956616326160E-01
 -0.632567862492E-01
 -0.933130110616E-01
 -0.753944609635E-01
 -0.949655640370E-01
 -0.977385739686E-01
 -0.601100743417E-01
 -0.655783327657E-01
  0.680406343346E-01
  0.495062643441E-01
  0.295988284320E+00
  0.289085991520E+00
  0.280365783636E+00
  0.368772100120E+00
 -0.105626970088E+01
 -0.116052495772E+01
 -0.104308998604E+01
 -0.115647568009E+01
 -0.636872457266E+00
 -0.784953002144E+00
 -0.409372210797E+00
 -0.541000461207E+00
 -0.207264793831E+00
 -0.318641635576E+00
 -0.829565913872E-01
 -0.636390641819E-01
  0.390111522803E-01
  0.632865261630E-01
  0.122572137773E+00
  0.164596018288E+00
  0.198808876209E+00
  0.285626845929E+00
  0.304670963796E+00
  0.472925714263E+00
 -0.757710029200E+00
 -0.394127268540E+00
 -0.478797498435E+00
 -0.290496730725E+00
 -0.319037513445E+00
 -0.194073345082E+00
 -0.217706284498E+00
 -0.138985432733E+00
 -0.163352966534E+00
 -0.122971563711E+00
 -0.135198558132E+00
 -0.134174360215E+00
 -0.104382027453E+00
 -0.104727833683E+00
 -0.224553796686E-01
 -0.218109762883E-01
  0.142819974247E+00
  0.162469775107E+00
  0.142909564376E+00
  0.345217379909E+00
 -0.868349032462E+00
 -0.105606443695E+01
 -0.805399071289E+00
 -0.109188101891E+01
 -0.529727675148E+00
 -0.734551023681E+00
 -0.377441360531E+00
 -0.532393783622E+00
 -0.198177217895E+00
 -0.354544655956E+00
 -0.105814491803E+00
 -0.124948031140E+00
 -0.172148068656E-01
 -0.324785889862E-01
  0.325579455473E-01
  0.432334752801E-01
  0.996829659291E-01
  0.180019115783E+00
  0.243875983242E+00
  0.523885184489E+00
 -0.225407777743E+01
 -0.228139692252E+01
 -0.116968970701E+01
 -0.116450043135E+01
 -0.617257138219E+00
 -0.617020145900E+00
 -0.349827637602E+00
 -0.360301546110E+00
 -0.242527162395E+00
 -0.246373136571E+00
 -0.222804951830E+00
 -0.198473973621E+00
 -0.208866893950E+00
 -0.161271332346E+00
 -0.189023415726E+00
 -0.117602112054E+00
 -0.134123258409E+00
 -0.142058877969E+00
 -0.866313284951E+00
 -0.703715378431E+00
 -0.920464127644E+00
 -0.555125628167E+00
 -0.697106008629E+00
 -0.446067335136E+00
 -0.588957841472E+00
 -0.291625938501E+00
 -0.512598626660E+00
 -0.244345526078E+00
 -0.427477300902E+00
 -0.271072978409E+00
 -0.624466046658E+00
 -0.463256423051E+00
 -0.115595271682E+01
 -0.861338600833E+00
 -0.227146553833E+01
 -0.137159035626E+01
 -0.394807757485E+01
 -0.397610726000E+01
 -0.197621954946E+01
 -0.197645322912E+01
 -0.104010808830E+01
 -0.104586237968E+01
 -0.590653843368E+00
 -0.606956326225E+00
 -0.397522018119E+00
 -0.406124713176E+00
 -0.345536665305E+00
 -0.330389191087E+00
 -0.335701285107E+00
 -0.305107260762E+00
 -0.343973658880E+00
 -0.298399464834E+00
 -0.356599094923E+00
 -0.276489945325E+00
 -0.831453464986E+00
 -0.708784432703E+00
 -0.851524873063E+00
 -0.617841866304E+00
 -0.707227651078E+00
 -0.537974501005E+00
 -0.651070368717E+00
 -0.410196474777E+00
 -0.657070786569E+00
 -0.429552835802E+00
 -0.694015549907E+00
 -0.572638828470E+00
 -0.110384717023E+01
 -0.987715222369E+00
 -0.205585752746E+01
 -0.182768023404E+01
 -0.406840651256E+01
 -0.324193692302E+01
 -0.552984454771E+01
 -0.551895878691E+01
 -0.270360216252E+01
 -0.270832056659E+01
 -0.141936772398E+01
 -0.143887357391E+01
 -0.809588329435E+00
 -0.841459283007E+00
 -0.541913164997E+00
 -0.562792766969E+00
 -0.467091286352E+00
 -0.462819442007E+00
 -0.456954845945E+00
 -0.437041674255E+00
 -0.474996431779E+00
 -0.446417707114E+00
 -0.522586521983E+00
 -0.394114378956E+00
 -0.747623025508E+00
 -0.715910141658E+00
 -0.767212212697E+00
 -0.649122059366E+00
 -0.683387118215E+00
 -0.590805978469E+00
 -0.672633657028E+00
 -0.502261033559E+00
 -0.743900636966E+00
 -0.579417237572E+00
 -0.894117287668E+00
 -0.822039436053E+00
 -0.147545907362E+01
 -0.142113723531E+01
 -0.276872380795E+01
 -0.265311744030E+01
 -0.558645214302E+01
 -0.504860694952E+01
 -0.644206484866E+01
 -0.650894372039E+01
 -0.313436246613E+01
 -0.319364327057E+01
 -0.164320933104E+01
 -0.170741707402E+01
 -0.938219638079E+00
 -0.101015374482E+01
 -0.628531988083E+00
 -0.678281007174E+00
 -0.555617871910E+00
 -0.572367249332E+00
 -0.553692349521E+00
 -0.549189196143E+00
 -0.575417727958E+00
 -0.573014549243E+00
 -0.634654891367E+00
 -0.515125129797E+00
 -0.636364916753E+00
 -0.707699452337E+00
 -0.670157243311E+00
 -0.640004362470E+00
 -0.628070283479E+00
 -0.595876986039E+00
 -0.648787501313E+00
 -0.549674384688E+00
 -0.762396537604E+00
 -0.665613774010E+00
 -0.995792313354E+00
 -0.970669188742E+00
 -0.167748377415E+01
 -0.167541837932E+01
 -0.316326372726E+01
 -0.314746643515E+01
 -0.646816475561E+01
 -0.626654704471E+01
SCALARS sigma float 1
LOOKUP_TABLE default
  0.418352381679E-01
  0.418352605464E-01
  0.413676547627E-01
  0.413676930366E-01
  0.405239771667E-01
  0.405239386977E-01
  0.420237576749E-01
  0.420237901175E-01
  0.558379690652E-01
  0.558379605889E-01
  0.995601851396E-01
  0.995601923136E-01
  0.190343473624E+00
  0.190343466382E+00
  0.282858981405E+00
  0.282858970526E+00
  0.404943731044E+00
  0.404943716761E+00
  0.644799370468E+00
  0.644799368147E+00
  0.464834317193E+00
  0.464834335037E+00
  0.131973633041E+00
  0.131973653327E+00
 -0.695112231575E-02
 -0.695110903843E-02
 -0.104720925895E+00
 -0.104720918108E+00
 -0.195364328457E+00
 -0.195364334994E+00
 -0.237282838549E+00
 -0.237282829532E+00
 -0.250299149052E+00
 -0.250299183052E+00
 -0.251705835534E+00
 -0.251705796518E+00
 -0.250914648516E+00
 -0.250914686204E+00
 -0.250476040255E+00
 -0.250476061845E+00
  0.418352038603E-01
  0.418352374219E-01