# vtk DataFile Version 3.0
MachLine results file. Generated by MachLine, USU AeroLab (c) 2022.
ASCII
DATASET POLYDATA
POINTS                1848 float
  0.000000000000E+00  0.000000000000E+00  0.000000000000E+00
  0.147665724158E+00  0.000000000000E+00 -0.234920635819E+00
  0.147665724158E+00  0.000000000000E+00  0.234920635819E+00
  0.339639574289E+00  0.339639574289E+00  0.000000000000E+00
  0.473465979099E+00  0.000000000000E+00 -0.436293870211E+00
  0.473465979099E+00  0.000000000000E+00  0.436293870211E+00
  0.487305283546E+00  0.339639574289E+00 -0.234920650721E+00
  0.487305283546E+00  0.339639574289E+00  0.234920650721E+00
  0.735364913940E+00  0.735364913940E+00  0.000000000000E+00
  0.813105583191E+00  0.339639574289E+00 -0.436293929815E+00
  0.813105583191E+00  0.339639574289E+00  0.436293929815E+00
  0.883030653000E+00  0.735364913940E+00 -0.234920680523E+00
  0.883030653000E+00  0.735364913940E+00  0.234920680523E+00
  0.944064557552E+00  0.000000000000E+00 -0.604293465614E+00
  0.944064557552E+00  0.000000000000E+00  0.604293465614E+00
  0.119528055191E+01  0.119528055191E+01  0.000000000000E+00
  0.120883107185E+01  0.735364913940E+00 -0.436293989420E+00
  0.120883107185E+01  0.735364913940E+00  0.436293989420E+00
  0.128370416164E+01  0.339639574289E+00 -0.604293525219E+00
  0.128370416164E+01  0.339639574289E+00  0.604293525219E+00
  0.134294629097E+01  0.119528055191E+01 -0.234920725226E+00
  0.134294629097E+01  0.119528055191E+01  0.234920725226E+00
  0.157641971111E+01  0.000000000000E+00 -0.760520398617E+00
  0.157641971111E+01  0.000000000000E+00  0.760520398617E+00
  0.166874670982E+01  0.119528055191E+01 -0.436294049025E+00
  0.166874670982E+01  0.119528055191E+01  0.436294049025E+00
  0.167942965031E+01  0.735364913940E+00 -0.604293584824E+00
  0.167942965031E+01  0.735364913940E+00  0.604293584824E+00
  0.172824025154E+01  0.172824025154E+01  0.000000000000E+00
  0.187590610981E+01  0.172824025154E+01 -0.234920769930E+00
  0.187590610981E+01  0.172824025154E+01  0.234920769930E+00
  0.191605937481E+01  0.339639574289E+00 -0.760520458221E+00
  0.191605937481E+01  0.339639574289E+00  0.760520458221E+00
  0.213934540749E+01  0.119528055191E+01 -0.604293704033E+00
  0.213934540749E+01  0.119528055191E+01  0.604293704033E+00
  0.220170640945E+01  0.172824025154E+01 -0.436294138432E+00
  0.220170640945E+01  0.172824025154E+01  0.436294138432E+00
  0.231178498268E+01  0.735364913940E+00 -0.760520577431E+00
  0.231178498268E+01  0.735364913940E+00  0.760520577431E+00
  0.234375929832E+01  0.234375929832E+01  0.000000000000E+00
  0.239635515213E+01  0.000000000000E+00 -0.902061045170E+00
  0.239635515213E+01  0.000000000000E+00  0.902061045170E+00
  0.249142503738E+01  0.234375929832E+01 -0.234920814633E+00
  0.249142503738E+01  0.234375929832E+01  0.234920814633E+00
  0.267230534554E+01  0.172824025154E+01 -0.604293823242E+00
  0.267230534554E+01  0.172824025154E+01  0.604293823242E+00
  0.273599505424E+01  0.339639574289E+00 -0.902061164379E+00
  0.273599505424E+01  0.339639574289E+00  0.902061164379E+00
  0.277170085907E+01  0.119528055191E+01 -0.760520696640E+00
  0.277170085907E+01  0.119528055191E+01  0.760520696640E+00
  0.281722569466E+01  0.234375929832E+01 -0.436294227839E+00
  0.281722569466E+01  0.234375929832E+01  0.436294227839E+00
  0.305185556412E+01  0.305185556412E+01  0.000000000000E+00
  0.313172078133E+01  0.735364913940E+00 -0.902061283588E+00
  0.313172078133E+01  0.735364913940E+00  0.902061283588E+00
  0.319952154160E+01  0.305185556412E+01 -0.234920859337E+00
  0.319952154160E+01  0.305185556412E+01  0.234920859337E+00
  0.328782463074E+01  0.234375929832E+01 -0.604293942451E+00
  0.328782463074E+01  0.234375929832E+01  0.604293942451E+00
  0.330466079712E+01  0.172824025154E+01 -0.760520815849E+00
  0.330466079712E+01  0.172824025154E+01  0.760520815849E+00
  0.342464399338E+01  0.000000000000E+00 -0.102348911762E+01
  0.342464399338E+01  0.000000000000E+00  0.102348911762E+01
  0.352532196045E+01  0.305185556412E+01 -0.436294317245E+00
  0.352532196045E+01  0.305185556412E+01  0.436294317245E+00
  0.359163665771E+01  0.119528055191E+01 -0.902061402798E+00
  0.359163665771E+01  0.119528055191E+01  0.902061402798E+00
  0.376428389549E+01  0.339639574289E+00 -0.102348923683E+01
  0.376428389549E+01  0.339639574289E+00  0.102348923683E+01
  0.386280250549E+01  0.386280250549E+01  0.000000000000E+00
  0.392018008232E+01  0.234375929832E+01 -0.760520994663E+00
  0.392018008232E+01  0.234375929832E+01  0.760520994663E+00
  0.399592113495E+01  0.305185556412E+01 -0.604294061661E+00
  0.399592113495E+01  0.305185556412E+01  0.604294061661E+00
  0.401046848297E+01  0.386280250549E+01 -0.234920918941E+00
  0.401046848297E+01  0.386280250549E+01  0.234920918941E+00
  0.412459707260E+01  0.172824025154E+01 -0.902061522007E+00
  0.412459707260E+01  0.172824025154E+01  0.902061522007E+00
  0.416000986099E+01  0.735364913940E+00 -0.102348935604E+01
  0.416000986099E+01  0.735364913940E+00  0.102348935604E+01
  0.433626890182E+01  0.386280250549E+01 -0.436294436455E+00
  0.433626890182E+01  0.386280250549E+01  0.436294436455E+00
  0.461992597580E+01  0.119528055191E+01 -0.102348947525E+01
  0.461992597580E+01  0.119528055191E+01  0.102348947525E+01
  0.462827682495E+01  0.305185556412E+01 -0.760521173477E+00
  0.462827682495E+01  0.305185556412E+01  0.760521173477E+00
  0.466872262955E+01  0.000000000000E+00 -0.111146688461E+01
  0.466872262955E+01  0.000000000000E+00  0.111146688461E+01
  0.474011659622E+01  0.234375929832E+01 -0.902061700821E+00
  0.474011659622E+01  0.234375929832E+01  0.902061700821E+00
  0.478677463531E+01  0.478677463531E+01  0.000000000000E+00
  0.480686807632E+01  0.386280250549E+01 -0.604294240475E+00
  0.480686807632E+01  0.386280250549E+01  0.604294240475E+00
  0.493444061279E+01  0.478677463531E+01 -0.234920993447E+00
  0.493444061279E+01  0.478677463531E+01  0.234920993447E+00
  0.500836277008E+01  0.339639574289E+00 -0.111146700382E+01
  0.500836277008E+01  0.339639574289E+00  0.111146700382E+01
  0.515288639069E+01  0.172824025154E+01 -0.102348971367E+01
  0.515288639069E+01  0.172824025154E+01  0.102348971367E+01
  0.526024150848E+01  0.478677463531E+01 -0.436294555664E+00
  0.526024150848E+01  0.478677463531E+01  0.436294555664E+00
  0.540408849716E+01  0.735364913940E+00 -0.111146712303E+01
  0.540408849716E+01  0.735364913940E+00  0.111146712303E+01
  0.543922424316E+01  0.386280250549E+01 -0.760521352291E+00
  0.543922424316E+01  0.386280250549E+01  0.760521352291E+00
  0.544821310043E+01  0.305185556412E+01 -0.902061939240E+00
  0.544821310043E+01  0.305185556412E+01  0.902061939240E+00
  0.573084068298E+01  0.478677463531E+01 -0.604294419289E+00
  0.573084068298E+01  0.478677463531E+01  0.604294419289E+00
  0.576840591431E+01  0.234375929832E+01 -0.102348983288E+01
  0.576840591431E+01  0.234375929832E+01  0.102348983288E+01
  0.583337688446E+01  0.583337688446E+01  0.000000000000E+00
  0.586400508881E+01  0.119528055191E+01 -0.111146736145E+01
  0.586400508881E+01  0.119528055191E+01  0.111146736145E+01
  0.598104286194E+01  0.583337688446E+01 -0.234921067953E+00
  0.598104286194E+01  0.583337688446E+01  0.234921067953E+00
  0.611307668686E+01  0.000000000000E+00 -0.114008128643E+01
  0.611307668686E+01  0.000000000000E+00  0.114008128643E+01
  0.625916051865E+01  0.386280250549E+01 -0.902062177658E+00
  0.625916051865E+01  0.386280250549E+01  0.902062177658E+00
  0.630684375763E+01  0.583337688446E+01 -0.436294704676E+00
  0.630684375763E+01  0.583337688446E+01  0.436294704676E+00
  0.636319684982E+01  0.478677463531E+01 -0.760521590710E+00
  0.636319684982E+01  0.478677463531E+01  0.760521590710E+00
  0.639696550369E+01  0.172824025154E+01 -0.111146748066E+01
  0.639696550369E+01  0.172824025154E+01  0.111146748066E+01
  0.645271682739E+01  0.339639574289E+00 -0.114008140564E+01
  0.645271682739E+01  0.339639574289E+00  0.114008140564E+01
  0.647650289536E+01  0.305185556412E+01 -0.102349007130E+01
  0.647650289536E+01  0.305185556412E+01  0.102349007130E+01
  0.677744340897E+01  0.583337688446E+01 -0.604294598103E+00
  0.677744340897E+01  0.583337688446E+01  0.604294598103E+00
  0.684844303131E+01  0.735364913940E+00 -0.114008152485E+01
  0.684844303131E+01  0.735364913940E+00  0.114008152485E+01
  0.701104879379E+01  0.701104879379E+01  0.000000000000E+00
  0.701248550415E+01  0.234375929832E+01 -0.111146771908E+01
  0.701248550415E+01  0.234375929832E+01  0.111146771908E+01
  0.715871477127E+01  0.701104879379E+01 -0.234921157360E+00
  0.715871477127E+01  0.701104879379E+01  0.234921157360E+00
  0.718313360214E+01  0.478677463531E+01 -0.902062416077E+00
  0.718313360214E+01  0.478677463531E+01  0.902062416077E+00
  0.728745079041E+01  0.386280250549E+01 -0.102349042892E+01
  0.728745079041E+01  0.386280250549E+01  0.102349042892E+01
  0.730835962296E+01  0.119528055191E+01 -0.114008176327E+01
  0.730835962296E+01  0.119528055191E+01  0.114008176327E+01
  0.740979957581E+01  0.583337688446E+01 -0.760521829128E+00
  0.740979957581E+01  0.583337688446E+01  0.760521829128E+00
  0.748451566696E+01  0.701104879379E+01 -0.436294883490E+00
  0.748451566696E+01  0.701104879379E+01  0.436294883490E+00
  0.771254587173E+01  0.000000000000E+00 -0.108925735950E+01
  0.771254587173E+01  0.000000000000E+00  0.108925735950E+01
  0.772058296204E+01  0.305185556412E+01 -0.111146795750E+01
  0.772058296204E+01  0.305185556412E+01  0.111146795750E+01
  0.784132003784E+01  0.172824025154E+01 -0.114008188248E+01
  0.784132003784E+01  0.172824025154E+01  0.114008188248E+01
  0.795511531830E+01  0.701104879379E+01 -0.604294836521E+00
  0.795511531830E+01  0.701104879379E+01  0.604294836521E+00
  0.805218601227E+01  0.339639574289E+00 -0.108925747871E+01
  0.805218601227E+01  0.339639574289E+00  0.108925747871E+01
  0.821142387390E+01  0.478677463531E+01 -0.102349066734E+01
  0.821142387390E+01  0.478677463531E+01  0.102349066734E+01
[...]
CELL_DATA                3576
SCALARS C_p_inc float 1
LOOKUP_TABLE default
  0.200373568568E+00
  0.173089125847E+00
  0.144780424171E+00
  0.124132786088E+00
  0.116122675149E+00
  0.104771835844E+00
  0.976861983906E-01
  0.911641702628E-01
  0.839231096720E-01
  0.794123185010E-01
  0.717610920395E-01
  0.682604938461E-01
  0.597976767262E-01
  0.566791630663E-01
  0.473002177681E-01
  0.443497969852E-01
  0.348749125627E-01
  0.322216645999E-01
  0.268797620355E-01
  0.256876106396E-01
  0.285159040407E-01
  0.275143043432E-01
  0.467115159663E-01
  0.413326336816E-01
  0.989140523004E-01
  0.839318636546E-01
  0.172358191737E+00
  0.152127603824E+00
  0.250701607511E+00
  0.227182783127E+00
  0.335734179220E+00
  0.306814760289E+00
  0.437448459986E+00
  0.402363438831E+00
  0.563274593694E+00
  0.528484953699E+00
  0.719803214647E+00
  0.714343017551E+00
  0.765164618094E+00
  0.721267975026E+00
  0.343649897412E-01
  0.295746093805E+00
 -0.444174403350E+00
 -0.136510339610E+00
 -0.518094731050E+00
 -0.352867536422E+00
 -0.510588325833E+00
 -0.428352456761E+00
 -0.514824837451E+00
 -0.473049889963E+00
 -0.523120994736E+00
 -0.499650720023E+00
 -0.539713747421E+00
 -0.523993197410E+00
 -0.551521874709E+00
 -0.545214393033E+00
 -0.528294759334E+00
 -0.536512075129E+00
 -0.471405554239E+00
 -0.483770438112E+00
 -0.419747423378E+00
 -0.406589583916E+00
 -0.352992225316E+00
 -0.338812437394E+00
 -0.287428383866E+00
 -0.273339138554E+00
 -0.228910320876E+00
 -0.214482488494E+00
 -0.176974373243E+00
 -0.161310747980E+00
 -0.129773213266E+00
 -0.111364397431E+00
 -0.847921342015E-01
 -0.614184193256E-01
 -0.392257233444E-01
 -0.602911694482E-02
  0.134421335141E-01
  0.634123784464E-01
  0.105649103880E+00
  0.164454940469E+00
  0.194228470529E+00
  0.198678872109E+00
  0.147249130338E+00
  0.144498258844E+00
  0.124881113299E+00
  0.116063056766E+00
  0.105049668339E+00
  0.976673345083E-01
  0.890419775373E-01
  0.839167295368E-01
  0.755573651464E-01
  0.717619839104E-01
  0.628802893808E-01
  0.598048022609E-01
  0.498888629112E-01
  0.473111418860E-01
  0.367566329039E-01
  0.348744285766E-01
  0.272020016101E-01
  0.268174519927E-01
  0.274337898457E-01
  0.253172228856E-01
  0.413770774560E-01
  0.348509679432E-01
  0.844149098598E-01
  0.713465670975E-01
  0.152459611863E+00
  0.135950353072E+00
  0.226510751765E+00
  0.209229345621E+00
  0.303653944436E+00
  0.287069332250E+00
  0.392052917692E+00
  0.379076275698E+00
  0.498176720099E+00
  0.493323895579E+00
  0.625323972098E+00
  0.623712996569E+00
  0.581915853886E+00
  0.514242693976E+00
 -0.191824857954E+00
 -0.512120737414E-01
 -0.597800992012E+00
 -0.422314829547E+00
 -0.635913230786E+00
 -0.504183193591E+00
 -0.591708245483E+00
 -0.507455211718E+00
 -0.567951082285E+00
 -0.515515573136E+00
 -0.557342372460E+00
 -0.524702245037E+00
 -0.561698512593E+00
 -0.541518597812E+00
 -0.562170953413E+00
 -0.553935599639E+00
 -0.526317312513E+00
 -0.530890425707E+00
 -0.462396819859E+00
 -0.473167568462E+00
 -0.406499692237E+00
 -0.394990836306E+00
 -0.338602047378E+00
 -0.325294406521E+00
 -0.273169638422E+00
 -0.258859800760E+00
 -0.214374185812E+00
 -0.198873104532E+00
 -0.161254683108E+00
 -0.143704170862E+00
 -0.111354751545E+00
 -0.903117019954E-01
 -0.614696805337E-01
 -0.351969644207E-01
 -0.623347768962E-02
  0.238939885601E-01
  0.625227008122E-01
  0.846451517174E-01
  0.160188910123E+00
  0.168071498606E+00
  0.187119221697E+00
  0.193461322752E+00
  0.144543862163E+00
  0.146884733350E+00
  0.126599715015E+00
  0.124707198096E+00
  0.110136972184E+00
  0.104987794949E+00
  0.941658948606E-01
  0.890201144031E-01
  0.796135130629E-01
  0.755529523577E-01
  0.660833670370E-01
  0.628874364289E-01
  0.524404783865E-01
  0.499041160761E-01
  0.384937271458E-01
  0.367632091726E-01
  0.274483666297E-01
  0.271424244710E-01
  0.253340033915E-01
  0.232175541019E-01
  0.352105861050E-01
  0.293057441888E-01
  0.721351208501E-01
  0.615016023057E-01
  0.136161120421E+00
  0.122939688951E+00
  0.207747112594E+00
  0.194825881604E+00
  0.282504476780E+00
  0.272092637702E+00
  0.368651769496E+00
  0.363005125585E+00
  0.472955053933E+00
  0.473164839361E+00
  0.590300711500E+00
  0.585853101175E+00
  0.487102185692E+00
  0.420455456973E+00
 -0.351649089981E+00
 -0.230515662511E+00
 -0.732195000848E+00
 -0.586410451578E+00
 -0.736515524261E+00
 -0.621186146360E+00
 -0.664128061043E+00
 -0.583571730782E+00
 -0.619372891737E+00
 -0.564405103144E+00
 -0.592882203665E+00
 -0.556439755483E+00
 -0.584826907397E+00
 -0.562480675084E+00
 -0.573511919306E+00
 -0.564695652696E+00
 -0.526527892288E+00
 -0.529861157739E+00
 -0.455103827158E+00
 -0.465404680046E+00
 -0.394900588291E+00
 -0.383828206053E+00
 -0.325012944879E+00
 -0.311683552843E+00
 -0.258615555128E+00
 -0.243680186010E+00
 -0.198709911684E+00
 -0.182004164038E+00
 -0.143620992883E+00
 -0.124449716567E+00
 -0.903208835791E-01
 -0.681976139098E-01
 -0.353739033757E-01
 -0.123768748002E-01
  0.232977219526E-01
  0.410789925883E-01
  0.832784079755E-01
  0.933020094229E-01
  0.165413596693E+00
  0.171755995789E+00
  0.188984250078E+00
  0.186804987517E+00
  0.143201351548E+00
  0.144281057924E+00
  0.125877734613E+00
  0.126408591779E+00
  0.111806820597E+00
  0.110028664321E+00
  0.978384743044E-01
  0.941195428386E-01
  0.834925615341E-01
  0.796001745830E-01
  0.693548478143E-01
  0.660889041496E-01
  0.550227774682E-01
  0.524580005292E-01
  0.402352767683E-01
  0.385059939718E-01
  0.278279572253E-01
  0.274042559835E-01
  0.232675700572E-01
  0.215164175511E-01
  0.296830179950E-01
  0.248032317246E-01
  0.621381804626E-01
  0.538201215841E-01
  0.122888280677E+00
  0.112751122740E+00
  0.193062355607E+00
  0.183732406690E+00
  0.267656907042E+00
  0.261286915167E+00
  0.354518181749E+00
  0.352637148964E+00
  0.459356765638E+00
  0.461343271049E+00
  0.567860391166E+00
  0.561687106282E+00
  0.412022391568E+00
  0.347305299177E+00
 -0.489363126523E+00
 -0.376087947878E+00
 -0.852730281841E+00
 -0.722568120175E+00
 -0.828162158819E+00
 -0.723546003234E+00
 -0.731936689496E+00
 -0.655633280341E+00
 -0.669447550552E+00
 -0.614766662653E+00
 -0.628642684582E+00
 -0.591205370025E+00
 -0.608419373983E+00
 -0.585484756764E+00
 -0.585452805302E+00
 -0.576415265341E+00
 -0.527936160794E+00
 -0.530650675020E+00
 -0.448772385372E+00
 -0.458893254035E+00
 -0.383875677381E+00
 -0.372922140868E+00
 -0.311417489057E+00
 -0.297858718737E+00
 -0.243401683358E+00
 -0.227794819569E+00
 -0.181801870119E+00
 -0.164137973629E+00
 -0.124351919563E+00
 -0.104722871302E+00
 -0.682560630123E-01
 -0.484292181385E-01
 -0.127103456167E-01
  0.335061907537E-02
  0.403439513747E-01
  0.504173795875E-01
  0.920834734762E-01
  0.965490489442E-01
  0.169474016700E+00
  0.166322062864E+00
  0.186682525779E+00
  0.188445443958E+00
  0.142087309120E+00
  0.142964063958E+00
  0.124997132733E+00
  0.125708962813E+00
  0.111808066592E+00
  0.111686867569E+00
  0.994955118591E-01
  0.977682739829E-01
  0.864230919174E-01
  0.834649058366E-01
  0.724239870097E-01
  0.693555381735E-01
  0.576089704865E-01
  0.550413455473E-01
  0.420508775865E-01
  0.402551098223E-01
  0.284501186994E-01
  0.278074623721E-01
  0.215651336569E-01
  0.203884825972E-01
  0.251183482938E-01
  0.214538300545E-01
  0.542767340983E-01
  0.481786492346E-01
  0.112558497478E+00
  0.105386595373E+00
  0.182049427916E+00
  0.175864525676E+00
  0.257491511782E+00
  0.254119235017E+00
  0.346115267781E+00
  0.346546558663E+00
  0.451947784342E+00
  0.454720864153E+00
  0.551620679936E+00
  0.544382199628E+00
  0.346565591778E+00
  0.283535312584E+00
 -0.615332335633E+00
 -0.506042785951E+00
 -0.964639387511E+00
 -0.844343312388E+00
 -0.913754420393E+00
 -0.817062826728E+00
 -0.796011228040E+00
 -0.724132578536E+00
 -0.717541951541E+00
 -0.664888450303E+00
 -0.663392378501E+00
 -0.626964459650E+00
 -0.631476812312E+00
 -0.609331786113E+00
 -0.597551432363E+00
 -0.588767728710E+00
 -0.529983701453E+00
 -0.532525095716E+00
 -0.443017924732E+00
 -0.453147285427E+00
 -0.373158496600E+00
 -0.362165570141E+00
 -0.297657906761E+00
 -0.283815534783E+00
 -0.227517469874E+00
 -0.211436405513E+00
 -0.163922642805E+00
 -0.146138180702E+00
 -0.104639117536E+00
 -0.866571174906E-01
 -0.485518935710E-01
 -0.332868006113E-01
  0.297039263814E-02
  0.135259063259E-01
  0.497806729234E-01
  0.559304114211E-01
  0.956774457026E-01
  0.987237596291E-01
  0.165311058467E+00
  0.167272374441E+00
  0.186715178417E+00
  0.186335177312E+00
  0.141272768602E+00
  0.141866789570E+00
  0.124098890987E+00
  0.124836528042E+00
  0.111264429158E+00
  0.111690076373E+00
  0.998342792647E-01
  0.994141253111E-01
  0.880156394871E-01
  0.863798915285E-01
  0.748436577095E-01
  0.724156237200E-01
  0.600397076243E-01
  0.576263100930E-01
  0.439441366610E-01
  0.420789292309E-01
  0.293836948280E-01
  0.284571375116E-01
  0.204235285124E-01
  0.199477328576E-01
  0.216882367049E-01
  0.193445926663E-01
  0.484812424508E-01
  0.445016082207E-01
  0.105142834626E+00
  0.100667135629E+00
  0.174446644975E+00
  0.171027398277E+00
  0.251138241290E+00
  0.250181097920E+00
  0.341779800241E+00
  0.343846967176E+00
  0.448487329302E+00
  0.451676677290E+00
  0.539107435325E+00
  0.531146431218E+00
  0.286719220085E+00
  0.225112360598E+00
 -0.733702763992E+00
 -0.627068447905E+00
 -0.107021986962E+01
 -0.957360334012E+00
 -0.994409710205E+00
 -0.904507118154E+00
 -0.856448907149E+00
 -0.789394223418E+00
 -0.763054721853E+00
 -0.713693477489E+00
 -0.696339523208E+00
 -0.662233167662E+00
 -0.653391615712E+00
 -0.632869017040E+00
 -0.609244666854E+00
 -0.601258251533E+00
 -0.532138624057E+00
 -0.534934620764E+00
 -0.437510158918E+00
 -0.447809180711E+00
 -0.362589304667E+00
 -0.351478395696E+00
 -0.283700461061E+00
 -0.269703966757E+00
 -0.211185445604E+00
 -0.195232092126E+00
 -0.145939267582E+00
 -0.129460986770E+00
 -0.866102461543E-01
 -0.719381366958E-01
 -0.334336180848E-01
 -0.224348263179E-01
  0.132079725243E-01
  0.204790280668E-01
  0.554807683771E-01
  0.599351639094E-01
  0.981571730351E-01
  0.100516150889E+00
  0.166420724860E+00
  0.166400834119E+00
  0.185157961324E+00
  0.186323957772E+00
  0.140339751399E+00
  0.141061453340E+00
  0.123258128409E+00
  0.123944325836E+00
  0.110570694719E+00
  0.111147646133E+00
  0.995618680550E-01
  0.997485224649E-01
  0.885533302110E-01
  0.879610924820E-01
  0.763319591429E-01
  0.748233688724E-01
  0.620429608182E-01
  0.600519303848E-01
  0.458192984839E-01
  0.439782310899E-01
  0.306308264289E-01
  0.294164168731E-01
  0.199665998680E-01
  0.202246071848E-01
  0.194998314879E-01
  0.184808383667E-01
  0.446833959810E-01
  0.426661317620E-01
  0.100432267297E+00
  0.983306140415E-01
  0.169944930189E+00
  0.168917095592E+00
  0.248027168357E+00
  0.249076030466E+00
  0.340603081940E+00
  0.343932999489E+00
  0.447854280900E+00
  0.451290423465E+00
  0.529124836745E+00
  0.520616165585E+00
  0.230617213410E+00
  0.170323945539E+00
 -0.846071027795E+00
 -0.742005592889E+00
 -0.117017713102E+01
 -0.106403772668E+01
 -0.107029539475E+01
 -0.986991595235E+00
 -0.912979944207E+00
 -0.851262534602E+00
 -0.805449431367E+00
 -0.760263808989E+00
 -0.726916512117E+00
 -0.695967040531E+00
 -0.673695978992E+00
 -0.655365727703E+00
 -0.620049864100E+00
 -0.613332663271E+00
 -0.533978068666E+00
 -0.537358990273E+00
 -0.432021939813E+00
 -0.442552202240E+00
 -0.352053509829E+00
 -0.340897861807E+00
 -0.269674641819E+00
 -0.255954418064E+00
 -0.195028967380E+00
 -0.180215517289E+00
 -0.129307159442E+00
 -0.115422450856E+00
 -0.719249845804E-01
 -0.607789314539E-01
 -0.225568717790E-01
 -0.146029207834E-01
  0.202638525319E-01
  0.256135511511E-01
  0.596570516229E-01
  0.631761689432E-01
  0.100191846394E+00
  0.102569693084E+00
  0.166044749882E+00
  0.168100860546E+00
  0.184499167385E+00
  0.184851120445E+00
  0.139661666353E+00
  0.140142727169E+00
  0.122538549859E+00
  0.123106767560E+00
  0.109887436519E+00
  0.110453397192E+00
  0.990682311869E-01
  0.994725847141E-01
  0.885042119400E-01
  0.884909914124E-01
  0.769979070230E-01
  0.762999768123E-01
  0.634162227442E-01
  0.620459173361E-01
  0.474927714546E-01
  0.458543854866E-01
  0.321007307997E-01
  0.306825554169E-01
  0.202320924251E-01
  0.211585184022E-01
  0.185712539207E-01
  0.187755370549E-01
  0.427622461036E-01
  0.424904952202E-01
  0.981392630243E-01
  0.980690201707E-01
  0.168170027449E+00
  0.169142865138E+00
  0.247672387108E+00
  0.250364182798E+00
  0.341972310341E+00
  0.346289670687E+00
  0.449364329853E+00
  0.452934200585E+00
  0.520972474483E+00
  0.512023876450E+00
  0.177347012115E+00
  0.118462243771E+00
 -0.952765299997E+00
 -0.851878762620E+00
 -0.126437094670E+01
 -0.116511026540E+01
 -0.114111452909E+01
 -0.106465091822E+01
 -0.965215568742E+00
 -0.909288726186E+00
 -0.844292910128E+00
 -0.803828915887E+00
 -0.754713974609E+00
 -0.727404242030E+00
 -0.691992703472E+00
 -0.676251920522E+00
 -0.629581892547E+00
 -0.624464278950E+00
 -0.535221395565E+00
 -0.539344313696E+00
 -0.426493917908E+00
 -0.437122199494E+00
 -0.341570441906E+00
 -0.330688561853E+00
 -0.256003665740E+00
 -0.243300581809E+00
 -0.180081580700E+00
 -0.167412278776E+00
 -0.115327541928E+00
 -0.104464270873E+00
 -0.607808717489E-01
 -0.525201553523E-01
 -0.146777347606E-01
 -0.878668811043E-02
  0.254997487671E-01
  0.296235930539E-01
  0.630428556941E-01
  0.659359809638E-01
  0.102418983775E+00
  0.104446965564E+00
  0.167881364291E+00
  0.169229175157E+00
  0.184749520677E+00
  0.184206705886E+00
  0.139487047587E+00
  0.139474217942E+00
  0.122131909735E+00
  0.122390422394E+00
  0.109373923033E+00
  0.109768912097E+00
  0.985782383291E-01
  0.989748981721E-01
  0.882198210102E-01
  0.884351767395E-01
  0.771544267960E-01
  0.769557627987E-01
  0.641908940275E-01
  0.634076383918E-01
  0.488049680956E-01
  0.475225485840E-01
  0.336243217154E-01
  0.321616466409E-01
  0.211630778366E-01
  0.225966838390E-01
  0.188214138050E-01
  0.200483999789E-01
  0.425327662603E-01
  0.437212745294E-01
  0.979366462307E-01
  0.995305544497E-01
  0.168693500034E+00
  0.171269242552E+00
  0.249588236403E+00
  0.253563776355E+00
  0.345362854021E+00
  0.350407226635E+00
  0.452482237393E+00
  0.456078248815E+00
  0.514138410048E+00
  0.504854138897E+00
  0.126473119722E+00
  0.693088390278E-01
 -0.105346493304E+01
 -0.956737867807E+00
 -0.135227446970E+01
 -0.126040952480E+01
 -0.120641023967E+01
 -0.113711903339E+01
 -0.101278496249E+01
 -0.962939926466E+00
 -0.879260235555E+00
 -0.843788556288E+00
 -0.779440615257E+00
 -0.756001181807E+00
 -0.708007019163E+00
 -0.695045683213E+00
 -0.637617312678E+00
 -0.634201327178E+00
 -0.535789231654E+00
 -0.540555104704E+00
 -0.421104067239E+00
 -0.431417566426E+00
 -0.331405827631E+00
 -0.321365290642E+00
 -0.243424989917E+00
 -0.232521473117E+00
 -0.167360975153E+00
 -0.157311025410E+00
 -0.104423773641E+00
 -0.962839973354E-01
 -0.525232257631E-01
 -0.464328288466E-01
 -0.881360950926E-02
 -0.441102215750E-02
  0.295926426974E-01
  0.327315600640E-01
  0.659099767395E-01
  0.680994262356E-01
  0.104426529406E+00
  0.105829367970E+00
  0.169206469777E+00
  0.169745498506E+00
  0.185314491986E+00
  0.184438257588E+00
  0.139587178791E+00
  0.139293290335E+00
  0.121977702002E+00
  0.121979950678E+00
  0.109069833381E+00
  0.109251408651E+00
  0.982132461356E-01
  0.984797938792E-01
  0.879172496095E-01
  0.881440637645E-01
  0.770912610026E-01
  0.771031796540E-01
  0.645687892542E-01
  0.641705958566E-01
  0.497385701284E-01
  0.488244829158E-01
  0.350366999226E-01
  0.336840047341E-01
  0.226058084007E-01
  0.243219607644E-01
  0.200698357738E-01
  0.220387245420E-01
  0.437350741294E-01
  0.460359430497E-01
  0.994582761967E-01
  0.102320649789E+00
  0.171061722302E+00
  0.174836160984E+00
  0.253276515103E+00
  0.258173850381E+00
  0.350265227834E+00
  0.355771201483E+00
  0.456716666899E+00
  0.460227679354E+00
  0.508198317283E+00
  0.498712380599E+00
  0.778490428989E-01
  0.229062490923E-01
 -0.114755528135E+01
 -0.105610518071E+01
 -0.143325477046E+01
 -0.134935207390E+01
 -0.126574061938E+01
 -0.120386259211E+01
 -0.105541115949E+01
 -0.101173855124E+01
 -0.910158889968E+00
 -0.879705222926E+00
 -0.800957153098E+00
 -0.781369723611E+00
 -0.721648859457E+00
 -0.711391132524E+00
 -0.644158315521E+00
 -0.642247905694E+00
 -0.535852483430E+00
 -0.540857932215E+00
 -0.416252650756E+00
 -0.425595062750E+00
 -0.322091624277E+00
 -0.313512451210E+00
 -0.232720173982E+00
 -0.224057207160E+00
 -0.157339984079E+00
 -0.149800040397E+00
 -0.962860198865E-01
 -0.903381131498E-01
 -0.464323055864E-01
 -0.419805504776E-01
 -0.439883262088E-02
 -0.114474621954E-02
  0.327655552727E-01
  0.351106086802E-01
  0.681622083077E-01
  0.698052306015E-01
  0.105929065278E+00
  0.106963057650E+00
  0.169916524864E+00
  0.170221064468E+00
  0.185133776194E+00
  0.184975003182E+00
  0.139512616028E+00
  0.139379290813E+00
  0.121853547815E+00
  0.121816154414E+00
  0.108874461847E+00
  0.108939714150E+00
  0.979698483538E-01
  0.981078282917E-01
  0.876886660650E-01
  0.878341821473E-01
  0.769919969526E-01
  0.770313863267E-01
  0.647650321954E-01
  0.645375130809E-01
  0.504038987580E-01
  0.497455807054E-01
  0.362671631390E-01
  0.350869740373E-01
  0.243382493308E-01
  0.261256465065E-01
  0.220509332608E-01
  0.244463784966E-01
  0.460384427253E-01
  0.490661297842E-01
  0.102298996718E+00
  0.106013932615E+00
  0.174806850579E+00
  0.179371783525E+00
  0.258235995875E+00
  0.263693864822E+00
  0.356177452446E+00
  0.361879665384E+00
  0.461602276261E+00
  0.464921679602E+00
  0.502804114160E+00
  0.493288046242E+00
  0.315409363684E-01
 -0.205609415850E-01
 -0.123435472733E+01
 -0.114925649312E+01
 -0.150676189374E+01
 -0.143124478662E+01
 -0.131880014805E+01
 -0.126437596943E+01
 -0.109297847153E+01
 -0.105533371411E+01
 -0.936981403061E+00
 -0.911309433245E+00
 -0.819329394578E+00
 -0.803297424063E+00
 -0.733061060889E+00
 -0.725131077530E+00
 -0.649453667486E+00
 -0.648553656722E+00
 -0.535787004929E+00
 -0.540407522590E+00
 -0.412383060635E+00
 -0.420099417658E+00
 -0.314232078995E+00
 -0.307492453506E+00
 -0.224323373400E+00
 -0.217880724048E+00
 -0.149895390614E+00
 -0.144459528120E+00
 -0.903719860754E-01
 -0.861110580779E-01
 -0.419773884929E-01
 -0.387531467943E-01
 -0.110394631070E-02
  0.131273261871E-02
  0.351940565408E-01
  0.370215104000E-01
  0.699386006720E-01
  0.713572752703E-01
  0.107160614871E+00
  0.108325771960E+00
  0.170547913486E+00
  0.171687755884E+00
  0.185220035461E+00
  0.184812434648E+00
  0.139522805697E+00
  0.139302393646E+00
  0.121788419663E+00
  0.121685287635E+00
  0.108749352979E+00
  0.108736613478E+00
  0.978104479684E-01
  0.978566530320E-01
  0.875406402696E-01
  0.875977952133E-01
  0.769328128729E-01
  0.769237214719E-01
  0.649186926809E-01
  0.647236674919E-01
  0.509356475906E-01
  0.503982981373E-01
  0.373413009533E-01
  0.363036625680E-01
  0.261463009515E-01
  0.278765287510E-01
  0.244572066464E-01
  0.270008371311E-01
  0.490661215492E-01
  0.524465264164E-01
  0.106026757278E+00
  0.110186877052E+00
  0.179456316311E+00
  0.184416140417E+00
  0.263975089471E+00
  0.269646965118E+00
  0.362619318802E+00
  0.368267017693E+00
  0.466713594410E+00
  0.469751376550E+00
  0.497693144324E+00
  0.488345946943E+00
 -0.122332410400E-01
 -0.608546832632E-01
 -0.131329266106E+01
 -0.123542141823E+01
 -0.157247925050E+01
 -0.150548870382E+01
 -0.136552648946E+01
 -0.131831151104E+01
 -0.112559740468E+01
 -0.109356554470E+01
 -0.959949009758E+00
 -0.938548354951E+00
 -0.834850923236E+00
 -0.821808786325E+00
 -0.742603820838E+00
 -0.736380133726E+00
 -0.653920186598E+00
 -0.653370436821E+00
 -0.535999843589E+00
 -0.539637947469E+00
 -0.409749381183E+00
 -0.415490343859E+00
 -0.308199576816E+00
 -0.303311495758E+00
 -0.218199772078E+00
 -0.213658904476E+00
 -0.144604601007E+00
 -0.140804352322E+00
 -0.861693070875E-01
 -0.831586794038E-01