# vtk DataFile Version 3.0
MachLine results file. Generated by MachLine, USU AeroLab (c) 2022.
ASCII
DATASET POLYDATA
POINTS                 144 float
  0.568964789312E+00  0.000000000000E+00  0.772108502507E-16
  0.141397069721E+01  0.000000000000E+00 -0.282586358395E-01
  0.141397069721E+01  0.000000000000E+00  0.282586358395E-01
  0.244657817356E+01  0.140092929645E+01 -0.432768775862E-15
  0.329403441705E+01  0.168885481689E+01  0.471418788504E-01
  0.329403441705E+01  0.168885481689E+01 -0.471418788504E-01
  0.432287019764E+01  0.000000000000E+00 -0.144569128797E+00
  0.432287019764E+01  0.000000000000E+00  0.144569128797E+00
  0.628219146941E+01  0.465847186403E+01  0.480013096762E-15
  0.621373343781E+01  0.186405756854E+01 -0.634533532074E-01
  0.621373343781E+01  0.186405756854E+01  0.634533532074E-01
  0.695227544007E+01  0.512377110591E+01  0.382397111204E+00
  0.695227544007E+01  0.512377110591E+01 -0.382397111204E+00
  0.936371284868E+01  0.000000000000E+00 -0.192541187517E+00
  0.936371284868E+01  0.000000000000E+00  0.192541187517E+00
  0.978150062230E+01  0.538945111301E+01  0.299938956065E+00
  0.978150062230E+01  0.538945111301E+01 -0.299938956065E+00
  0.112617495294E+02  0.198085234413E+01 -0.106769808171E-01
  0.112617495294E+02  0.198085234413E+01  0.106769808171E-01
  0.125181926615E+02  0.102458111306E+02  0.537419370339E-15
  0.130001838556E+02  0.108992055848E+02  0.791434105449E+00
  0.130001838556E+02  0.108992055848E+02 -0.791434105449E+00
  0.144695064082E+02  0.000000000000E+00  0.227185821049E+00
  0.144695064082E+02  0.000000000000E+00 -0.227185821049E+00
  0.147930147489E+02  0.554275408268E+01  0.249663689096E+00
  0.147930147489E+02  0.554275408268E+01 -0.249663689096E+00
  0.157191928163E+02  0.112751085443E+02  0.746157898514E+00
  0.157191928163E+02  0.112751085443E+02 -0.746157898514E+00
  0.163886790030E+02  0.199904156994E+01  0.254080267006E+00
  0.163886790030E+02  0.199904156994E+01 -0.254080267006E+00
  0.175988183368E+02  0.000000000000E+00  0.336252333678E+00
  0.175988183368E+02  0.000000000000E+00 -0.336252333678E+00
  0.186109542155E+02  0.324917544294E-02 -0.113117838273E+00
  0.195112196311E+02  0.198680854485E+01  0.443190372781E+00
  0.195112196311E+02  0.198680854485E+01 -0.443190372781E+00
  0.210855904619E+02  0.184267995916E+02  0.157201256223E-15
  0.199047960450E+02  0.557609726668E+01  0.551090984975E+00
  0.199047960450E+02  0.557609726668E+01 -0.551090984975E+00
  0.206811680642E+02  0.114779590194E+02  0.649502125648E+00
  0.206811680642E+02  0.114779590194E+02 -0.649502125648E+00
  0.214756265934E+02  0.191721510566E+02  0.109541973521E+01
  0.214756265934E+02  0.191721510566E+02 -0.109541973521E+01
  0.204819162104E+02  0.236560542090E+01 -0.472107984864E-01
  0.230197423395E+02  0.557146245570E+01  0.797888358617E+00
  0.230197423395E+02  0.557146245570E+01 -0.797888358617E+00
  0.241127987830E+02  0.196298985676E+02  0.107899254435E+01
  0.241127987830E+02  0.196298985676E+02 -0.107899254435E+01
  0.237411115998E+02  0.619959016264E+01 -0.779195012371E-01
  0.257731798207E+02  0.115310813608E+02  0.973192020964E+00
  0.257731798207E+02  0.115310813608E+02 -0.973192020964E+00
  0.288838014997E+02  0.115307788061E+02  0.124173752004E+01
  0.288838014997E+02  0.115307788061E+02 -0.124173752004E+01
  0.290330410828E+02  0.198744973621E+02  0.102912946115E+01
  0.290330410828E+02  0.198744973621E+02 -0.102912946115E+01
  0.304991941974E+02  0.279884157125E+02 -0.940184487917E-15
  0.309633712662E+02  0.286596319067E+02  0.109580727182E+01
  0.309633712662E+02  0.286596319067E+02 -0.109580727182E+01
  0.293295905170E+02  0.124344903127E+02 -0.112455847521E+00
  0.336004622586E+02  0.291174681193E+02  0.107967846997E+01
  0.336004622586E+02  0.291174681193E+02 -0.107967846997E+01
  0.341140326885E+02  0.199386532251E+02  0.129847228634E+01
  0.341140326885E+02  0.199386532251E+02 -0.129847228634E+01
  0.372224547167E+02  0.199405598789E+02  0.157325761392E+01
  0.372224547167E+02  0.199405598789E+02 -0.157325761392E+01
  0.385907776285E+02  0.366452147338E+02  0.103528484894E-14
  0.385148267914E+02  0.293679600681E+02  0.112856242832E+01
  0.385148267914E+02  0.293679600681E+02 -0.112856242832E+01
  0.392365997558E+02  0.371347877953E+02  0.792665761665E+00
  0.392365997558E+02  0.371347877953E+02 -0.792665761665E+00
  0.375112117682E+02  0.210013080220E+02 -0.133037299014E+00
  0.419553443416E+02  0.375109838354E+02  0.748191850264E+00
  0.419553443416E+02  0.375109838354E+02 -0.748191850264E+00
  0.441854237464E+02  0.428739102780E+02 -0.542804227168E-15
  0.436014081202E+02  0.294265433216E+02  0.130120129723E+01
  0.436014081202E+02  0.294265433216E+02 -0.130120129723E+01
  0.450123389239E+02  0.431823941216E+02  0.384529470252E+00
  0.450123389239E+02  0.431823941216E+02 -0.384529470252E+00
  0.467100137338E+02  0.294282740068E+02  0.157422763126E+01
  0.467100137338E+02  0.294282740068E+02 -0.157422763126E+01
  0.469047853318E+02  0.377264106753E+02  0.861135520608E+00
  0.469047853318E+02  0.377264106753E+02 -0.861135520608E+00
  0.474936134205E+02  0.466588827835E+02  0.164511549010E-16
  0.478410674218E+02  0.434486097166E+02  0.302958394749E+00
  0.478410674218E+02  0.434486097166E+02 -0.302958394749E+00
  0.484474242579E+02  0.468404670455E+02  0.497793093522E-01
  0.484474242579E+02  0.468404670455E+02 -0.497793093522E-01
  0.470726430775E+02  0.304151533447E+02 -0.125155912156E+00
  0.492274077682E+02  0.487244831296E+02  0.128190791274E-16
  0.502757652090E+02  0.487836297762E+02 -0.212070844252E+00
  0.502757652090E+02  0.487836297762E+02  0.212070844252E+00
  0.506936738868E+02  0.491511809382E+02 -0.223650248268E+00
  0.506936738868E+02  0.491511809382E+02  0.223650248268E+00
  0.508600378638E+02  0.493379935477E+02 -0.590201444124E-15
  0.513664602192E+02  0.470163792352E+02 -0.605062134957E-01
  0.513664602192E+02  0.470163792352E+02  0.605062134957E-01
  0.520081507085E+02  0.377682250584E+02  0.984388353768E+00
  0.520081507085E+02  0.377682250584E+02 -0.984388353768E+00
  0.528422808998E+02  0.436122752770E+02  0.422705047164E+00
  0.528422808998E+02  0.436122752770E+02 -0.422705047164E+00
  0.532712220733E+02  0.488132571183E+02 -0.329603464639E+00
  0.532712220733E+02  0.488132571183E+02  0.329603464639E+00
  0.540275370717E+02  0.492912689691E+02 -0.308776578376E+00
  0.540275370717E+02  0.492912689691E+02  0.308776578376E+00
  0.543376717578E+02  0.494882573609E+02 -0.875913582033E-16
  0.551195355106E+02  0.377671841645E+02  0.124556471509E+01
  0.551195355106E+02  0.377671841645E+02 -0.124556471509E+01
  0.564100823215E+02  0.471376438637E+02  0.623138890792E-01
  0.564100823215E+02  0.471376438637E+02 -0.623138890792E-01
  0.557285115433E+02  0.385077190071E+02 -0.950647977907E-01
  0.579612589093E+02  0.436384846268E+02  0.580829229557E+00
  0.579612589093E+02  0.436384846268E+02 -0.580829229557E+00
  0.583454950417E+02  0.488834287873E+02 -0.150061724679E+00
  0.583454950417E+02  0.488834287873E+02  0.150061724679E+00
  0.590396185137E+02  0.491949726267E+02 -0.150833784210E+00
  0.590396185137E+02  0.491949726267E+02  0.150833784210E+00
  0.593184771628E+02  0.491995735824E+02 -0.390744613640E-15
  0.610781195262E+02  0.436319755256E+02  0.808858270102E+00
  0.610781195262E+02  0.436319755256E+02 -0.808858270102E+00
  0.615374339572E+02  0.471554871877E+02  0.292578745605E+00
  0.615374339572E+02  0.471554871877E+02 -0.292578745605E+00
  0.619555315599E+02  0.441040727898E+02 -0.613740464713E-01
  0.634783901535E+02  0.489394759703E+02  0.124654610420E+00
  0.634783901535E+02  0.489394759703E+02 -0.124654610420E+00
  0.638209122952E+02  0.489906339722E+02  0.586327274410E-01
  0.638209122952E+02  0.489906339722E+02 -0.586327274410E-01
  0.639672883530E+02  0.490235527920E+02  0.277676140102E-15
  0.646609390522E+02  0.471423373736E+02  0.471455588607E+00
  0.646609390522E+02  0.471423373736E+02 -0.471455588607E+00
  0.657363005924E+02  0.474164874337E+02 -0.363537316218E-01
  0.666076930394E+02  0.489615615107E+02  0.257264682985E+00
  0.666076930394E+02  0.489615615107E+02 -0.257264682985E+00
  0.667197153211E+02  0.489145683604E+02  0.113016213698E+00
  0.667197153211E+02  0.489145683604E+02 -0.113016213698E+00
  0.667696724652E+02  0.489334458426E+02  0.698201196615E-17
  0.677018201472E+02  0.489355666281E+02 -0.148411887243E-14
  0.186109542155E+02  0.324917544294E-02  0.113117838273E+00
  0.204819162104E+02  0.236560542090E+01  0.472107984864E-01
  0.237411115998E+02  0.619959016264E+01  0.779195012371E-01
  0.293295905170E+02  0.124344903127E+02  0.112455847521E+00
  0.375112117682E+02  0.210013080220E+02  0.133037299014E+00
  0.470726430775E+02  0.304151533447E+02  0.125155912156E+00
  0.557285115433E+02  0.385077190071E+02  0.950647977907E-01
  0.619555315599E+02  0.441040727898E+02  0.613740464713E-01
  0.657363005924E+02  0.474164874337E+02  0.363537316218E-01
VERTICES                 144                 288
1                   0
1                   1
1                   2
1                   3
1                   4
1                   5
1                   6
1                   7
1                   8
1                   9
1                  10
1                  11
1                  12
1                  13
1                  14
1                  15
1                  16
1                  17
1                  18
1                  19
1                  20
1                  21
1                  22
1                  23
1                  24
1                  25
1                  26
1                  27
1                  28
1                  29
1                  30
1                  31
1                  32
1                  33
1                  34
1                  35
1                  36
1                  37
1                  38
1                  39
1                  40
1                  41
1                  42
1                  43
1                  44
1                  45
1                  46
1                  47
1                  48
1                  49
1                  50
1                  51
1                  52
1                  53
1                  54
1                  55
1                  56
1                  57
1                  58
1                  59
1                  60
1                  61
1                  62
1                  63
1                  64
1                  65
1                  66
1                  67
1                  68
1                  69
1                  70
1                  71
1                  72
1                  73
1                  74
1                  75
1                  76
1                  77
1                  78
1                  79
1                  80
1                  81
1                  82
1                  83
1                  84
1                  85
1                  86
1                  87
1                  88
1                  89
1                  90
1                  91
1                  92
1                  93
1                  94
1                  95
1                  96
1                  97
1                  98
1                  99
1                 100
1                 101
1                 102
1                 103
1                 104
1                 105
1                 106
1                 107
1                 108
1                 109
1                 110
1                 111
1                 112
1                 113
1                 114
1                 115
1                 116
1                 117
1                 118
1                 119
1                 120
1                 121
1                 122
1                 123
1                 124
1                 125
1                 126
1                 127
1                 128
1                 129
1                 130
1                 131
1                 132
1                 133
1                 134
1                 135
1                 136
1                 137
1                 138
1                 139
1                 140
1                 141
1                 142
1                 143
POINT_DATA                 144
SCALARS BC_type int 1
LOOKUP_TABLE default
           2
           2
           2
           2
           2
           2
           2
           2
           2
           2
           2
           2
           2
           2
           2
           2
           2
           2
           2
           2
           2
           2
           2
           2
           2
           2
           2
           2
           2
           2
           2
           2
           2
           2
           2
           2
           2
           2
           2
           2
           2
           2
           2
           2
           2
           2
           2
           2
           2
           2
           2
           2
           2
           2
           2
           2
           2
           2
           2
           2
           2
           2
           2
           2
           2
           2
           2
           2
           2
           2
           2
           2
           2
           2
           2
           2
           2
           2
           2
           2
           2
           2
           2
           2
           2
           2
           2
           2
           2
           2
           2
           2
           2
           2
           2
           2
           2
           2
           2
           2
           2
           2
           2
           2
           2
           2
           2
           2
           2
           2
           2
           2
           2
           2
           2
           2
           2
           2
           2
           2
           2
           2
           2
           2
           2
           2
           2
           2
           2
           2
           2
           2
           2
           2
           2
           2
           2
           2
           2
           2
           2
           2
           2
           2
SCALARS residual float 1
LOOKUP_TABLE default
 -0.485241069548E-09
 -0.636838405788E-06
  0.636567306422E-06
  0.498644991964E-08
  0.367358961029E-07
 -0.413813951994E-07
 -0.483238080662E-07
  0.480571786809E-07
 -0.509257525039E-08
 -0.175457916640E-06
  0.176760609705E-06
  0.201741059414E-07
 -0.145241765281E-07
 -0.444870984495E-07
  0.444613021955E-07
  0.722986754909E-07
 -0.728257809612E-07
 -0.162833314157E-04
  0.162831779846E-04
 -0.414082457212E-08
  0.790445930932E-08
 -0.475187889037E-08
  0.330726699360E-07
 -0.330547518246E-07
  0.758469909101E-07
 -0.757392726314E-07
  0.746525863349E-08
 -0.701510671774E-08
  0.373962159017E-07
 -0.373978110702E-07
 -0.247114684271E-08
  0.247210607540E-08
 -0.594070570514E-09
  0.562605251275E-08
 -0.424407176070E-10
 -0.180844139663E-08
  0.182297199558E-08
  0.103715933619E-07
 -0.103883941449E-07
 -0.974754499339E-09
  0.963758850503E-09
  0.811215414842E-07
 -0.280126499774E-08
  0.393519883346E-09
 -0.391786159071E-09
  0.642129194262E-08
 -0.217486473275E-09
  0.222716067810E-09
  0.177073289365E-08
 -0.564106983347E-09
  0.565499647109E-09
 -0.108357767203E-11
 -0.112201803404E-09
  0.111075593168E-09
  0.693594870427E-08
  0.471231942356E-10
 -0.494750906910E-10
  0.102978958694E-09
 -0.780396192113E-09
  0.754873497044E-09
  0.165769620253E-10
 -0.105373487713E-10
  0.118660636872E-10
  0.239595010498E-10
  0.661515286993E-11
  0.457592364000E-08
 -0.138953737405E-09
  0.145895739934E-09
 -0.154159351951E-09
  0.117523768495E-10
 -0.280387268958E-09
  0.488505236262E-09
 -0.188443038951E-09
  0.172150294020E-09
 -0.142328815400E-09
  0.138669520311E-09
  0.146165746173E-09
 -0.486792828269E-09
  0.334196670337E-09
  0.382301124091E-08
 -0.414949852257E-08
  0.120956400451E-08
 -0.105565334252E-09
  0.202429362162E-08
 -0.144560630133E-08
  0.180875758815E-09
 -0.550890888462E-09
  0.168991753924E-06
 -0.168198049266E-06
  0.276074274552E-09
 -0.271654698736E-09
 -0.231605667977E-08
  0.232576979897E-08
 -0.146717979987E-07
  0.981165726444E-08
  0.890542395382E-08
  0.713590964097E-09
 -0.497708896319E-08
 -0.250338416663E-09
  0.241044517679E-09
  0.119667049603E-07
 -0.119734338000E-07
  0.102260599988E-08
  0.127997168420E-09
 -0.786712917034E-10
  0.188591890549E-06
 -0.182534400039E-06
 -0.165014483855E-06
  0.106225513719E-06
  0.204563832540E-08
 -0.217770690369E-08
  0.370526720417E-09
 -0.614065243099E-09
 -0.151796797354E-07
  0.129320198994E-08
 -0.267408140076E-07
 -0.212095017105E-07
  0.824109704922E-07
 -0.380991238558E-07
 -0.153096380018E-08
  0.260331489699E-08
 -0.171267799942E-08
 -0.419504431193E-09
  0.305533376377E-11
 -0.248023468430E-08
  0.252640575127E-08
 -0.473221462016E-10
  0.594809534959E-09
 -0.811219571517E-07
 -0.693513513284E-08
 -0.457813342791E-08
 -0.121176668699E-08
 -0.102453867612E-08
  0.151580579200E-07
 -0.115552495572E-06
 -0.562435786833E-08
  0.279520406821E-08
 -0.177103842702E-08
 -0.100854435914E-09
 -0.797939492259E-11
  0.158891566571E-09
  0.547099503478E-07
  0.115588392191E-06
 -0.642241460014E-08
