# vtk DataFile Version 3.0
MachLine results file. Generated by MachLine, USU AeroLab (c) 2022.
ASCII
DATASET POLYDATA
POINTS                1436 float
  0.000000000000E+00  0.000000000000E+00  0.000000000000E+00
  0.989015863362E+04  0.000000000000E+00  0.147809411130E+04
  0.147665724158E+00  0.000000000000E+00 -0.234920635819E+00
  0.989019620184E+04  0.000000000000E+00  0.147784273648E+04
  0.147665724158E+00  0.000000000000E+00  0.234920635819E+00
  0.989012751769E+04  0.000000000000E+00  0.147830231283E+04
  0.339639574289E+00  0.339639574289E+00  0.000000000000E+00
  0.989016605394E+04  0.339639574289E+00  0.147804446080E+04
  0.473465979099E+00  0.000000000000E+00 -0.436293870211E+00
  0.989023275772E+04  0.000000000000E+00  0.147759813538E+04
  0.473465979099E+00  0.000000000000E+00  0.436293870211E+00
  0.989010519773E+04  0.000000000000E+00  0.147845165916E+04
  0.487305283546E+00  0.339639574289E+00 -0.234920650721E+00
  0.989020362216E+04  0.339639574289E+00  0.147779308596E+04
  0.487305283546E+00  0.339639574289E+00  0.234920650721E+00
  0.989013493801E+04  0.339639574289E+00  0.147825266235E+04
  0.735364913940E+00  0.735364913940E+00  0.000000000000E+00
  0.989017469959E+04  0.735364913940E+00  0.147798661135E+04
  0.813105583191E+00  0.339639574289E+00 -0.436293929815E+00
  0.989024017804E+04  0.339639574289E+00  0.147754848482E+04
  0.813105583191E+00  0.339639574289E+00  0.436293929815E+00
  0.989011261804E+04  0.339639574289E+00  0.147840200871E+04
  0.120883107185E+01  0.735364913940E+00 -0.436293989420E+00
  0.989024882371E+04  0.735364913940E+00  0.147749063529E+04
  0.120883107185E+01  0.735364913940E+00  0.436293989420E+00
  0.989012126369E+04  0.735364913940E+00  0.147834415930E+04
  0.128370416164E+01  0.339639574289E+00 -0.604293525219E+00
  0.989027501867E+04  0.339639574289E+00  0.147731536076E+04
  0.166874670982E+01  0.119528055191E+01 -0.436294049025E+00
  0.989025887178E+04  0.119528055191E+01  0.147742340207E+04
  0.166874670982E+01  0.119528055191E+01  0.436294049025E+00
  0.989013131175E+04  0.119528055191E+01  0.147827692620E+04
  0.167942965031E+01  0.735364913940E+00 -0.604293584824E+00
  0.989028366434E+04  0.735364913940E+00  0.147725751123E+04
  0.191605937481E+01  0.339639574289E+00  0.760520458221E+00
  0.989008931763E+04  0.339639574289E+00  0.147855791542E+04
  0.213934540749E+01  0.119528055191E+01 -0.604293704033E+00
  0.989029371242E+04  0.119528055191E+01  0.147719027794E+04
  0.213934540749E+01  0.119528055191E+01  0.604293704033E+00
  0.989011703404E+04  0.119528055191E+01  0.147837246059E+04
  0.239635515213E+01  0.000000000000E+00 -0.902061045170E+00
  0.989034285684E+04  0.000000000000E+00  0.147686144492E+04
  0.239635515213E+01  0.000000000000E+00  0.902061045170E+00
  0.989007911972E+04  0.000000000000E+00  0.147862615123E+04
  0.249142503738E+01  0.234375929832E+01 -0.234920814633E+00
  0.989024740743E+04  0.234375929832E+01  0.147750011185E+04
  0.277170085907E+01  0.119528055191E+01 -0.760520696640E+00
  0.989033036606E+04  0.119528055191E+01  0.147694502272E+04
  0.277170085907E+01  0.119528055191E+01  0.760520696640E+00
  0.989010801133E+04  0.119528055191E+01  0.147843283297E+04
  0.281722569466E+01  0.234375929832E+01 -0.436294227839E+00
  0.989028396334E+04  0.234375929832E+01  0.147725551052E+04
  0.319952154160E+01  0.305185556412E+01  0.234920859337E+00
  0.989019419345E+04  0.305185556412E+01  0.147785617491E+04
  0.328782463074E+01  0.234375929832E+01 -0.604293942451E+00
  0.989031880399E+04  0.234375929832E+01  0.147702238629E+04
  0.328782463074E+01  0.234375929832E+01  0.604293942451E+00
  0.989014212554E+04  0.234375929832E+01  0.147820456941E+04
  0.352532196045E+01  0.305185556412E+01  0.436294317245E+00
  0.989017187346E+04  0.305185556412E+01  0.147800552142E+04
  0.359163665771E+01  0.119528055191E+01 -0.902061402798E+00
  0.989036897095E+04  0.119528055191E+01  0.147668671132E+04
  0.359163665771E+01  0.119528055191E+01  0.902061402798E+00
  0.989010523372E+04  0.119528055191E+01  0.147845141834E+04
  0.399592113495E+01  0.305185556412E+01 -0.604294061661E+00
  0.989033427424E+04  0.305185556412E+01  0.147691887249E+04
  0.399592113495E+01  0.305185556412E+01  0.604294061661E+00
  0.989015759575E+04  0.305185556412E+01  0.147810105583E+04
  0.401046848297E+01  0.386280250549E+01 -0.234920918941E+00
  0.989028059493E+04  0.386280250549E+01  0.147727804909E+04
  0.433626890182E+01  0.386280250549E+01 -0.436294436455E+00
  0.989031715086E+04  0.386280250549E+01  0.147703344769E+04
  0.433626890182E+01  0.386280250549E+01  0.436294436455E+00
  0.989018959071E+04  0.386280250549E+01  0.147788697257E+04
  0.461992597580E+01  0.119528055191E+01 -0.102348947525E+01
  0.989040918770E+04  0.119528055191E+01  0.147641761482E+04
  0.474011659622E+01  0.234375929832E+01 -0.902061700821E+00
  0.989039406255E+04  0.234375929832E+01  0.147651881951E+04
  0.474011659622E+01  0.234375929832E+01  0.902061700821E+00
  0.989013032524E+04  0.234375929832E+01  0.147828352711E+04
  0.478677463531E+01  0.478677463531E+01  0.000000000000E+00
  0.989026321326E+04  0.478677463531E+01  0.147739435257E+04
  0.500836277008E+01  0.339639574289E+00  0.111146700382E+01
  0.989010557368E+04  0.339639574289E+00  0.147844914361E+04
  0.515288639069E+01  0.172824025154E+01 -0.102348971367E+01
  0.989042083165E+04  0.172824025154E+01  0.147633970331E+04
  0.515288639069E+01  0.172824025154E+01  0.102348971367E+01
  0.989012159222E+04  0.172824025154E+01  0.147834196110E+04
  0.543922424316E+01  0.386280250549E+01  0.760521352291E+00
  0.989016629027E+04  0.386280250549E+01  0.147804287943E+04
  0.544821310043E+01  0.305185556412E+01 -0.902061939240E+00
  0.989040953281E+04  0.305185556412E+01  0.147641530559E+04
  0.544821310043E+01  0.305185556412E+01  0.902061939240E+00
  0.989014579543E+04  0.305185556412E+01  0.147818001365E+04
  0.586400508881E+01  0.119528055191E+01 -0.111146736145E+01
  0.989044922899E+04  0.119528055191E+01  0.147614969227E+04
  0.586400508881E+01  0.119528055191E+01  0.111146736145E+01
  0.989012426738E+04  0.119528055191E+01  0.147832406116E+04
  0.598104286194E+01  0.583337688446E+01 -0.234921067953E+00
  0.989032364732E+04  0.583337688446E+01  0.147698997885E+04
  0.630684375763E+01  0.583337688446E+01 -0.436294704676E+00
  0.989036020327E+04  0.583337688446E+01  0.147674537726E+04
  0.630684375763E+01  0.583337688446E+01  0.436294704676E+00
  0.989023264304E+04  0.583337688446E+01  0.147759890267E+04
  0.636319684982E+01  0.478677463531E+01 -0.760521590710E+00
  0.989040883184E+04  0.478677463531E+01  0.147641999594E+04
  0.647650289536E+01  0.305185556412E+01 -0.102349007130E+01
  0.989044974957E+04  0.305185556412E+01  0.147614620895E+04
  0.647650289536E+01  0.305185556412E+01  0.102349007130E+01
  0.989015051004E+04  0.305185556412E+01  0.147814846745E+04
  0.677744340897E+01  0.583337688446E+01 -0.604294598103E+00
  0.989039504396E+04  0.583337688446E+01  0.147651225276E+04
  0.701248550415E+01  0.234375929832E+01  0.111146771908E+01
  0.989014935890E+04  0.234375929832E+01  0.147815616992E+04
  0.715871477127E+01  0.701104879379E+01 -0.234921157360E+00
  0.989034937666E+04  0.701104879379E+01  0.147681781979E+04
  0.715871477127E+01  0.701104879379E+01  0.234921157360E+00
  0.989028069236E+04  0.701104879379E+01  0.147727739716E+04
  0.730835962296E+01  0.119528055191E+01  0.114008176327E+01
  0.989015164007E+04  0.119528055191E+01  0.147814090620E+04
  0.740979957581E+01  0.583337688446E+01 -0.760521829128E+00
  0.989043169765E+04  0.583337688446E+01  0.147626699719E+04
  0.740979957581E+01  0.583337688446E+01  0.760521829128E+00
  0.989020934259E+04  0.583337688446E+01  0.147775480966E+04
  0.772058296204E+01  0.305185556412E+01  0.111146795750E+01
  0.989016482911E+04  0.305185556412E+01  0.147805265632E+04
  0.784132003784E+01  0.172824025154E+01 -0.114008188248E+01
  0.989049661166E+04  0.172824025154E+01  0.147583264744E+04
  0.784132003784E+01  0.172824025154E+01  0.114008188248E+01
  0.989016328397E+04  0.172824025154E+01  0.147806299505E+04
  0.821142387390E+01  0.478677463531E+01  0.102349066734E+01
  0.989018841385E+04  0.478677463531E+01  0.147789484713E+04
  0.822973728180E+01  0.583337688446E+01 -0.902062714100E+00
  0.989047030262E+04  0.583337688446E+01  0.147600868535E+04
  0.822973728180E+01  0.583337688446E+01  0.902062714100E+00
  0.989020656500E+04  0.583337688446E+01  0.147777339493E+04
  0.847402095795E+01  0.832635498047E+01 -0.234921261668E+00
  0.989037811299E+04  0.832635498047E+01  0.147662554053E+04
  0.847402095795E+01  0.832635498047E+01  0.234921261668E+00
  0.989030942866E+04  0.832635498047E+01  0.147708511811E+04
  0.853153038025E+01  0.386280250549E+01 -0.111146831512E+01
  0.989050750821E+04  0.386280250549E+01  0.147575973688E+04
  0.890782928467E+01  0.119528055191E+01 -0.108925771713E+01
  0.989051248257E+04  0.119528055191E+01  0.147572645265E+04
  0.890782928467E+01  0.119528055191E+01  0.108925771713E+01
  0.989019401444E+04  0.119528055191E+01  0.147785737271E+04
  0.916493797302E+01  0.305185556412E+01 -0.114008235931E+01
  0.989052552963E+04  0.305185556412E+01  0.147563915276E+04
  0.939508819580E+01  0.000000000000E+00 -0.980745851994E+00
  0.989050726512E+04  0.000000000000E+00  0.147576136343E+04
  0.939508819580E+01  0.000000000000E+00  0.980745851994E+00
  0.989022052279E+04  0.000000000000E+00  0.147768000121E+04
  0.940740966797E+01  0.701104879379E+01 -0.902063071728E+00
  0.989049603201E+04  0.701104879379E+01  0.147583652596E+04
  0.973472881317E+01  0.339639574289E+00 -0.980745971203E+00
  0.989051468548E+04  0.339639574289E+00  0.147571171266E+04
  0.973472881317E+01  0.339639574289E+00  0.980745971203E+00
  0.989022794311E+04  0.339639574289E+00  0.147763035067E+04
  0.978319931030E+01  0.978319931030E+01  0.000000000000E+00
  0.989037237326E+04  0.978319931030E+01  0.147666394597E+04
  0.997588634491E+01  0.386280250549E+01  0.114008271694E+01
[...]
CELL_DATA                  78
NORMALS normals float
  0.146220735089E+00 -0.146221594708E+00 -0.978385783764E+00
  0.146220735089E+00 -0.146221594708E+00 -0.978385783764E+00
  0.146220739106E+00 -0.146221410840E+00 -0.978385810643E+00
  0.146220739106E+00 -0.146221410840E+00 -0.978385810643E+00
  0.146220730779E+00 -0.146221792006E+00 -0.978385754921E+00
  0.146220730779E+00 -0.146221792005E+00 -0.978385754921E+00
  0.146220735288E+00 -0.146221585618E+00 -0.978385785093E+00
  0.146220735288E+00 -0.146221585619E+00 -0.978385785093E+00
  0.146220736515E+00 -0.146221529460E+00 -0.978385793302E+00
  0.146220736515E+00 -0.146221529460E+00 -0.978385793302E+00
  0.146220731363E+00 -0.146221765259E+00 -0.978385758831E+00
  0.146220731363E+00 -0.146221765259E+00 -0.978385758831E+00
  0.146220736924E+00 -0.146221510724E+00 -0.978385796041E+00
  0.146220736924E+00 -0.146221510724E+00 -0.978385796041E+00
  0.146220730881E+00 -0.146221787323E+00 -0.978385755606E+00
  0.146220730881E+00 -0.146221787323E+00 -0.978385755606E+00
  0.146220736376E+00 -0.146221535803E+00 -0.978385792375E+00
  0.146220736376E+00 -0.146221535803E+00 -0.978385792375E+00
  0.146220734481E+00 -0.146221622550E+00 -0.978385779694E+00
  0.146220734481E+00 -0.146221622550E+00 -0.978385779694E+00
  0.146220731934E+00 -0.146221739113E+00 -0.978385762654E+00
  0.146220731934E+00 -0.146221739113E+00 -0.978385762654E+00
  0.146220737096E+00 -0.146221502842E+00 -0.978385797193E+00
  0.146220737096E+00 -0.146221502842E+00 -0.978385797193E+00
  0.146220731091E+00 -0.146221777727E+00 -0.978385757009E+00
  0.146220731091E+00 -0.146221777727E+00 -0.978385757009E+00
  0.146220734587E+00 -0.146221617700E+00 -0.978385780403E+00
  0.146220734587E+00 -0.146221617700E+00 -0.978385780403E+00
  0.146220734299E+00 -0.146221630874E+00 -0.978385778477E+00
  0.146220734299E+00 -0.146221630874E+00 -0.978385778477E+00
  0.146220736921E+00 -0.146221510848E+00 -0.978385796023E+00
  0.146220736921E+00 -0.146221510848E+00 -0.978385796023E+00
  0.146220736256E+00 -0.146221541321E+00 -0.978385791568E+00
  0.146220736256E+00 -0.146221541321E+00 -0.978385791568E+00
  0.146220734067E+00 -0.146221641511E+00 -0.978385776922E+00
  0.146220734067E+00 -0.146221641511E+00 -0.978385776922E+00
  0.146220731753E+00 -0.146221747434E+00 -0.978385761437E+00
  0.146220731753E+00 -0.146221747434E+00 -0.978385761437E+00
  0.146220731904E+00 -0.146221740523E+00 -0.978385762448E+00
  0.146220731904E+00 -0.146221740523E+00 -0.978385762448E+00
  0.146220731753E+00 -0.146221747434E+00 -0.978385761437E+00
  0.146220731753E+00 -0.146221747434E+00 -0.978385761437E+00
  0.146220739610E+00 -0.146221387777E+00 -0.978385814014E+00
  0.146220739610E+00 -0.146221387777E+00 -0.978385814014E+00
  0.146220730518E+00 -0.146221803939E+00 -0.978385753177E+00
  0.146220730518E+00 -0.146221803939E+00 -0.978385753177E+00
  0.146220735417E+00 -0.146221579703E+00 -0.978385785957E+00
  0.146220735417E+00 -0.146221579703E+00 -0.978385785957E+00
  0.146220734299E+00 -0.146221630874E+00 -0.978385778477E+00
  0.146220734299E+00 -0.146221630874E+00 -0.978385778477E+00
  0.146220732870E+00 -0.146221696278E+00 -0.978385768916E+00
  0.146220732870E+00 -0.146221696278E+00 -0.978385768916E+00
  0.146220738550E+00 -0.146221436297E+00 -0.978385806921E+00
  0.146220738550E+00 -0.146221436298E+00 -0.978385806921E+00
  0.146220737096E+00 -0.146221502855E+00 -0.978385797191E+00
  0.146220737096E+00 -0.146221502855E+00 -0.978385797191E+00
  0.146220735335E+00 -0.146221583472E+00 -0.978385785406E+00
  0.146220735335E+00 -0.146221583472E+00 -0.978385785406E+00
  0.146220723088E+00 -0.146222144000E+00 -0.978385703464E+00
  0.146220723088E+00 -0.146222144000E+00 -0.978385703464E+00
  0.146220742074E+00 -0.146221275024E+00 -0.978385830497E+00
  0.146220742074E+00 -0.146221275024E+00 -0.978385830497E+00
  0.146220740561E+00 -0.146221344246E+00 -0.978385820378E+00
  0.146220740561E+00 -0.146221344246E+00 -0.978385820378E+00
  0.146220724056E+00 -0.146222099708E+00 -0.978385709939E+00
  0.146220724056E+00 -0.146222099708E+00 -0.978385709939E+00
  0.146220753468E+00 -0.146220753468E+00 -0.978385906741E+00
  0.146220753468E+00 -0.146220753468E+00 -0.978385906741E+00
  0.146220714718E+00 -0.146222527141E+00 -0.978385647454E+00
  0.146220714718E+00 -0.146222527141E+00 -0.978385647454E+00
  0.146220708715E+00 -0.146222801889E+00 -0.978385607289E+00
  0.146220708715E+00 -0.146222801889E+00 -0.978385607289E+00
  0.146220779398E+00 -0.146219566602E+00 -0.978386080244E+00
  0.146220779398E+00 -0.146219566601E+00 -0.978386080244E+00
  0.146220723332E+00 -0.146222132830E+00 -0.978385705097E+00
  0.146220723332E+00 -0.146222132830E+00 -0.978385705097E+00
  0.146220753467E+00 -0.146220753510E+00 -0.978385906735E+00
  0.146220753467E+00 -0.146220753510E+00 -0.978385906735E+00
POINT_DATA                1436
SCALARS mu float 1
LOOKUP_TABLE default
  0.000000000000E+00
  0.000000000000E+00
  0.000000000000E+00
  0.000000000000E+00
  0.000000000000E+00
  0.000000000000E+00
  0.000000000000E+00
  0.000000000000E+00
  0.000000000000E+00
  0.000000000000E+00
  0.000000000000E+00
  0.000000000000E+00
  0.000000000000E+00
  0.000000000000E+00
  0.000000000000E+00
  0.000000000000E+00
  0.000000000000E+00
  0.000000000000E+00
  0.000000000000E+00
  0.000000000000E+00
  0.000000000000E+00
  0.000000000000E+00
  0.000000000000E+00
  0.000000000000E+00
  0.000000000000E+00
  0.000000000000E+00
  0.000000000000E+00
  0.000000000000E+00
  0.000000000000E+00
  0.000000000000E+00
  0.000000000000E+00
  0.000000000000E+00
  0.000000000000E+00
  0.000000000000E+00
  0.000000000000E+00
  0.000000000000E+00
  0.000000000000E+00
  0.000000000000E+00
  0.000000000000E+00
  0.000000000000E+00
  0.000000000000E+00
  0.000000000000E+00
  0.000000000000E+00
  0.000000000000E+00
  0.000000000000E+00
  0.000000000000E+00
  0.000000000000E+00
  0.000000000000E+00
  0.000000000000E+00
  0.000000000000E+00
  0.000000000000E+00
  0.000000000000E+00
  0.000000000000E+00
  0.000000000000E+00
  0.000000000000E+00
  0.000000000000E+00
  0.000000000000E+00
  0.000000000000E+00
  0.000000000000E+00
  0.000000000000E+00
  0.000000000000E+00
  0.000000000000E+00
  0.000000000000E+00
  0.000000000000E+00
  0.000000000000E+00
  0.000000000000E+00
  0.000000000000E+00
  0.000000000000E+00
  0.000000000000E+00
  0.000000000000E+00
  0.000000000000E+00
  0.000000000000E+00
  0.000000000000E+00
  0.000000000000E+00
  0.000000000000E+00
  0.000000000000E+00
  0.000000000000E+00
  0.000000000000E+00
  0.000000000000E+00
  0.000000000000E+00
  0.000000000000E+00
  0.000000000000E+00
  0.000000000000E+00
  0.000000000000E+00
  0.000000000000E+00
  0.000000000000E+00
  0.000000000000E+00
  0.000000000000E+00
  0.000000000000E+00
  0.000000000000E+00
  0.000000000000E+00
  0.000000000000E+00
  0.000000000000E+00
  0.000000000000E+00
  0.000000000000E+00
  0.000000000000E+00
  0.000000000000E+00
  0.000000000000E+00
  0.000000000000E+00
  0.000000000000E+00
  0.000000000000E+00
  0.000000000000E+00
  0.000000000000E+00
  0.000000000000E+00
  0.000000000000E+00
  0.000000000000E+00
  0.000000000000E+00
  0.000000000000E+00
  0.000000000000E+00
  0.000000000000E+00
  0.000000000000E+00
  0.000000000000E+00
  0.000000000000E+00
  0.000000000000E+00
  0.000000000000E+00
  0.000000000000E+00
  0.000000000000E+00
  0.000000000000E+00
  0.000000000000E+00
  0.000000000000E+00
  0.000000000000E+00
  0.000000000000E+00
  0.000000000000E+00
  0.000000000000E+00
  0.000000000000E+00
  0.000000000000E+00
  0.000000000000E+00
  0.000000000000E+00
  0.000000000000E+00
  0.000000000000E+00
  0.000000000000E+00
  0.000000000000E+00
  0.000000000000E+00
  0.000000000000E+00
  0.000000000000E+00
  0.000000000000E+00
  0.000000000000E+00
  0.000000000000E+00
  0.000000000000E+00
  0.000000000000E+00
  0.000000000000E+00
  0.000000000000E+00
  0.000000000000E+00
  0.000000000000E+00
  0.000000000000E+00
  0.000000000000E+00
  0.000000000000E+00
  0.000000000000E+00
  0.000000000000E+00
  0.000000000000E+00
  0.000000000000E+00
  0.000000000000E+00
  0.000000000000E+00
  0.000000000000E+00
  0.000000000000E+00
  0.000000000000E+00
  0.000000000000E+00
  0.000000000000E+00
  0.000000000000E+00
  0.000000000000E+00
  0.000000000000E+00
  0.000000000000E+00
  0.000000000000E+00
  0.000000000000E+00
  0.000000000000E+00
  0.000000000000E+00
  0.000000000000E+00
  0.000000000000E+00
  0.000000000000E+00
  0.000000000000E+00
  0.000000000000E+00
  0.000000000000E+00
  0.000000000000E+00
  0.000000000000E+00
  0.000000000000E+00
  0.000000000000E+00
  0.000000000000E+00
  0.000000000000E+00
  0.000000000000E+00
  0.000000000000E+00
  0.000000000000E+00
  0.000000000000E+00
  0.000000000000E+00
  0.000000000000E+00
  0.000000000000E+00
  0.000000000000E+00
  0.000000000000E+00
  0.000000000000E+00
  0.000000000000E+00
  0.000000000000E+00
  0.000000000000E+00
  0.000000000000E+00
  0.000000000000E+00
  0.000000000000E+00
  0.000000000000E+00
  0.000000000000E+00
  0.000000000000E+00
  0.000000000000E+00
  0.000000000000E+00
  0.000000000000E+00
  0.000000000000E+00
  0.000000000000E+00
  0.000000000000E+00
  0.000000000000E+00
  0.000000000000E+00
  0.000000000000E+00
  0.000000000000E+00
  0.000000000000E+00
  0.000000000000E+00
  0.000000000000E+00
  0.000000000000E+00
  0.000000000000E+00
  0.000000000000E+00
  0.000000000000E+00
  0.000000000000E+00
  0.000000000000E+00
  0.000000000000E+00
  0.000000000000E+00
  0.000000000000E+00
  0.000000000000E+00
  0.000000000000E+00
  0.000000000000E+00
  0.000000000000E+00
  0.000000000000E+00
  0.000000000000E+00
  0.000000000000E+00
  0.000000000000E+00
  0.000000000000E+00
  0.000000000000E+00
  0.000000000000E+00
  0.000000000000E+00
  0.000000000000E+00
  0.000000000000E+00
  0.000000000000E+00
  0.000000000000E+00
  0.000000000000E+00
  0.000000000000E+00
  0.000000000000E+00
  0.000000000000E+00
  0.000000000000E+00
  0.000000000000E+00
  0.000000000000E+00
  0.000000000000E+00
  0.000000000000E+00
  0.000000000000E+00
  0.000000000000E+00
  0.000000000000E+00
  0.000000000000E+00
  0.000000000000E+00
  0.000000000000E+00
  0.000000000000E+00
  0.000000000000E+00
  0.000000000000E+00
  0.000000000000E+00
  0.000000000000E+00
  0.000000000000E+00
  0.000000000000E+00
  0.000000000000E+00
  0.000000000000E+00
  0.000000000000E+00
  0.000000000000E+00
  0.000000000000E+00
  0.000000000000E+00
  0.000000000000E+00
  0.000000000000E+00
  0.000000000000E+00
  0.000000000000E+00
  0.000000000000E+00
  0.000000000000E+00
  0.000000000000E+00
  0.000000000000E+00
  0.000000000000E+00
  0.000000000000E+00
  0.000000000000E+00
  0.000000000000E+00
  0.000000000000E+00
  0.000000000000E+00
  0.000000000000E+00
  0.000000000000E+00
  0.000000000000E+00
  0.000000000000E+00
  0.000000000000E+00
  0.000000000000E+00
  0.000000000000E+00
  0.000000000000E+00
  0.000000000000E+00
  0.000000000000E+00
  0.000000000000E+00
  0.000000000000E+00
  0.000000000000E+00
  0.000000000000E+00
  0.000000000000E+00
  0.000000000000E+00
  0.000000000000E+00
  0.000000000000E+00
  0.000000000000E+00
  0.000000000000E+00
  0.000000000000E+00
  0.000000000000E+00
  0.000000000000E+00
  0.000000000000E+00
  0.000000000000E+00
  0.000000000000E+00
  0.000000000000E+00
  0.000000000000E+00
  0.000000000000E+00
  0.000000000000E+00
  0.000000000000E+00
  0.000000000000E+00
  0.000000000000E+00
  0.000000000000E+00
  0.000000000000E+00
  0.000000000000E+00
  0.000000000000E+00
  0.000000000000E+00
  0.000000000000E+00
  0.000000000000E+00
  0.000000000000E+00
  0.000000000000E+00
  0.000000000000E+00
  0.000000000000E+00
  0.000000000000E+00
  0.000000000000E+00
  0.000000000000E+00
  0.000000000000E+00
  0.000000000000E+00
  0.000000000000E+00
  0.000000000000E+00
  0.000000000000E+00
  0.000000000000E+00
  0.000000000000E+00
  0.000000000000E+00
  0.000000000000E+00
  0.000000000000E+00
  0.000000000000E+00
  0.000000000000E+00
 -0.470658911225E+01
 -0.470658911225E+01
  0.000000000000E+00
  0.000000000000E+00
  0.000000000000E+00
  0.000000000000E+00
  0.000000000000E+00
  0.000000000000E+00
  0.000000000000E+00
  0.000000000000E+00
  0.000000000000E+00
  0.000000000000E+00
  0.000000000000E+00
  0.000000000000E+00
  0.000000000000E+00
  0.000000000000E+00
 -0.471727611753E+01
 -0.471727611753E+01
  0.000000000000E+00
  0.000000000000E+00
  0.000000000000E+00
  0.000000000000E+00
  0.000000000000E+00
  0.000000000000E+00
  0.000000000000E+00
  0.000000000000E+00
  0.000000000000E+00
  0.000000000000E+00
  0.000000000000E+00
  0.000000000000E+00
 -0.473373043403E+01
 -0.473373043403E+01
  0.000000000000E+00
  0.000000000000E+00
  0.000000000000E+00
  0.000000000000E+00
  0.000000000000E+00
  0.000000000000E+00
  0.000000000000E+00
  0.000000000000E+00
  0.000000000000E+00
  0.000000000000E+00
 -0.475467780971E+01
 -0.475467780971E+01
  0.000000000000E+00
  0.000000000000E+00
  0.000000000000E+00
  0.000000000000E+00
  0.000000000000E+00
  0.000000000000E+00
  0.000000000000E+00
  0.000000000000E+00
  0.000000000000E+00
  0.000000000000E+00
 -0.478450190994E+01
 -0.478450190994E+01
  0.000000000000E+00
  0.000000000000E+00
  0.000000000000E+00
  0.000000000000E+00
  0.000000000000E+00
  0.000000000000E+00
  0.000000000000E+00
  0.000000000000E+00
  0.000000000000E+00
  0.000000000000E+00
  0.000000000000E+00
  0.000000000000E+00
  0.000000000000E+00
  0.000000000000E+00
  0.000000000000E+00
  0.000000000000E+00
 -0.481842015861E+01
 -0.481842015861E+01
  0.000000000000E+00
  0.000000000000E+00
  0.000000000000E+00
  0.000000000000E+00
  0.000000000000E+00
  0.000000000000E+00
  0.000000000000E+00
  0.000000000000E+00
  0.000000000000E+00
  0.000000000000E+00
  0.000000000000E+00
  0.000000000000E+00
 -0.485822955015E+01
 -0.485822955015E+01
  0.000000000000E+00
  0.000000000000E+00
  0.000000000000E+00
  0.000000000000E+00
  0.000000000000E+00
  0.000000000000E+00
  0.000000000000E+00
  0.000000000000E+00
  0.000000000000E+00
  0.000000000000E+00
  0.000000000000E+00
  0.000000000000E+00
  0.000000000000E+00
  0.000000000000E+00
  0.000000000000E+00
  0.000000000000E+00
  0.000000000000E+00
  0.000000000000E+00
 -0.490207526807E+01
 -0.490207526807E+01
  0.000000000000E+00
  0.000000000000E+00
  0.000000000000E+00
  0.000000000000E+00
  0.000000000000E+00
  0.000000000000E+00
  0.000000000000E+00
  0.000000000000E+00
  0.000000000000E+00
  0.000000000000E+00
  0.000000000000E+00
  0.000000000000E+00
  0.000000000000E+00
  0.000000000000E+00
  0.000000000000E+00
  0.000000000000E+00
  0.000000000000E+00
  0.000000000000E+00
 -0.495047863749E+01
 -0.495047863749E+01
  0.000000000000E+00
  0.000000000000E+00
  0.000000000000E+00
  0.000000000000E+00
  0.000000000000E+00
  0.000000000000E+00
  0.000000000000E+00
  0.000000000000E+00
  0.000000000000E+00
  0.000000000000E+00
  0.000000000000E+00
  0.000000000000E+00
  0.000000000000E+00
  0.000000000000E+00
  0.000000000000E+00
  0.000000000000E+00
  0.000000000000E+00
  0.000000000000E+00
 -0.500315209064E+01
 -0.500315209064E+01
  0.000000000000E+00
  0.000000000000E+00
  0.000000000000E+00
  0.000000000000E+00
  0.000000000000E+00
  0.000000000000E+00
  0.000000000000E+00
  0.000000000000E+00
  0.000000000000E+00
  0.000000000000E+00
  0.000000000000E+00
  0.000000000000E+00
  0.000000000000E+00
  0.000000000000E+00
  0.000000000000E+00
  0.000000000000E+00
  0.000000000000E+00
  0.000000000000E+00
 -0.505903231996E+01
 -0.505903231996E+01
  0.000000000000E+00
  0.000000000000E+00
  0.000000000000E+00
  0.000000000000E+00
  0.000000000000E+00
  0.000000000000E+00
  0.000000000000E+00
  0.000000000000E+00
  0.000000000000E+00
  0.000000000000E+00
  0.000000000000E+00
  0.000000000000E+00
  0.000000000000E+00
  0.000000000000E+00
  0.000000000000E+00
  0.000000000000E+00
  0.000000000000E+00
  0.000000000000E+00
  0.000000000000E+00
  0.000000000000E+00
  0.000000000000E+00
  0.000000000000E+00
  0.000000000000E+00
  0.000000000000E+00
 -0.511632786734E+01
 -0.511632786734E+01
  0.000000000000E+00
  0.000000000000E+00
  0.000000000000E+00
  0.000000000000E+00
  0.000000000000E+00
  0.000000000000E+00
  0.000000000000E+00
  0.000000000000E+00
  0.000000000000E+00
  0.000000000000E+00
  0.000000000000E+00
  0.000000000000E+00
  0.000000000000E+00
  0.000000000000E+00
  0.000000000000E+00
  0.000000000000E+00
  0.000000000000E+00
  0.000000000000E+00
  0.000000000000E+00
  0.000000000000E+00
  0.000000000000E+00
  0.000000000000E+00
  0.000000000000E+00
  0.000000000000E+00
 -0.517425969280E+01
 -0.517425969280E+01
  0.000000000000E+00
  0.000000000000E+00
  0.000000000000E+00
  0.000000000000E+00
  0.000000000000E+00
  0.000000000000E+00
  0.000000000000E+00
  0.000000000000E+00
  0.000000000000E+00
  0.000000000000E+00
  0.000000000000E+00
  0.000000000000E+00
  0.000000000000E+00
  0.000000000000E+00
  0.000000000000E+00
  0.000000000000E+00
  0.000000000000E+00
  0.000000000000E+00
  0.000000000000E+00
  0.000000000000E+00
  0.000000000000E+00
  0.000000000000E+00
  0.000000000000E+00
  0.000000000000E+00
 -0.523152488210E+01
 -0.523152488210E+01
  0.000000000000E+00
  0.000000000000E+00
  0.000000000000E+00
  0.000000000000E+00
  0.000000000000E+00
  0.000000000000E+00
  0.000000000000E+00
  0.000000000000E+00
  0.000000000000E+00
  0.000000000000E+00
  0.000000000000E+00
  0.000000000000E+00
  0.000000000000E+00
  0.000000000000E+00
  0.000000000000E+00
  0.000000000000E+00
  0.000000000000E+00
  0.000000000000E+00
  0.000000000000E+00
  0.000000000000E+00
  0.000000000000E+00
  0.000000000000E+00
 -0.528651493513E+01
 -0.528651493513E+01
  0.000000000000E+00
  0.000000000000E+00
  0.000000000000E+00
  0.000000000000E+00
  0.000000000000E+00
  0.000000000000E+00
  0.000000000000E+00
  0.000000000000E+00
  0.000000000000E+00
  0.000000000000E+00
  0.000000000000E+00
  0.000000000000E+00
  0.000000000000E+00
  0.000000000000E+00
  0.000000000000E+00
  0.000000000000E+00
  0.000000000000E+00
  0.000000000000E+00
  0.000000000000E+00
  0.000000000000E+00
  0.000000000000E+00
  0.000000000000E+00
  0.000000000000E+00
  0.000000000000E+00
  0.000000000000E+00
  0.000000000000E+00
 -0.533756425842E+01
 -0.533756425842E+01
  0.000000000000E+00
  0.000000000000E+00
  0.000000000000E+00
  0.000000000000E+00
  0.000000000000E+00
  0.000000000000E+00
  0.000000000000E+00
  0.000000000000E+00
  0.000000000000E+00
  0.000000000000E+00
  0.000000000000E+00
  0.000000000000E+00
  0.000000000000E+00
  0.000000000000E+00
  0.000000000000E+00
  0.000000000000E+00
  0.000000000000E+00
  0.000000000000E+00
  0.000000000000E+00
  0.000000000000E+00
  0.000000000000E+00
  0.000000000000E+00
  0.000000000000E+00
  0.000000000000E+00
  0.000000000000E+00
  0.000000000000E+00
 -0.538321411064E+01
 -0.538321411064E+01
  0.000000000000E+00
  0.000000000000E+00
  0.000000000000E+00
  0.000000000000E+00
  0.000000000000E+00
  0.000000000000E+00
  0.000000000000E+00
  0.000000000000E+00
  0.000000000000E+00
  0.000000000000E+00
  0.000000000000E+00
  0.000000000000E+00
  0.000000000000E+00
  0.000000000000E+00
  0.000000000000E+00
  0.000000000000E+00
  0.000000000000E+00
  0.000000000000E+00
  0.000000000000E+00
  0.000000000000E+00
  0.000000000000E+00
  0.000000000000E+00
  0.000000000000E+00
  0.000000000000E+00
  0.000000000000E+00
  0.000000000000E+00
  0.000000000000E+00
  0.000000000000E+00
  0.000000000000E+00
  0.000000000000E+00
 -0.542178485395E+01
 -0.542178485395E+01
  0.000000000000E+00
  0.000000000000E+00
  0.000000000000E+00
  0.000000000000E+00
  0.000000000000E+00
  0.000000000000E+00
  0.000000000000E+00
  0.000000000000E+00
  0.000000000000E+00
  0.000000000000E+00
  0.000000000000E+00
  0.000000000000E+00
  0.000000000000E+00
  0.000000000000E+00
  0.000000000000E+00
  0.000000000000E+00
  0.000000000000E+00
  0.000000000000E+00
  0.000000000000E+00
  0.000000000000E+00
  0.000000000000E+00
  0.000000000000E+00
  0.000000000000E+00
  0.000000000000E+00
  0.000000000000E+00