# vtk DataFile Version 3.0
MachLine results file. Generated by MachLine, USU AeroLab (c) 2022.
ASCII
DATASET POLYDATA
POINTS                 116 float
  0.000000000000E+00  0.000000000000E+00  0.000000000000E+00
  0.989015863362E+04  0.000000000000E+00  0.147809411130E+04
  0.113538098335E+01  0.000000000000E+00 -0.658124566078E+00
  0.989027964749E+04  0.000000000000E+00  0.147728438855E+04
  0.113538098335E+01  0.000000000000E+00  0.658124566078E+00
  0.989008723049E+04  0.000000000000E+00  0.147857188077E+04
  0.192375373840E+01  0.192375373840E+01  0.000000000000E+00
  0.989020066306E+04  0.192375373840E+01  0.147781288572E+04
  0.305913543701E+01  0.192375373840E+01 -0.658124983311E+00
  0.989032167702E+04  0.192375373840E+01  0.147700316246E+04
  0.305913543701E+01  0.192375373840E+01  0.658124983311E+00
  0.989012925989E+04  0.192375373840E+01  0.147829065549E+04
  0.423028087616E+01  0.000000000000E+00 -0.108747220039E+01
  0.989041002825E+04  0.000000000000E+00  0.147641199056E+04
  0.423028087616E+01  0.000000000000E+00  0.108747220039E+01
  0.989009208215E+04  0.000000000000E+00  0.147853941760E+04
  0.660571479797E+01  0.547033166885E+01  0.658125698566E+00
  0.989020674411E+04  0.547033166885E+01  0.147777219646E+04
  0.113188476562E+02  0.192375373840E+01  0.980746448040E+00
  0.989026255227E+04  0.192375373840E+01  0.147739877537E+04
  0.113820018768E+02  0.113820018768E+02  0.000000000000E+00
  0.989040730329E+04  0.113820018768E+02  0.147643022365E+04
  0.125173873901E+02  0.113820018768E+02 -0.658127009869E+00
  0.989052831763E+04  0.113820018768E+02  0.147562049785E+04
  0.145402030945E+02  0.000000000000E+00 -0.479613035917E+00
  0.989054641512E+04  0.000000000000E+00  0.147549940468E+04
  0.145402030945E+02  0.000000000000E+00  0.479613035917E+00
  0.989040618984E+04  0.000000000000E+00  0.147643767394E+04
  0.148654365540E+02  0.547033166885E+01 -0.980747580528E+00
  0.989062677948E+04  0.547033166885E+01  0.147496167420E+04
  0.148654365540E+02  0.547033166885E+01  0.980747580528E+00
  0.989034003664E+04  0.547033166885E+01  0.147688031536E+04
  0.156122989655E+02  0.113820018768E+02 -0.108747613430E+01
  0.989065869885E+04  0.113820018768E+02  0.147474809670E+04
  0.156122989655E+02  0.113820018768E+02  0.108747613430E+01
  0.989034075160E+04  0.113820018768E+02  0.147687553143E+04
  0.190000000000E+02  0.000000000000E+00  0.000000000000E+00
  0.989057373844E+04  0.000000000000E+00  0.147531658010E+04
  0.209237651825E+02  0.192375373840E+01  0.000000000000E+00
  0.989061576813E+04  0.192375373840E+01  0.147503535285E+04
  0.239865016937E+02  0.197561950684E+02  0.108747911453E+01
  0.989052370758E+04  0.197561950684E+02  0.147565134438E+04
  0.244703655243E+02  0.547033166885E+01  0.000000000000E+00
  0.989069325292E+04  0.547033166885E+01  0.147451689005E+04
  0.291513423920E+02  0.197561950684E+02 -0.980752110481E+00
  0.989093889321E+04  0.197561950684E+02  0.147287327245E+04
  0.291513423920E+02  0.197561950684E+02  0.980752110481E+00
  0.989065214905E+04  0.197561950684E+02  0.147479192247E+04
  0.303820724487E+02  0.113820018768E+02  0.000000000000E+00
  0.989082240965E+04  0.113820018768E+02  0.147365268214E+04
  0.334741249084E+02  0.292438049316E+02 -0.108748245239E+01
  0.989104893820E+04  0.292438049316E+02  0.147213694427E+04
  0.334741249084E+02  0.292438049316E+02  0.108748245239E+01
  0.989073098910E+04  0.292438049316E+02  0.147426439136E+04
  0.387533912659E+02  0.376179962158E+02  0.658132553101E+00
  0.989090909340E+04  0.376179962158E+02  0.147307266768E+04
  0.387563171387E+02  0.197561950684E+02  0.000000000000E+00
  0.989100536699E+04  0.197561950684E+02  0.147242848604E+04
  0.437841453552E+02  0.292438049316E+02  0.479617565870E+00
  0.989104509977E+04  0.292438049316E+02  0.147216262775E+04
  0.446650657654E+02  0.435296669006E+02 -0.658133804798E+00
  0.989123066894E+04  0.435296669006E+02  0.147092095544E+04
  0.446650657654E+02  0.435296669006E+02  0.658133804798E+00
  0.989103824924E+04  0.435296669006E+02  0.147220846573E+04
  0.468944816589E+02  0.292438049316E+02  0.144200220704E+00
  0.989116208650E+04  0.292438049316E+02  0.147137985131E+04
  0.470131988525E+02  0.376179962158E+02 -0.980757772923E+00
  0.989132913313E+04  0.376179962158E+02  0.147026211620E+04
  0.470131988525E+02  0.376179962158E+02  0.980757772923E+00
  0.989104238731E+04  0.376179962158E+02  0.147218077730E+04
  0.470762481689E+02  0.470762481689E+02  0.000000000000E+00
  0.989118713770E+04  0.470762481689E+02  0.147121222983E+04
  0.482439842224E+02  0.292438049316E+02  0.000000000000E+00
  0.989121264995E+04  0.292438049316E+02  0.147104152334E+04
  0.539993209839E+02  0.497689704895E+02  0.768971264362E+00
  0.989122597765E+04  0.497689704895E+02  0.147095234560E+04
  0.543178405762E+02  0.500874900818E+02 -0.157378642191E-15
  0.989134534927E+04  0.500874900818E+02  0.147015361147E+04
  0.566182289124E+02  0.376179962158E+02  0.000000000000E+00
  0.989139560728E+04  0.376179962158E+02  0.146981732724E+04
  0.580700759888E+02  0.435296669006E+02 -0.479619771242E+00
  0.989149744032E+04  0.435296669006E+02  0.146913594652E+04
  0.590887413025E+02  0.496935043335E+02  0.693503141403E+00
  0.989134820176E+04  0.496935043335E+02  0.147013452503E+04
  0.593759994507E+02  0.499807624817E+02  0.000000000000E+00
  0.989145585801E+04  0.499807624817E+02  0.146941418021E+04
  0.625299339294E+02  0.435296669006E+02  0.000000000000E+00
  0.989152476398E+04  0.435296669006E+02  0.146895311961E+04
  0.635404319763E+02  0.490000000000E+02  0.479620635509E+00
  0.989147672721E+04  0.490000000000E+02  0.146927454115E+04
  0.638795776367E+02  0.493391418457E+02 -0.339143037796E+00
  0.989160382840E+04  0.493391418457E+02  0.146842408722E+04
  0.638795776367E+02  0.493391418457E+02  0.339143037796E+00
  0.989150467257E+04  0.493391418457E+02  0.146908755436E+04
  0.660765380859E+02  0.470762481689E+02  0.000000000000E+00
  0.989160224885E+04  0.470762481689E+02  0.146843465625E+04
  0.666507873535E+02  0.490000000000E+02 -0.144201144576E+00
  0.989163587500E+04  0.490000000000E+02  0.146820965844E+04
  0.666507873535E+02  0.490000000000E+02  0.144201144576E+00
  0.989159371466E+04  0.490000000000E+02  0.146849175983E+04
  0.667527542114E+02  0.491019668579E+02 -0.101965606213E+00
  0.989163192849E+04  0.491019668579E+02  0.146823606512E+04
  0.667527542114E+02  0.491019668579E+02  0.101965606213E+00
  0.989160211663E+04  0.491019668579E+02  0.146843554092E+04
  0.680002975464E+02  0.490000000000E+02  0.000000000000E+00
  0.989164427842E+04  0.490000000000E+02  0.146815342984E+04
  0.190000000000E+02  0.000000000000E+00  0.000000000000E+00
  0.989057373844E+04  0.000000000000E+00  0.147531658010E+04
  0.209237651825E+02  0.192375373840E+01  0.000000000000E+00
  0.989061576813E+04  0.192375373840E+01  0.147503535285E+04
  0.244703655243E+02  0.547033166885E+01  0.000000000000E+00
  0.989069325292E+04  0.547033166885E+01  0.147451689005E+04
  0.303820724487E+02  0.113820018768E+02  0.000000000000E+00
  0.989082240965E+04  0.113820018768E+02  0.147365268214E+04
  0.387563171387E+02  0.197561950684E+02  0.000000000000E+00
  0.989100536699E+04  0.197561950684E+02  0.147242848604E+04
POLYGONS                  18                  72
3                  38                  39                  37
3                  38                  37                  36
3                  42                  43                  39
3                  42                  39                  38
3                  48                  49                  43
3                  48                  43                  42
3                  56                  57                  49
3                  56                  49                  48
3                  72                  73                  57
3                  72                  57                  56
3                  78                  79                  73
3                  78                  73                  72
3                  86                  87                  79
3                  86                  79                  78
3                  94                  95                  87
3                  94                  87                  86
3                 104                 105                  95
3                 104                  95                  94
CELL_DATA                  18
NORMALS normals float
  0.146220734871E+00 -0.146221604714E+00 -0.978385782301E+00
  0.146220734871E+00 -0.146221604714E+00 -0.978385782301E+00
  0.146220733713E+00 -0.146221657703E+00 -0.978385774555E+00
  0.146220733713E+00 -0.146221657703E+00 -0.978385774555E+00
  0.146220734052E+00 -0.146221642205E+00 -0.978385776820E+00
  0.146220734052E+00 -0.146221642205E+00 -0.978385776820E+00
  0.146220734243E+00 -0.146221633450E+00 -0.978385778100E+00
  0.146220734243E+00 -0.146221633450E+00 -0.978385778100E+00
  0.146220734614E+00 -0.146221616482E+00 -0.978385780581E+00
  0.146220734614E+00 -0.146221616482E+00 -0.978385780581E+00
  0.146220733531E+00 -0.146221666043E+00 -0.978385773336E+00
  0.146220733531E+00 -0.146221666043E+00 -0.978385773336E+00
  0.146220735312E+00 -0.146221584494E+00 -0.978385785257E+00
  0.146220735312E+00 -0.146221584494E+00 -0.978385785257E+00
  0.146220733293E+00 -0.146221676942E+00 -0.978385771742E+00
  0.146220733293E+00 -0.146221676942E+00 -0.978385771742E+00
  0.146220741070E+00 -0.146221320966E+00 -0.978385823781E+00
  0.146220741070E+00 -0.146221320966E+00 -0.978385823781E+00
POINT_DATA                 116
SCALARS mu float 1
LOOKUP_TABLE default
  0.000000000000E+00
  0.000000000000E+00
  0.000000000000E+00
  0.000000000000E+00
  0.000000000000E+00
  0.000000000000E+00
  0.000000000000E+00
  0.000000000000E+00
  0.000000000000E+00
  0.000000000000E+00
  0.000000000000E+00
  0.000000000000E+00
  0.000000000000E+00
  0.000000000000E+00
  0.000000000000E+00
  0.000000000000E+00
  0.000000000000E+00
  0.000000000000E+00
  0.000000000000E+00
  0.000000000000E+00
  0.000000000000E+00
  0.000000000000E+00
  0.000000000000E+00
  0.000000000000E+00
  0.000000000000E+00
  0.000000000000E+00
  0.000000000000E+00
  0.000000000000E+00
  0.000000000000E+00
  0.000000000000E+00
  0.000000000000E+00
  0.000000000000E+00
  0.000000000000E+00
  0.000000000000E+00
  0.000000000000E+00
  0.000000000000E+00
 -0.421466146543E+01
 -0.421466146543E+01
 -0.428524644153E+01
 -0.428524644153E+01
  0.000000000000E+00
  0.000000000000E+00
 -0.442919764881E+01
 -0.442919764881E+01
  0.000000000000E+00
  0.000000000000E+00
  0.000000000000E+00
  0.000000000000E+00
 -0.460826736546E+01
 -0.460826736546E+01
  0.000000000000E+00
  0.000000000000E+00
  0.000000000000E+00
  0.000000000000E+00
  0.000000000000E+00
  0.000000000000E+00
 -0.471736818996E+01
 -0.471736818996E+01
  0.000000000000E+00
  0.000000000000E+00
  0.000000000000E+00
  0.000000000000E+00
  0.000000000000E+00
  0.000000000000E+00
  0.000000000000E+00
  0.000000000000E+00
  0.000000000000E+00
  0.000000000000E+00
  0.000000000000E+00
  0.000000000000E+00
  0.000000000000E+00
  0.000000000000E+00
 -0.459331424325E+01
 -0.459331424325E+01
  0.000000000000E+00
  0.000000000000E+00
  0.000000000000E+00
  0.000000000000E+00
 -0.406160806794E+01
 -0.406160806794E+01
  0.000000000000E+00
  0.000000000000E+00
  0.000000000000E+00
  0.000000000000E+00
  0.000000000000E+00
  0.000000000000E+00
 -0.305287192793E+01
 -0.305287192793E+01
  0.000000000000E+00
  0.000000000000E+00
  0.000000000000E+00
  0.000000000000E+00
  0.000000000000E+00
  0.000000000000E+00
 -0.166684840277E+01
 -0.166684840277E+01
  0.000000000000E+00
  0.000000000000E+00
  0.000000000000E+00
  0.000000000000E+00
  0.000000000000E+00
  0.000000000000E+00
  0.000000000000E+00
  0.000000000000E+00
  0.000000000000E+00
  0.000000000000E+00
  0.421466146543E+01
  0.421466146543E+01
  0.428524644153E+01
  0.428524644153E+01
  0.442919764881E+01
  0.442919764881E+01
  0.460826736546E+01
  0.460826736546E+01
  0.471736818996E+01
  0.471736818996E+01
