# vtk DataFile Version 3.0
MachLine results file. Generated by MachLine, USU AeroLab (c) 2022.
ASCII
DATASET POLYDATA
POINTS                 144 float
  0.000000000000E+00  0.000000000000E+00  0.000000000000E+00
  0.113538098335E+01  0.000000000000E+00 -0.658124566078E+00
  0.113538098335E+01  0.000000000000E+00  0.658124566078E+00
  0.192375373840E+01  0.192375373840E+01  0.000000000000E+00
  0.305913543701E+01  0.192375373840E+01 -0.658124983311E+00
  0.305913543701E+01  0.192375373840E+01  0.658124983311E+00
  0.423028087616E+01  0.000000000000E+00 -0.108747220039E+01
  0.423028087616E+01  0.000000000000E+00  0.108747220039E+01
  0.547033166885E+01  0.547033166885E+01  0.000000000000E+00
  0.615403699875E+01  0.192375373840E+01 -0.108747279644E+01
  0.615403699875E+01  0.192375373840E+01  0.108747279644E+01
  0.660571479797E+01  0.547033166885E+01 -0.658125698566E+00
  0.660571479797E+01  0.547033166885E+01  0.658125698566E+00
  0.939508819580E+01  0.000000000000E+00 -0.980745851994E+00
  0.939508819580E+01  0.000000000000E+00  0.980745851994E+00
  0.970061969757E+01  0.547033166885E+01 -0.108747410774E+01
  0.970061969757E+01  0.547033166885E+01  0.108747410774E+01
  0.113188476562E+02  0.192375373840E+01 -0.980746448040E+00
  0.113188476562E+02  0.192375373840E+01  0.980746448040E+00
  0.113820018768E+02  0.113820018768E+02  0.000000000000E+00
  0.125173873901E+02  0.113820018768E+02 -0.658127009869E+00
  0.125173873901E+02  0.113820018768E+02  0.658127009869E+00
  0.145402030945E+02  0.000000000000E+00 -0.479613035917E+00
  0.145402030945E+02  0.000000000000E+00  0.479613035917E+00
  0.148654365540E+02  0.547033166885E+01 -0.980747580528E+00
  0.148654365540E+02  0.547033166885E+01  0.980747580528E+00
  0.156122989655E+02  0.113820018768E+02 -0.108747613430E+01
  0.156122989655E+02  0.113820018768E+02  0.108747613430E+01
  0.164639663696E+02  0.192375373840E+01 -0.479613333941E+00
  0.164639663696E+02  0.192375373840E+01  0.479613333941E+00
  0.176505107880E+02  0.000000000000E+00 -0.144198849797E+00
  0.176505107880E+02  0.000000000000E+00  0.144198849797E+00
  0.190000000000E+02  0.000000000000E+00  0.000000000000E+00
  0.195742740631E+02  0.192375373840E+01 -0.144198939204E+00
  0.195742740631E+02  0.192375373840E+01  0.144198939204E+00
  0.197561950684E+02  0.197561950684E+02  0.000000000000E+00
  0.200105609894E+02  0.547033166885E+01 -0.479613870382E+00
  0.200105609894E+02  0.547033166885E+01  0.479613870382E+00
  0.207771244049E+02  0.113820018768E+02 -0.980749428272E+00
  0.207771244049E+02  0.113820018768E+02  0.980749428272E+00
  0.208915824890E+02  0.197561950684E+02 -0.658128738403E+00
  0.208915824890E+02  0.197561950684E+02  0.658128738403E+00
  0.209237651825E+02  0.192375373840E+01  0.000000000000E+00
  0.231208724976E+02  0.547033166885E+01 -0.144199103117E+00
  0.231208724976E+02  0.547033166885E+01  0.144199103117E+00
  0.239865016937E+02  0.197561950684E+02 -0.108747911453E+01
  0.239865016937E+02  0.197561950684E+02  0.108747911453E+01
  0.244703655243E+02  0.547033166885E+01  0.000000000000E+00
  0.259222583771E+02  0.113820018768E+02 -0.479614794254E+00
  0.259222583771E+02  0.113820018768E+02  0.479614794254E+00
  0.290325775146E+02  0.113820018768E+02 -0.144199386239E+00
  0.290325775146E+02  0.113820018768E+02  0.144199386239E+00
  0.291513423920E+02  0.197561950684E+02 -0.980752110481E+00
  0.291513423920E+02  0.197561950684E+02  0.980752110481E+00
  0.292438049316E+02  0.292438049316E+02  0.000000000000E+00
  0.303791980743E+02  0.292438049316E+02 -0.658130764961E+00
  0.303791980743E+02  0.292438049316E+02  0.658130764961E+00
  0.303820724487E+02  0.113820018768E+02  0.000000000000E+00
  0.334741249084E+02  0.292438049316E+02 -0.108748245239E+01
  0.334741249084E+02  0.292438049316E+02  0.108748245239E+01
  0.342964897156E+02  0.197561950684E+02 -0.479616105556E+00
  0.342964897156E+02  0.197561950684E+02  0.479616105556E+00
  0.374068183899E+02  0.197561950684E+02 -0.144199773669E+00
  0.374068183899E+02  0.197561950684E+02  0.144199773669E+00
  0.376179962158E+02  0.376179962158E+02  0.000000000000E+00
  0.386389808655E+02  0.292438049316E+02 -0.980755090714E+00
  0.386389808655E+02  0.292438049316E+02  0.980755090714E+00
  0.387533912659E+02  0.376179962158E+02 -0.658132553101E+00
  0.387533912659E+02  0.376179962158E+02  0.658132553101E+00
  0.387563171387E+02  0.197561950684E+02  0.000000000000E+00
  0.418483314514E+02  0.376179962158E+02 -0.108748543262E+01
  0.418483314514E+02  0.376179962158E+02  0.108748543262E+01
  0.435296669006E+02  0.435296669006E+02  0.000000000000E+00
  0.437841453552E+02  0.292438049316E+02 -0.479617565870E+00
  0.437841453552E+02  0.292438049316E+02  0.479617565870E+00
  0.446650657654E+02  0.435296669006E+02 -0.658133804798E+00
  0.446650657654E+02  0.435296669006E+02  0.658133804798E+00
  0.468944816589E+02  0.292438049316E+02 -0.144200220704E+00
  0.468944816589E+02  0.292438049316E+02  0.144200220704E+00
  0.470131988525E+02  0.376179962158E+02 -0.980757772923E+00
  0.470131988525E+02  0.376179962158E+02  0.980757772923E+00
  0.470762481689E+02  0.470762481689E+02  0.000000000000E+00
  0.477600097656E+02  0.435296669006E+02 -0.108748745918E+01
  0.477600097656E+02  0.435296669006E+02  0.108748745918E+01
  0.482116432190E+02  0.470762481689E+02 -0.658134579659E+00
  0.482116432190E+02  0.470762481689E+02  0.658134579659E+00
  0.482439842224E+02  0.292438049316E+02  0.000000000000E+00
  0.490000000000E+02  0.490000000000E+02  0.000000000000E+00
  0.501353988647E+02  0.490000000000E+02 -0.658134996891E+00
  0.501353988647E+02  0.490000000000E+02  0.658134996891E+00
  0.506007728577E+02  0.494653701782E+02 -0.465371757746E+00
  0.506007728577E+02  0.494653701782E+02  0.465371757746E+00
  0.507935333252E+02  0.496581344604E+02 -0.771266485397E-15
  0.513065910339E+02  0.470762481689E+02 -0.108748877048E+01
  0.513065910339E+02  0.470762481689E+02  0.108748877048E+01
  0.521583786011E+02  0.376179962158E+02 -0.479618877172E+00
  0.521583786011E+02  0.376179962158E+02  0.479618877172E+00
  0.529248886108E+02  0.435296669006E+02 -0.980759620667E+00
  0.529248886108E+02  0.435296669006E+02  0.980759620667E+00
  0.532303466797E+02  0.490000000000E+02 -0.108748936653E+01
  0.532303466797E+02  0.490000000000E+02  0.108748936653E+01
  0.539993209839E+02  0.497689704895E+02 -0.768971264362E+00
  0.539993209839E+02  0.497689704895E+02  0.768971264362E+00
  0.543178405762E+02  0.500874900818E+02 -0.157378642191E-15
  0.552687225342E+02  0.376179962158E+02 -0.144200608134E+00
  0.552687225342E+02  0.376179962158E+02  0.144200608134E+00
  0.564714775085E+02  0.470762481689E+02 -0.980760753155E+00
  0.564714775085E+02  0.470762481689E+02  0.980760753155E+00
  0.566182289124E+02  0.376179962158E+02  0.000000000000E+00
  0.580700759888E+02  0.435296669006E+02 -0.479619771242E+00
  0.580700759888E+02  0.435296669006E+02  0.479619771242E+00
  0.583952369690E+02  0.490000000000E+02 -0.980761349201E+00
  0.583952369690E+02  0.490000000000E+02  0.980761349201E+00
  0.590887413025E+02  0.496935043335E+02 -0.693503141403E+00
  0.590887413025E+02  0.496935043335E+02  0.693503141403E+00
  0.593759994507E+02  0.499807624817E+02  0.000000000000E+00
  0.611804275513E+02  0.435296669006E+02 -0.144200876355E+00
  0.611804275513E+02  0.435296669006E+02  0.144200876355E+00
  0.616166725159E+02  0.470762481689E+02 -0.479620337486E+00
  0.616166725159E+02  0.470762481689E+02  0.479620337486E+00
  0.625299339294E+02  0.435296669006E+02  0.000000000000E+00
  0.635404319763E+02  0.490000000000E+02 -0.479620635509E+00
  0.635404319763E+02  0.490000000000E+02  0.479620635509E+00
  0.638795776367E+02  0.493391418457E+02 -0.339143037796E+00
  0.638795776367E+02  0.493391418457E+02  0.339143037796E+00
  0.640200576782E+02  0.494796218872E+02  0.296956834055E-15
  0.647270278931E+02  0.470762481689E+02 -0.144201040268E+00
  0.647270278931E+02  0.470762481689E+02  0.144201040268E+00
  0.660765380859E+02  0.470762481689E+02  0.000000000000E+00
  0.666507873535E+02  0.490000000000E+02 -0.144201144576E+00
  0.666507873535E+02  0.490000000000E+02  0.144201144576E+00
  0.667527542114E+02  0.491019668579E+02 -0.101965606213E+00
  0.667527542114E+02  0.491019668579E+02  0.101965606213E+00
  0.667949905396E+02  0.491441993713E+02 -0.260488604752E-16
  0.680002975464E+02  0.490000000000E+02  0.000000000000E+00
  0.190000000000E+02  0.000000000000E+00  0.000000000000E+00
  0.209237651825E+02  0.192375373840E+01  0.000000000000E+00
  0.244703655243E+02  0.547033166885E+01  0.000000000000E+00
  0.303820724487E+02  0.113820018768E+02  0.000000000000E+00
  0.387563171387E+02  0.197561950684E+02  0.000000000000E+00
  0.482439842224E+02  0.292438049316E+02  0.000000000000E+00
  0.566182289124E+02  0.376179962158E+02  0.000000000000E+00
  0.625299339294E+02  0.435296669006E+02  0.000000000000E+00
  0.660765380859E+02  0.470762481689E+02  0.000000000000E+00
POLYGONS                 256                1024
3                  32                  33                  42
3                  32                  30                  33
3                  30                  28                  33
3                  30                  22                  28
3                  22                  17                  28
3                  22                  13                  17
3                  13                   6                  17
3                  17                   6                   9
3                   6                   1                   9
3                   9                   1                   4
3                   1                   0                   4
3                   4                   0                   3
3                   0                   5                   3
3                   0                   2                   5
3                   2                  10                   5
3                   2                   7                  10
[...]
CELL_DATA                 256
SCALARS C_p_inc float 1
LOOKUP_TABLE default
  0.133675137994E+00
  0.112218504304E+00
  0.732759299726E-01
  0.540752640437E-01
  0.193366698440E-01
  0.576347794112E-02
  0.454263227330E-01
  0.230291156952E-01
  0.241146476765E+00
  0.174186848733E+00
  0.591227676468E+00
  0.592739013944E+00
 -0.515795831752E+00
  0.225917927126E-01
 -0.648192239671E+00
 -0.453686616479E+00
 -0.462187173812E+00
 -0.472688599127E+00
 -0.333570266423E+00
 -0.272894573672E+00
 -0.149169037412E+00
 -0.711401154765E-01
  0.129375898139E-01
  0.985998024200E-01
  0.129251183710E+00
  0.132329153842E+00
  0.759772474143E-01
  0.731501572876E-01
  0.277522529582E-01
  0.194612072449E-01
  0.236881769818E-01
  0.190299857219E-01
  0.169283850564E+00
  0.170880696040E+00
  0.520294270209E+00
  0.508273897657E+00
 -0.795274765968E+00
 -0.492228885648E+00
 -0.783915838857E+00
 -0.642839471887E+00
 -0.474880740056E+00
 -0.479518676630E+00
 -0.273561692738E+00
 -0.219709046101E+00
 -0.708967393259E-01
 -0.254479713669E-01
  0.954895246840E-01
  0.111618260241E+00
  0.127777230790E+00
  0.128491244993E+00
  0.738527414272E-01
  0.757025474921E-01
  0.300491968591E-01
  0.278889912758E-01
  0.191995984320E-01
  0.292170178709E-01
  0.169524441133E+00
  0.190732554360E+00
  0.511083977230E+00
  0.496600962573E+00
 -0.981424390201E+00
 -0.789972932928E+00
 -0.861236072260E+00
 -0.788015799844E+00
 -0.477165818123E+00
 -0.490353210243E+00
 -0.221078372013E+00
 -0.195570646682E+00
 -0.254462719309E-01
 -0.108588676107E-01
  0.111706506178E+00
  0.118729601604E+00
  0.124936315205E+00
  0.126902221458E+00
  0.704508258535E-01
  0.734859662925E-01
  0.289537928791E-01
  0.300513343819E-01
  0.292291784576E-01
  0.347948752628E-01
  0.191332127021E+00
  0.208015914670E+00
  0.506947371750E+00
  0.495637750558E+00
 -0.107679476411E+01
 -0.981484298947E+00
 -0.897735540674E+00
 -0.867964112672E+00
 -0.482753675624E+00
 -0.485737825024E+00
 -0.196968500185E+00
 -0.188898035056E+00
 -0.108017215253E-01
 -0.312743706994E-02
  0.119841558764E+00
  0.126104524440E+00
  0.114859788474E+00
  0.123525588506E+00
  0.587615698111E-01
  0.698462118850E-01
  0.197524615187E-01
  0.288386396120E-01
  0.347093947876E-01
  0.298505714944E-01
  0.207833418104E+00
  0.209865066464E+00
  0.499647571237E+00
  0.496185792201E+00
 -0.110146661440E+01
 -0.107734816668E+01
 -0.902866963533E+00
 -0.901635188302E+00
 -0.476519878127E+00
 -0.487280712678E+00
 -0.190314450334E+00
 -0.176788847460E+00
 -0.317497877260E-02
  0.127260648602E-01
  0.127666458525E+00
  0.142123403570E+00
  0.939260556188E-01
  0.111761702295E+00
  0.322521416860E-01
  0.574023911124E-01
 -0.578278208806E-02
  0.194356989927E-01
  0.294552245957E-01
  0.709337356961E-02
  0.208143098146E+00
  0.193076746119E+00
  0.493800082736E+00
  0.499552823561E+00
 -0.105818956005E+01
 -0.110230657636E+01
 -0.870823154162E+00
 -0.907484980889E+00
 -0.445467423198E+00
 -0.482693300172E+00
 -0.178512772066E+00
 -0.142419071162E+00
  0.123740825350E-01
  0.523890035894E-01
  0.144613395803E+00
  0.180666605063E+00
  0.604568025744E-01
  0.865285069194E-01
 -0.346053724378E-02
  0.286748960478E-01
 -0.417071218370E-01
 -0.690063006024E-02
  0.559785157836E-02
 -0.376632621582E-01
  0.188044046336E+00
  0.152541128889E+00
  0.488184993270E+00
  0.502366630926E+00
 -0.960013433219E+00
 -0.105973381481E+01
 -0.803229653184E+00
 -0.879393006754E+00
 -0.379889605538E+00
 -0.458954957233E+00
 -0.145111259181E+00
 -0.727975929046E-01
  0.506353598949E-01
  0.124643831718E+00
  0.184168050284E+00
  0.253881571430E+00
 -0.239810363574E-01
  0.422502783314E-01
 -0.599112499011E-01
 -0.122071159594E-01
 -0.718320022333E-01
 -0.461314165786E-01
 -0.428618621543E-01
 -0.758589218686E-01
  0.137328047647E+00
  0.760479160147E-01
  0.468707444731E+00
  0.493594319982E+00
 -0.827469258726E+00
 -0.961742566915E+00
 -0.700095429528E+00
 -0.820131232303E+00
 -0.266127152309E+00
 -0.416644564206E+00
 -0.797133034240E-01
  0.443907809261E-02
  0.115413935603E+00
  0.205089955891E+00
  0.250319458803E+00
  0.363871354381E+00
 -0.234625085088E+00
 -0.754635265919E-01
 -0.158469934276E+00
 -0.872980127039E-01
 -0.121286724751E+00
 -0.905486719457E-01
 -0.976455630785E-01
 -0.979989708459E-01
  0.269315392420E-01
  0.530691456451E-02
  0.339281569134E+00
  0.417431237698E+00
 -0.627950276159E+00
 -0.826284448496E+00
 -0.459628455800E+00
 -0.769822079242E+00
 -0.161310705021E+00
 -0.382166924474E+00
 -0.301762418809E-01
  0.127793940203E-01
  0.149208856703E+00
  0.213841583055E+00
  0.306681004235E+00
  0.470260932375E+00
 -0.784313673366E+00
 -0.786282968725E+00
 -0.382191322954E+00
 -0.397684427200E+00
 -0.227472274383E+00
 -0.231824533520E+00
 -0.219526932721E+00
 -0.181208423239E+00
 -0.216489278336E+00
 -0.635876064964E-01
 -0.628098965659E+00
 -0.399567404952E+00
 -0.623936464108E+00
 -0.235421172365E+00
 -0.493207682727E+00
 -0.169540970501E+00
 -0.426605080556E+00
 -0.234123630665E+00
 -0.777855210914E+00
 -0.424659445710E+00
 -0.162619055291E+01
 -0.168068066433E+01
 -0.748618575279E+00
 -0.814374518859E+00
 -0.412743789726E+00
 -0.457639884907E+00
 -0.396542865128E+00
 -0.407238817141E+00
 -0.444142960250E+00
 -0.330731911449E+00
 -0.526370724715E+00
 -0.504618938723E+00
 -0.546371499522E+00
 -0.382980709229E+00
 -0.576214117195E+00
 -0.415833909815E+00
 -0.795117061903E+00
 -0.728703834017E+00
 -0.164669762902E+01
 -0.149757810199E+01
SCALARS sigma float 1
LOOKUP_TABLE default
  0.381875471310E-01
  0.381874637437E-01
  0.372158060763E-01
  0.372158717888E-01
  0.475279002872E-01
  0.475278863219E-01
  0.123855615697E+00
  0.123855629065E+00
  0.276362158301E+00
  0.276362144032E+00
  0.555224557755E+00
  0.555224558374E+00
  0.331945202977E+00
  0.331945201894E+00
 -0.694932886560E-02
 -0.694931227114E-02
 -0.164733567771E+00
 -0.164733580767E+00
 -0.238483938016E+00
 -0.238483923787E+00
 -0.248196423050E+00
 -0.248196487989E+00
 -0.247283847694E+00
 -0.247283767590E+00
  0.381875761305E-01
  0.381875470181E-01
  0.372158180447E-01
  0.372158057718E-01
  0.475278929685E-01
  0.475279003655E-01
  0.123855628943E+00
  0.123855619144E+00
  0.276362144693E+00
  0.276362181862E+00
  0.555224552190E+00
  0.555224520210E+00
  0.331945149277E+00
  0.331945199280E+00
 -0.694928704184E-02
 -0.694932888223E-02
 -0.164733577206E+00
 -0.164733567609E+00
 -0.238483924180E+00
 -0.238483931464E+00
 -0.248196485958E+00
 -0.248196474107E+00
 -0.247283766858E+00
 -0.247283739174E+00
  0.381875182074E-01
  0.381875761231E-01
  0.372158756892E-01
  0.372158181137E-01
  0.475278939569E-01
  0.475278929974E-01
  0.123855619203E+00
  0.123855618923E+00
  0.276362181289E+00
  0.276362121480E+00
  0.555224517908E+00
  0.555224496533E+00
  0.331945115961E+00
  0.331945147901E+00
 -0.694935334343E-02
 -0.694928702743E-02
 -0.164733577561E+00
 -0.164733577285E+00
 -0.238483931609E+00
 -0.238483930680E+00
 -0.248196474567E+00
 -0.248196419585E+00
 -0.247283739126E+00
 -0.247283793937E+00
  0.381875329890E-01
  0.381875182431E-01
  0.372159089299E-01
  0.372158758266E-01
  0.475278804208E-01
  0.475278939360E-01
  0.123855618905E+00
  0.123855622238E+00
  0.276362122663E+00
  0.276362177846E+00
  0.555224510853E+00
  0.555224705190E+00
  0.331945409562E+00
  0.331945124522E+00
 -0.694929258802E-02
 -0.694935337317E-02
 -0.164733574256E+00
 -0.164733577537E+00
 -0.238483930575E+00
 -0.238483943571E+00
 -0.248196420502E+00
 -0.248196389046E+00
 -0.247283794168E+00
 -0.247283780242E+00
  0.381875042278E-01
  0.381875330230E-01
  0.372158485516E-01
  0.372159088753E-01
  0.475279095520E-01
  0.475278803865E-01
  0.123855622246E+00
  0.123855614089E+00
  0.276362177174E+00
  0.276362249500E+00
  0.555224679013E+00
  0.555224273029E+00
  0.331944801470E+00
  0.331945393912E+00
 -0.694921305052E-02
 -0.694929257110E-02
 -0.164733582299E+00
 -0.164733574266E+00
 -0.238483943399E+00
 -0.238483915411E+00
 -0.248196388682E+00
 -0.248196445924E+00
 -0.247283780462E+00
 -0.247283807639E+00
  0.381875188356E-01
  0.381875040897E-01
  0.372158163731E-01
  0.372158483837E-01
  0.475279316295E-01
  0.475279095202E-01
  0.123855614075E+00
  0.123855602210E+00
  0.276362248510E+00
  0.276362060061E+00
  0.555224288718E+00
  0.555224501631E+00
  0.331945123134E+00
  0.331944810849E+00
 -0.694942060176E-02
 -0.694921302561E-02
 -0.164733593960E+00
 -0.164733582281E+00
 -0.238483915251E+00
 -0.238483893991E+00
 -0.248196444805E+00
 -0.248196475223E+00
 -0.247283806745E+00
 -0.247283792820E+00
  0.381873230197E-01
  0.381875188976E-01
  0.372158788480E-01
  0.372158165556E-01
  0.475278913817E-01
  0.475279317105E-01
  0.123855602247E+00
  0.123855613372E+00
  0.276362059391E+00
  0.276362129070E+00
  0.555224470389E+00
  0.555224180258E+00
  0.331944670932E+00
  0.331945104456E+00
 -0.694934332510E-02
 -0.694942058490E-02
 -0.164733583075E+00
 -0.164733594009E+00
 -0.238483894397E+00
 -0.238483933462E+00
 -0.248196476440E+00
 -0.248196416954E+00
 -0.247283793221E+00
 -0.247283978596E+00
  0.381875008754E-01
  0.381873230184E-01
  0.372158818937E-01
  0.372158790364E-01
  0.475279254459E-01
  0.475278916650E-01
  0.123855613387E+00
  0.123855609299E+00
  0.276362138208E+00
  0.276362140230E+00
  0.555224342323E+00
  0.555225180403E+00
  0.331946078233E+00
  0.331944767823E+00
 -0.694934127859E-02
 -0.694934355488E-02
 -0.164733587098E+00
 -0.164733583094E+00
 -0.238483934883E+00
 -0.238483901618E+00
 -0.248196418210E+00
 -0.248196415451E+00
 -0.247283978588E+00
 -0.247283809453E+00
  0.381874257019E-01
  0.381875017195E-01
  0.372158210472E-01
  0.372158820647E-01
  0.475278683084E-01
  0.475279249125E-01
  0.123855609243E+00
  0.123855624521E+00
  0.276362127938E+00
  0.276362176340E+00
  0.555225000907E+00
  0.555224579556E+00
  0.331945232782E+00
  0.331945970920E+00
 -0.694928467761E-02
 -0.694934096950E-02
 -0.164733572171E+00
 -0.164733587023E+00
 -0.238483898942E+00
 -0.238483956614E+00
 -0.248196416591E+00
 -0.248196476891E+00
 -0.247283814920E+00
 -0.247283887945E+00
  0.367255649770E-01
  0.358054467293E-01
  0.358048682687E-01
  0.455401706772E-01
  0.455403391440E-01
  0.115279565948E+00
  0.115279647013E+00
  0.244665984397E+00
  0.244666113003E+00
  0.470965012374E+00
  0.281570010444E+00
 -0.615191598165E-02
 -0.615226583834E-02
 -0.153326840660E+00
 -0.153327027097E+00
 -0.228510990523E+00
 -0.228511072648E+00
 -0.238786674854E+00
 -0.238786462187E+00
 -0.237817562393E+00
 -0.463939710762E-01
 -0.474178550335E-01
 -0.474113195157E-01
 -0.366620937610E-01
 -0.366637836064E-01
  0.369964682107E-01
  0.369964446522E-01
  0.161580044405E+00
  0.161579999546E+00
  0.365504139759E+00
  0.296491476355E+00
  0.635268601300E-01
  0.635272638088E-01
 -0.754487654574E-01
 -0.754482484197E-01
 -0.156507456612E+00
 -0.156507500147E+00
 -0.168268004044E+00
 -0.168266778384E+00
 -0.167147317629E+00
SCALARS inclination float 1
LOOKUP_TABLE default
  0.100000000000E+01
  0.100000000000E+01
  0.100000000000E+01
  0.100000000000E+01
  0.100000000000E+01
  0.100000000000E+01
  0.100000000000E+01
  0.100000000000E+01
  0.100000000000E+01
  0.100000000000E+01
  0.100000000000E+01
  0.100000000000E+01
  0.100000000000E+01
  0.100000000000E+01
  0.100000000000E+01
  0.100000000000E+01
  0.100000000000E+01
  0.100000000000E+01
  0.100000000000E+01
  0.100000000000E+01
  0.100000000000E+01
  0.100000000000E+01
  0.100000000000E+01
  0.100000000000E+01
  0.100000000000E+01
  0.100000000000E+01
  0.100000000000E+01
  0.100000000000E+01
  0.100000000000E+01
  0.100000000000E+01
  0.100000000000E+01
  0.100000000000E+01
  0.100000000000E+01
  0.100000000000E+01
  0.100000000000E+01
  0.100000000000E+01
  0.100000000000E+01
  0.100000000000E+01
  0.100000000000E+01
  0.100000000000E+01
  0.100000000000E+01
  0.100000000000E+01
  0.100000000000E+01
  0.100000000000E+01
  0.100000000000E+01
  0.100000000000E+01
  0.100000000000E+01
  0.100000000000E+01
  0.100000000000E+01
  0.100000000000E+01
  0.100000000000E+01
  0.100000000000E+01
  0.100000000000E+01
  0.100000000000E+01
  0.100000000000E+01
  0.100000000000E+01
  0.100000000000E+01
  0.100000000000E+01
  0.100000000000E+01
  0.100000000000E+01
  0.100000000000E+01
  0.100000000000E+01
  0.100000000000E+01
  0.100000000000E+01
  0.100000000000E+01
  0.100000000000E+01
  0.100000000000E+01
  0.100000000000E+01
  0.100000000000E+01
  0.100000000000E+01
  0.100000000000E+01
  0.100000000000E+01
  0.100000000000E+01
  0.100000000000E+01
  0.100000000000E+01
  0.100000000000E+01
  0.100000000000E+01
  0.100000000000E+01
  0.100000000000E+01
  0.100000000000E+01
  0.100000000000E+01
  0.100000000000E+01
  0.100000000000E+01
  0.100000000000E+01
  0.100000000000E+01
  0.100000000000E+01
  0.100000000000E+01
  0.100000000000E+01
  0.100000000000E+01
  0.100000000000E+01
  0.100000000000E+01
  0.100000000000E+01
  0.100000000000E+01
  0.100000000000E+01
  0.100000000000E+01
  0.100000000000E+01
  0.100000000000E+01
  0.100000000000E+01
  0.100000000000E+01
  0.100000000000E+01
  0.100000000000E+01
  0.100000000000E+01
  0.100000000000E+01
  0.100000000000E+01
  0.100000000000E+01
  0.100000000000E+01
  0.100000000000E+01
  0.100000000000E+01
  0.100000000000E+01
  0.100000000000E+01
  0.100000000000E+01
  0.100000000000E+01
  0.100000000000E+01
  0.100000000000E+01
  0.100000000000E+01
  0.100000000000E+01
  0.100000000000E+01
  0.100000000000E+01
  0.100000000000E+01
  0.100000000000E+01
  0.100000000000E+01
  0.100000000000E+01
  0.100000000000E+01
  0.100000000000E+01
  0.100000000000E+01
  0.100000000000E+01
  0.100000000000E+01
  0.100000000000E+01
  0.100000000000E+01
  0.100000000000E+01
  0.100000000000E+01
  0.100000000000E+01
  0.100000000000E+01
  0.100000000000E+01
  0.100000000000E+01
  0.100000000000E+01
  0.100000000000E+01
  0.100000000000E+01
  0.100000000000E+01
  0.100000000000E+01
  0.100000000000E+01
  0.100000000000E+01
  0.100000000000E+01
  0.100000000000E+01
  0.100000000000E+01
  0.100000000000E+01
  0.100000000000E+01
  0.100000000000E+01
  0.100000000000E+01
  0.100000000000E+01
  0.100000000000E+01
  0.100000000000E+01
  0.100000000000E+01
  0.100000000000E+01
  0.100000000000E+01
  0.100000000000E+01
  0.100000000000E+01
  0.100000000000E+01
  0.100000000000E+01
  0.100000000000E+01
  0.100000000000E+01
  0.100000000000E+01
  0.100000000000E+01
  0.100000000000E+01
  0.100000000000E+01
  0.100000000000E+01
  0.100000000000E+01
  0.100000000000E+01
  0.100000000000E+01
  0.100000000000E+01
  0.100000000000E+01
  0.100000000000E+01
  0.100000000000E+01
  0.100000000000E+01
  0.100000000000E+01
  0.100000000000E+01
  0.100000000000E+01
  0.100000000000E+01
  0.100000000000E+01
  0.100000000000E+01
  0.100000000000E+01
  0.100000000000E+01
  0.100000000000E+01
  0.100000000000E+01
  0.100000000000E+01
  0.100000000000E+01
  0.100000000000E+01
  0.100000000000E+01
  0.100000000000E+01
  0.100000000000E+01
  0.100000000000E+01
  0.100000000000E+01
  0.100000000000E+01
  0.100000000000E+01
  0.100000000000E+01
  0.100000000000E+01
  0.100000000000E+01
  0.100000000000E+01
  0.100000000000E+01
  0.100000000000E+01
  0.100000000000E+01
  0.100000000000E+01
  0.100000000000E+01
  0.100000000000E+01
  0.100000000000E+01
  0.100000000000E+01
  0.100000000000E+01
  0.100000000000E+01
  0.100000000000E+01
  0.100000000000E+01
  0.100000000000E+01
  0.100000000000E+01
  0.100000000000E+01
  0.100000000000E+01
  0.100000000000E+01
  0.100000000000E+01
  0.100000000000E+01
  0.100000000000E+01
  0.100000000000E+01
  0.100000000000E+01
  0.100000000000E+01
  0.100000000000E+01
  0.100000000000E+01
  0.100000000000E+01
  0.100000000000E+01
  0.100000000000E+01
  0.100000000000E+01
  0.100000000000E+01
  0.100000000000E+01
  0.100000000000E+01
  0.100000000000E+01
  0.100000000000E+01
  0.100000000000E+01
  0.100000000000E+01
  0.100000000000E+01
  0.100000000000E+01
  0.100000000000E+01
  0.100000000000E+01
  0.100000000000E+01
  0.100000000000E+01
  0.100000000000E+01
  0.100000000000E+01
  0.100000000000E+01
  0.100000000000E+01
  0.100000000000E+01
  0.100000000000E+01
  0.100000000000E+01
  0.100000000000E+01
  0.100000000000E+01
  0.100000000000E+01
  0.100000000000E+01
  0.100000000000E+01
  0.100000000000E+01
  0.100000000000E+01
  0.100000000000E+01
  0.100000000000E+01
VECTORS v float
  0.150857016651E+03  0.331672750424E+01  0.157653133346E+02
  0.152718844449E+03  0.278015039532E+01  0.160216064483E+02
  0.156003269872E+03 -0.504291270295E+00  0.168777159615E+02
  0.157622776028E+03  0.506049249535E+00  0.169433969710E+02
  0.160613553777E+03 -0.248474348919E+01  0.158857298188E+02
  0.161757506703E+03 -0.588269573931E+00  0.158124355744E+02
  0.159209511915E+03  0.195972890041E+01  0.324943223055E+01
  0.161007909482E+03 -0.467660033743E+01  0.342372876656E+01
  0.140003621524E+03  0.163277072753E+02 -0.171572490264E+02
  0.146673603957E+03 -0.184190042124E+01 -0.206031774537E+02
  0.829710165505E+02  0.618607124844E+02 -0.122366060407E+02
  0.836678643026E+02  0.603061303348E+02 -0.135416492942E+02
  0.166560293464E+03 -0.225862988269E+02  0.109638985768E+03
  0.143811680734E+03  0.281630758945E+02  0.670358135619E+02
  0.204157144661E+03 -0.321824030409E+02  0.327867783427E+02
  0.194467788191E+03 -0.578776019370E+01  0.277809449302E+02
  0.196884672663E+03 -0.820463774029E+01 -0.423799609737E+01
  0.197486070635E+03 -0.104238774697E+02 -0.429628603216E+01
  0.187343503120E+03 -0.281275454929E+00 -0.182746034582E+02
  0.182793944782E+03 -0.782364598234E+01 -0.185661046625E+02
  0.173737410175E+03  0.123293352728E+01 -0.186028045114E+02
  0.167677223333E+03 -0.254776223798E+01 -0.183569989646E+02
  0.161019423083E+03  0.411007094298E+01 -0.167664511165E+02
  0.153825160137E+03  0.618345379292E+01 -0.157761483768E+02
  0.151169819333E+03  0.664158989345E+01  0.154434551317E+02
  0.150896441356E+03  0.680903272935E+01  0.153963557647E+02
  0.155792585730E+03  0.191286010519E+01  0.165943276861E+02
  0.156030751112E+03  0.188626234405E+01  0.166228816029E+02
  0.159933633783E+03 -0.201663882104E+01  0.157739134035E+02
  0.160620912137E+03 -0.170174083334E+01  0.158101817540E+02
  0.161009013587E+03 -0.208984745524E+01  0.337029780142E+01
  0.161378041999E+03 -0.299707940425E+01  0.339667262334E+01
  0.146924698691E+03  0.114562751316E+02 -0.187931915569E+02
  0.146764157103E+03  0.117647895023E+02 -0.187281260345E+02
  0.865927635910E+02  0.719362093479E+02 -0.849568202877E+01
  0.814081966104E+02  0.802303571598E+02 -0.682735537737E+00
  0.182590890949E+03 -0.209523371793E+02  0.117983987753E+03
  0.171452560379E+03 -0.313350227581E+01  0.101198962275E+03
  0.210649697360E+03 -0.423306417346E+02  0.350953229826E+02
  0.204199573426E+03 -0.299353462369E+02  0.324809357437E+02
  0.196634662202E+03 -0.223704111590E+02 -0.452556160275E+01
  0.196878370515E+03 -0.229695518223E+02 -0.454297610759E+01
  0.182784062736E+03 -0.887519594802E+01 -0.186675633421E+02
  0.178748049337E+03 -0.107244220114E+02 -0.184545733278E+02
  0.167710116434E+03  0.313562772516E+00 -0.180519802598E+02
  0.164116154134E+03  0.714930753996E+00 -0.176211230538E+02
  0.153878994050E+03  0.109521499132E+02 -0.152723416987E+02
  0.152438971589E+03  0.118341563814E+02 -0.150242180302E+02
  0.151249303531E+03  0.795558824008E+01  0.153115496396E+02
  0.151185208147E+03  0.800475713307E+01  0.152994383059E+02
  0.155965055949E+03  0.322488124278E+01  0.164714291059E+02
  0.155808505101E+03  0.329766390650E+01  0.164467068593E+02
  0.159768625960E+03 -0.662475287131E+00  0.156259455442E+02
  0.159946158784E+03 -0.683853533473E+00  0.156453195966E+02
  0.161378418022E+03 -0.211612087999E+01  0.337847573889E+01
  0.160565538725E+03 -0.592183539836E+00  0.333018689508E+01
  0.146790925148E+03  0.131824436516E+02 -0.185351718892E+02
  0.144608191304E+03  0.165639585919E+02 -0.177632498917E+02
  0.813144765637E+02  0.798577026116E+02 -0.844419179803E+00
  0.761035862918E+02  0.868573407246E+02  0.623342130656E+01