# vtk DataFile Version 3.0
TriPan results file. Generated by TriPan, USU AeroLab (c) 2021.
ASCII
DATASET POLYDATA
POINTS                7064 float
  0.000000000000E+00  0.000000000000E+00  0.000000000000E+00
  0.389988087118E-01  0.000000000000E+00 -0.109218262136E+00
  0.389988087118E-01  0.000000000000E+00  0.109218262136E+00
  0.147665724158E+00  0.000000000000E+00 -0.234920635819E+00
  0.147665724158E+00  0.000000000000E+00  0.234920635819E+00
  0.161138445139E+00  0.161138445139E+00  0.000000000000E+00
  0.200137257576E+00  0.161138445139E+00 -0.109218269587E+00
  0.200137257576E+00  0.161138445139E+00  0.109218269587E+00
  0.290265858173E+00  0.000000000000E+00 -0.347333192825E+00
  0.290265858173E+00  0.000000000000E+00  0.347333192825E+00
  0.308804154396E+00  0.161138445139E+00 -0.234920650721E+00
  0.308804154396E+00  0.161138445139E+00  0.234920650721E+00
  0.335006117821E+00  0.335006117821E+00  0.000000000000E+00
  0.374004930258E+00  0.335006117821E+00 -0.109218277037E+00
  0.374004930258E+00  0.335006117821E+00  0.109218277037E+00
  0.451404303312E+00  0.161138445139E+00 -0.347333222628E+00
  0.451404303312E+00  0.161138445139E+00  0.347333222628E+00
  0.473465979099E+00  0.000000000000E+00 -0.436293870211E+00
  0.473465979099E+00  0.000000000000E+00  0.436293870211E+00
  0.482671856880E+00  0.335006117821E+00 -0.234920650721E+00
  0.482671856880E+00  0.335006117821E+00  0.234920650721E+00
  0.522506594658E+00  0.522506594658E+00  0.000000000000E+00
  0.561505436897E+00  0.522506594658E+00 -0.109218284488E+00
  0.561505436897E+00  0.522506594658E+00  0.109218284488E+00
  0.625271975994E+00  0.335006117821E+00 -0.347333222628E+00
  0.625271975994E+00  0.335006117821E+00  0.347333222628E+00
  0.634604454041E+00  0.161138445139E+00 -0.436293900013E+00
  0.634604454041E+00  0.161138445139E+00  0.436293900013E+00
  0.670172333717E+00  0.522506594658E+00 -0.234920665622E+00
  0.670172333717E+00  0.522506594658E+00  0.234920665622E+00
  0.689334988594E+00  0.000000000000E+00 -0.522850036621E+00
  0.689334988594E+00  0.000000000000E+00  0.522850036621E+00
  0.724590361118E+00  0.724590361118E+00  0.000000000000E+00
  0.763589203358E+00  0.724590361118E+00 -0.109218291938E+00
  0.763589203358E+00  0.724590361118E+00  0.109218291938E+00
  0.808472156525E+00  0.335006117821E+00 -0.436293929815E+00
  0.808472156525E+00  0.335006117821E+00  0.436293929815E+00
  0.812772512436E+00  0.522506594658E+00 -0.347333252430E+00
  0.812772512436E+00  0.522506594658E+00  0.347333252430E+00
  0.850473463535E+00  0.161138445139E+00 -0.522850036621E+00
  0.850473463535E+00  0.161138445139E+00  0.522850036621E+00
  0.872256100178E+00  0.724590361118E+00 -0.234920680523E+00
  0.872256100178E+00  0.724590361118E+00  0.234920680523E+00
  0.942254066467E+00  0.942254066467E+00  0.000000000000E+00
  0.944064557552E+00  0.000000000000E+00 -0.604293465614E+00
  0.944064557552E+00  0.000000000000E+00  0.604293465614E+00
  0.981252849102E+00  0.942254066467E+00 -0.109218299389E+00
  0.981252849102E+00  0.942254066467E+00  0.109218299389E+00
  0.995972692966E+00  0.522506594658E+00 -0.436293959618E+00
  0.995972692966E+00  0.522506594658E+00  0.436293959618E+00
  0.101485633850E+01  0.724590361118E+00 -0.347333282232E+00
  0.101485633850E+01  0.724590361118E+00  0.347333282232E+00
  0.102434122562E+01  0.335006117821E+00 -0.522850096226E+00
  0.102434122562E+01  0.335006117821E+00  0.522850096226E+00
  0.108991980553E+01  0.942254066467E+00 -0.234920710325E+00
  0.108991980553E+01  0.942254066467E+00  0.234920710325E+00
  0.110520303249E+01  0.161138445139E+00 -0.604293525219E+00
  0.110520303249E+01  0.161138445139E+00  0.604293525219E+00
  0.117653930187E+01  0.117653930187E+01  0.000000000000E+00
  0.119805645943E+01  0.724590361118E+00 -0.436293989420E+00
  0.119805645943E+01  0.724590361118E+00  0.436293989420E+00
  0.121184170246E+01  0.522506594658E+00 -0.522850096226E+00
  0.121184170246E+01  0.522506594658E+00  0.522850096226E+00
  0.121553814411E+01  0.117653930187E+01 -0.109218306839E+00
  0.121553814411E+01  0.117653930187E+01  0.109218306839E+00
  0.123251998425E+01  0.942254066467E+00 -0.347333312035E+00
  0.123251998425E+01  0.942254066467E+00  0.347333312035E+00
  0.123833239079E+01  0.000000000000E+00 -0.683996438980E+00
  0.123833239079E+01  0.000000000000E+00  0.683996438980E+00
  0.127907073498E+01  0.335006117821E+00 -0.604293525219E+00
  0.127907073498E+01  0.335006117821E+00  0.604293525219E+00
  0.132420504093E+01  0.117653930187E+01 -0.234920725226E+00
  0.132420504093E+01  0.117653930187E+01  0.234920725226E+00
  0.139947092533E+01  0.161138445139E+00 -0.683996498585E+00
  0.139947092533E+01  0.161138445139E+00  0.683996498585E+00
  0.141392552853E+01  0.724590361118E+00 -0.522850155830E+00
  0.141392552853E+01  0.724590361118E+00  0.522850155830E+00
  0.141572022438E+01  0.942254066467E+00 -0.436294019222E+00
  0.141572022438E+01  0.942254066467E+00  0.436294019222E+00
  0.142853081226E+01  0.142853081226E+01  0.000000000000E+00
  0.146657133102E+01  0.522506594658E+00 -0.604293584824E+00
  0.146657133102E+01  0.522506594658E+00  0.604293584824E+00
  0.146680521965E+01  0.117653930187E+01 -0.347333341837E+00
  0.146680521965E+01  0.117653930187E+01  0.347333341837E+00
  0.146752965450E+01  0.142853081226E+01 -0.109218314290E+00
  0.146752965450E+01  0.142853081226E+01  0.109218314290E+00
  0.157333862782E+01  0.335006117821E+00 -0.683996558189E+00
  0.157333862782E+01  0.335006117821E+00  0.683996558189E+00
  0.157619655132E+01  0.142853081226E+01 -0.234920740128E+00
  0.157619655132E+01  0.142853081226E+01  0.234920740128E+00
  0.157641971111E+01  0.000000000000E+00 -0.760520398617E+00
  0.157641971111E+01  0.000000000000E+00  0.760520398617E+00
  0.163158929348E+01  0.942254066467E+00 -0.522850155830E+00
  0.163158929348E+01  0.942254066467E+00  0.522850155830E+00
  0.165000545979E+01  0.117653930187E+01 -0.436294049025E+00
  0.165000545979E+01  0.117653930187E+01  0.436294049025E+00
  0.166865515709E+01  0.724590361118E+00 -0.604293584824E+00
  0.166865515709E+01  0.724590361118E+00  0.604293584824E+00
  0.169935321808E+01  0.169935321808E+01  0.000000000000E+00
  0.171879673004E+01  0.142853081226E+01 -0.347333371639E+00
  0.171879673004E+01  0.142853081226E+01  0.347333371639E+00
  0.173755824566E+01  0.161138445139E+00 -0.760520458221E+00
  0.173755824566E+01  0.161138445139E+00  0.760520458221E+00
  0.173835194111E+01  0.169935321808E+01 -0.109218329191E+00
  0.173835194111E+01  0.169935321808E+01  0.109218329191E+00
  0.176083922386E+01  0.522506594658E+00 -0.683996558189E+00
  0.176083922386E+01  0.522506594658E+00  0.683996558189E+00
  0.184701895714E+01  0.169935321808E+01 -0.234920755029E+00
  0.184701895714E+01  0.169935321808E+01  0.234920755029E+00
  0.186587452888E+01  0.117653930187E+01 -0.522850215435E+00
  0.186587452888E+01  0.117653930187E+01  0.522850215435E+00
  0.188631892204E+01  0.942254066467E+00 -0.604293644428E+00
  0.188631892204E+01  0.942254066467E+00  0.604293644428E+00
  0.190199697018E+01  0.142853081226E+01 -0.436294078827E+00
  0.190199697018E+01  0.142853081226E+01  0.436294078827E+00
  0.191142594814E+01  0.335006117821E+00 -0.760520458221E+00
  0.191142594814E+01  0.335006117821E+00  0.760520458221E+00
  0.196138751507E+01  0.000000000000E+00 -0.833668828011E+00
  0.196138751507E+01  0.000000000000E+00  0.833668828011E+00
  0.196292304993E+01  0.724590361118E+00 -0.683996617794E+00
  0.196292304993E+01  0.724590361118E+00  0.683996617794E+00
  0.198961913586E+01  0.169935321808E+01 -0.347333401442E+00
  0.198961913586E+01  0.169935321808E+01  0.347333401442E+00
  0.199016737938E+01  0.199016737938E+01  0.000000000000E+00
  0.202916622162E+01  0.199016737938E+01 -0.109218336642E+00
  0.202916622162E+01  0.199016737938E+01  0.109218336642E+00
  0.209892654419E+01  0.522506594658E+00 -0.760520517826E+00
  0.209892654419E+01  0.522506594658E+00  0.760520517826E+00
  0.211786603928E+01  0.142853081226E+01 -0.522850275040E+00
  0.211786603928E+01  0.142853081226E+01  0.522850275040E+00
  0.212060427666E+01  0.117653930187E+01 -0.604293704033E+00
  0.212060427666E+01  0.117653930187E+01  0.604293704033E+00
  0.212252616882E+01  0.161138445139E+00 -0.833668828011E+00
  0.212252616882E+01  0.161138445139E+00  0.833668828011E+00
  0.213783311844E+01  0.199016737938E+01 -0.234920784831E+00
  0.213783311844E+01  0.199016737938E+01  0.234920784831E+00
  0.217281937599E+01  0.169935321808E+01 -0.436294138432E+00
  0.217281937599E+01  0.169935321808E+01  0.436294138432E+00
  0.218058681488E+01  0.942254066467E+00 -0.683996677399E+00
  0.218058681488E+01  0.942254066467E+00  0.683996677399E+00
  0.228043341637E+01  0.199016737938E+01 -0.347333431244E+00
  0.228043341637E+01  0.199016737938E+01  0.347333431244E+00
  0.229639387131E+01  0.335006117821E+00 -0.833668887615E+00
  0.229639387131E+01  0.335006117821E+00  0.833668887615E+00
  0.230101037025E+01  0.724590361118E+00 -0.760520577431E+00
  0.230101037025E+01  0.724590361118E+00  0.760520577431E+00
  0.230216526985E+01  0.230216526985E+01  0.000000000000E+00
  0.234116411209E+01  0.230216526985E+01 -0.109218344092E+00
  0.234116411209E+01  0.230216526985E+01  0.109218344092E+00
  0.237259578705E+01  0.142853081226E+01 -0.604293763638E+00
  0.237259578705E+01  0.142853081226E+01  0.604293763638E+00
  0.238868856430E+01  0.169935321808E+01 -0.522850275040E+00
  0.238868856430E+01  0.169935321808E+01  0.522850275040E+00
  0.239635515213E+01  0.000000000000E+00 -0.902061045170E+00
  0.239635515213E+01  0.000000000000E+00  0.902061045170E+00
  0.241487216949E+01  0.117653930187E+01 -0.683996737003E+00
  0.241487216949E+01  0.117653930187E+01  0.683996737003E+00
  0.244983124733E+01  0.230216526985E+01 -0.234920799732E+00
  0.244983124733E+01  0.230216526985E+01  0.234920799732E+00
  0.246363353729E+01  0.199016737938E+01 -0.436294168234E+00
  0.246363353729E+01  0.199016737938E+01  0.436294168234E+00
[...]
CELL_DATA               13888
SCALARS sigma float 1
LOOKUP_TABLE default
  0.385023606523E-01
  0.385039104876E-01
  0.384309672264E-01
  0.384309733152E-01
  0.383471051827E-01
  0.383459465436E-01
  0.382488682946E-01
  0.382488683468E-01
  0.381372289751E-01
  0.381372605020E-01
  0.380076480411E-01
  0.380084016703E-01
  0.378680154386E-01
  0.378673313214E-01
  0.376840178277E-01
  0.376840601378E-01
  0.373933275706E-01
  0.373938423176E-01
  0.369980061349E-01
  0.369975800872E-01
  0.368276807193E-01
  0.368278271152E-01
  0.370657240023E-01
  0.370655923828E-01
  0.373436999407E-01
  0.373436999247E-01
  0.373830641294E-01
  0.373831089087E-01
  0.387984125861E-01
  0.387984706801E-01
  0.403212126568E-01
  0.403211601022E-01
  0.424349203025E-01
  0.424349203013E-01
  0.485279345859E-01
  0.485279730531E-01
  0.539480128498E-01
  0.539480818959E-01
  0.636873366198E-01
  0.636872482373E-01
  0.731986554726E-01
  0.731986450706E-01
  0.873065712384E-01
  0.873066046773E-01
  0.103961314582E+00
  0.103961338781E+00
  0.121976296428E+00
  0.121976143244E+00
  0.151277982506E+00
  0.151277982519E+00
  0.177258022698E+00
  0.177258022684E+00
  0.201957644346E+00
  0.201957683975E+00
  0.225489848662E+00
  0.225489994903E+00
  0.247593020672E+00
  0.247592888551E+00
  0.268665692724E+00
  0.268665743886E+00
  0.292793113123E+00
  0.292793184496E+00
  0.320990555625E+00
  0.320990404788E+00
  0.350795618550E+00
  0.350795618544E+00
  0.385087328386E+00
  0.385087296785E+00
  0.419811877234E+00
  0.419811994839E+00
  0.470710839642E+00
  0.470710786655E+00
  0.515097835178E+00
  0.515097812859E+00
  0.617251430365E+00
  0.617251431136E+00
  0.672286827408E+00
  0.672286814159E+00
  0.713749246310E+00
  0.713749248323E+00
  0.643070852037E+00
  0.643070852056E+00
  0.521707798146E+00
  0.521707777583E+00
  0.424470067150E+00
  0.424470062055E+00
  0.277101371464E+00
  0.277101413246E+00
  0.219566057891E+00
  0.219566146009E+00
  0.156742004646E+00
  0.156741828528E+00
  0.115476968312E+00
  0.115477013280E+00
  0.758267992153E-01
  0.758267992238E-01
  0.421692164449E-01
  0.421694136185E-01
  0.109643620271E-01
  0.109642720145E-01
 -0.152742303551E-01
 -0.152742929586E-01
 -0.378585289222E-01
 -0.378583715779E-01
 -0.612265110598E-01
 -0.612266797436E-01
 -0.857576837578E-01
 -0.857577277818E-01
 -0.111131878457E+00
 -0.111131878443E+00
 -0.137420264816E+00
 -0.137420264829E+00
 -0.166589499372E+00
 -0.166589352974E+00
 -0.184275190916E+00
 -0.184275213155E+00
 -0.200460425177E+00
 -0.200460454759E+00
 -0.214047649869E+00
 -0.214047640968E+00
 -0.223144712495E+00
 -0.223144617292E+00
 -0.232407051145E+00
 -0.232407126004E+00
 -0.237538842462E+00
 -0.237538884203E+00
 -0.243288212222E+00
 -0.243288212221E+00
 -0.245277910256E+00
 -0.245277853574E+00
 -0.246709680253E+00
 -0.246709742467E+00
 -0.248039388854E+00
 -0.248039436418E+00
 -0.248076402288E+00
 -0.248076402271E+00
 -0.248337541071E+00
 -0.248337403923E+00
 -0.248560751316E+00
 -0.248560902389E+00
 -0.248401397043E+00
 -0.248400961564E+00
 -0.248029279549E+00
 -0.248029800907E+00
 -0.247756753385E+00
 -0.247756795875E+00
 -0.247584609034E+00
 -0.247583927396E+00
 -0.247452049649E+00
 -0.247452795173E+00
 -0.247331028453E+00
 -0.247331059439E+00
 -0.247226170365E+00
 -0.247226170416E+00
 -0.247134956386E+00
 -0.247133830058E+00
 -0.247055023942E+00
 -0.247055029834E+00
 -0.246986486017E+00
 -0.246987979777E+00
  0.385039026980E-01
  0.385023596439E-01
  0.384309590746E-01
  0.384309712541E-01
  0.383459455541E-01
  0.383471045062E-01
  0.382498437183E-01
  0.382488671173E-01
  0.381363586660E-01
  0.381372231245E-01
  0.380084010450E-01
  0.380076470502E-01
  0.378679952448E-01
  0.378680193123E-01
  0.376834304302E-01
  0.376840118292E-01
  0.373938417122E-01
  0.373933265981E-01
  0.369979765981E-01
  0.369980098277E-01
  0.368276797758E-01
  0.368276797778E-01
  0.370655914216E-01
  0.370657231887E-01
  0.373436478649E-01
  0.373436966727E-01
  0.373831063507E-01
  0.373830615344E-01
  0.387984698704E-01
  0.387984116853E-01
  0.403211591801E-01
  0.403212118239E-01
  0.424350422646E-01
  0.424349208482E-01
  0.485278625720E-01
  0.485279336660E-01
  0.539480835997E-01
  0.539480144112E-01
  0.636872699758E-01
  0.636873382293E-01
  0.731986446134E-01
  0.731985727857E-01
  0.873066014372E-01
  0.873066014372E-01
  0.103961335489E+00
  0.103961335489E+00
  0.121976143247E+00
  0.121976296282E+00
  0.151277981718E+00
  0.151277981718E+00
  0.177258017841E+00
  0.177258017840E+00
  0.201957675651E+00
  0.201957635886E+00
  0.225489997797E+00
  0.225489821180E+00
  0.247592897808E+00
  0.247593084163E+00
  0.268665739578E+00
  0.268665640414E+00
  0.292793207282E+00
  0.292793207284E+00
  0.320990407392E+00
  0.320990518231E+00
  0.350795598154E+00
  0.350795482095E+00
  0.385087294654E+00
  0.385087413794E+00
  0.419811995321E+00
  0.419811913259E+00
  0.470710790348E+00
  0.470710801230E+00
  0.515097796409E+00
  0.515097821234E+00
  0.617251395258E+00
  0.617251403314E+00
  0.672286768090E+00
  0.672286783217E+00
  0.713749253456E+00
  0.713749248830E+00
  0.643070857076E+00
  0.643070856661E+00
  0.521707729538E+00
  0.521707762396E+00
  0.424470082015E+00
  0.424470042477E+00
  0.277101407508E+00
  0.277101362615E+00
  0.219566077252E+00
  0.219566059613E+00
  0.156741884243E+00
  0.156742004826E+00
  0.115477134441E+00
  0.115476967673E+00
  0.758266394931E-01
  0.758267948079E-01
  0.421693598644E-01
  0.421692167870E-01
  0.109643628826E-01
  0.109643628804E-01
 -0.152743502774E-01
 -0.152742301101E-01
 -0.378583102951E-01
 -0.378585303377E-01
 -0.612267141328E-01
 -0.612265118456E-01
 -0.857577241667E-01
 -0.857576802234E-01
 -0.111131875421E+00
 -0.111131875420E+00
 -0.137420264088E+00
 -0.137420264088E+00
 -0.166589352775E+00
 -0.166589499376E+00
 -0.184275185081E+00
 -0.184275185081E+00
 -0.200460417738E+00
 -0.200460417738E+00
 -0.214047710522E+00
 -0.214047648532E+00
 -0.223144622931E+00
 -0.223144695820E+00
 -0.232407132730E+00
 -0.232407058422E+00
 -0.237538879700E+00
 -0.237538956100E+00
 -0.243288215349E+00
 -0.243288084984E+00
 -0.245277848507E+00
 -0.245277904745E+00
 -0.246709736739E+00
 -0.246709674994E+00
 -0.248039419200E+00
 -0.248039372007E+00
 -0.248076380562E+00
 -0.248076431504E+00
 -0.248337398472E+00
 -0.248337534767E+00
 -0.248560896035E+00
 -0.248560896037E+00
 -0.248400986357E+00
 -0.248401020118E+00
 -0.248029794457E+00
 -0.248029275533E+00
 -0.247756756437E+00
 -0.247757337515E+00
 -0.247583952723E+00
 -0.247583976602E+00
 -0.247452788722E+00
 -0.247452045603E+00
 -0.247331021496E+00
 -0.247331868367E+00
 -0.247226162806E+00
 -0.247225211221E+00
 -0.247133825698E+00
 -0.247134949562E+00
 -0.247055055726E+00
 -0.247055067487E+00
 -0.246987973308E+00
 -0.246986488817E+00
  0.385038983580E-01
  0.385039053509E-01
  0.384309509293E-01
  0.384309570213E-01
  0.383459329903E-01
  0.383459435052E-01
  0.382498646712E-01
  0.382498464716E-01
  0.381363568276E-01
  0.381363568276E-01
  0.380083761939E-01
  0.380084037202E-01
  0.378679689765E-01
  0.378679930942E-01
  0.376834284525E-01
  0.376834284525E-01
  0.373938443834E-01
  0.373938443859E-01
  0.369980081982E-01
  0.369979749420E-01
  0.368276183017E-01
  0.368276778364E-01
  0.370657772386E-01
  0.370655916271E-01
  0.373436497018E-01
  0.373436497195E-01
  0.373830634058E-01
  0.373831082550E-01
  0.387985556079E-01
  0.387984723779E-01
  0.403210813632E-01
  0.403211594433E-01
  0.424349196670E-01
  0.424350412462E-01
  0.485279710804E-01
  0.485278612765E-01
  0.539480838722E-01
  0.539480838827E-01
  0.636872685124E-01
  0.636872685084E-01
  0.731985748293E-01
  0.731986465257E-01
  0.873066049544E-01
  0.873066049551E-01
  0.103961338441E+00
  0.103961338440E+00
  0.121976296305E+00
  0.121976143407E+00
  0.151277982395E+00
  0.151277982395E+00
  0.177258021675E+00
  0.177257999910E+00
  0.201957643518E+00
  0.201957683422E+00
  0.225489816569E+00
  0.225489964436E+00
  0.247593081104E+00
  0.247592987281E+00
  0.268665634726E+00
  0.268665734733E+00
  0.292793184657E+00
  0.292793078260E+00
  0.320990524423E+00
  0.320990481764E+00
  0.350795472731E+00
  0.350795590586E+00
  0.385087402355E+00
  0.385087280946E+00
  0.419811906150E+00
  0.419811950648E+00
  0.470710786565E+00
  0.470710775330E+00
  0.515097822014E+00
  0.515097822016E+00
  0.617251412745E+00
  0.617251398830E+00
  0.672286790964E+00
  0.672286779546E+00
  0.713749200267E+00
  0.713749243655E+00
  0.643070805660E+00
  0.643070813322E+00
  0.521707771286E+00
  0.521707735551E+00
  0.424470032499E+00
  0.424470088500E+00
  0.277101407932E+00
  0.277101407928E+00
  0.219566052608E+00
  0.219566070411E+00
  0.156741945877E+00
  0.156741881589E+00
  0.115476963560E+00
  0.115477131011E+00
  0.758267931743E-01
  0.758266374689E-01
  0.421693062362E-01
  0.421693606779E-01
  0.109642306429E-01
  0.109643620353E-01
 -0.152742298346E-01
 -0.152743499540E-01
 -0.378584197488E-01
 -0.378583098273E-01
 -0.612265446159E-01
 -0.612267128808E-01
 -0.857576835242E-01
 -0.857577274076E-01
 -0.111131900848E+00
 -0.111131877825E+00
 -0.137420264703E+00
 -0.137420264703E+00
 -0.166589499594E+00
 -0.166589352806E+00
 -0.184275190313E+00
 -0.184275190312E+00
 -0.200460425813E+00
 -0.200460425814E+00
 -0.214047654132E+00
 -0.214047716498E+00
 -0.223144690679E+00
 -0.223144690675E+00
 -0.232407059641E+00
 -0.232407059652E+00
 -0.237538949758E+00
 -0.237538832813E+00
 -0.243288079145E+00
 -0.243288208499E+00
 -0.245277906346E+00
 -0.245277989021E+00
 -0.246709690939E+00
 -0.246709603363E+00
 -0.248039384642E+00
 -0.248039431493E+00
 -0.248076443825E+00
 -0.248076443843E+00
 -0.248337536144E+00
 -0.248337345457E+00
 -0.248560882947E+00
 -0.248560943596E+00
 -0.248401008999E+00
 -0.248400975400E+00
 -0.248029293267E+00
 -0.248029293270E+00
 -0.247757324512E+00
 -0.247757324512E+00
 -0.247583962541E+00
 -0.247583986377E+00
 -0.247452063020E+00
 -0.247452090056E+00
 -0.247331856443E+00
 -0.247331856443E+00
 -0.247225229017E+00
 -0.247225211330E+00
 -0.247134936358E+00
 -0.247134946531E+00
 -0.247055054287E+00
 -0.247055060159E+00
 -0.246986505834E+00
 -0.246986512550E+00
  0.385023470797E-01
  0.385038979447E-01
  0.384309444247E-01
  0.384309505175E-01
  0.383470751656E-01
  0.383459365900E-01
  0.382488506080E-01
  0.382498642091E-01
  0.381372253747E-01
  0.381363603085E-01
  0.380076210430E-01
  0.380083756538E-01
  0.378679928355E-01
  0.378679687410E-01
  0.376840144620E-01
  0.376834323822E-01
  0.373932907967E-01
  0.373938440146E-01
  0.369979742662E-01
  0.369980075425E-01
  0.368280941862E-01
  0.368276218910E-01
  0.370655393698E-01
  0.370657788865E-01
  0.373436492194E-01
  0.373436492001E-01
  0.373831083948E-01
  0.373830634843E-01
  0.387984718101E-01
  0.387985551473E-01
  0.403210795852E-01
  0.403210795865E-01
  0.424349191875E-01
  0.424349192002E-01
  0.485279728665E-01
  0.485279728653E-01
  0.539480834257E-01
  0.539480834163E-01
  0.636872680898E-01
  0.636872680954E-01
  0.731986445181E-01
  0.731986548782E-01
  0.873066029987E-01
  0.873065364502E-01
  0.103961335734E+00
  0.103961359830E+00
  0.121976143599E+00
  0.121976296371E+00
  0.151277981729E+00
  0.151277981729E+00
  0.177257995856E+00
  0.177257995857E+00
  0.201957676652E+00
  0.201957676652E+00
  0.225489964120E+00
  0.225489785723E+00
  0.247592993772E+00
  0.247593088192E+00
  0.268665743816E+00
  0.268665691332E+00
  0.292793083990E+00
  0.292793083992E+00
  0.320990484143E+00
  0.320990484137E+00
  0.350795617385E+00
  0.350795617389E+00
  0.385087287255E+00
  0.385087410750E+00
  0.419811940139E+00
  0.419811814186E+00
  0.470710796065E+00
  0.470710807618E+00
  0.515097846303E+00
  0.515097897120E+00
  0.617251363140E+00
  0.617251346547E+00
  0.672286825631E+00
  0.672286824209E+00
  0.713749248070E+00
  0.713749244162E+00
  0.643070810697E+00
  0.643070809637E+00
  0.521707813871E+00
  0.521707807049E+00
  0.424469950115E+00
  0.424470007956E+00
  0.277101507874E+00
  0.277101420997E+00
  0.219566080225E+00
  0.219566062280E+00
  0.156741762723E+00
  0.156741941953E+00
  0.115477133529E+00
  0.115476965452E+00
  0.758267989729E-01
  0.758267989670E-01
  0.421693065417E-01
  0.421693065487E-01
  0.109642308596E-01
  0.109642308574E-01
 -0.152742928816E-01
 -0.152742303510E-01
 -0.378583109091E-01
 -0.378584207414E-01
 -0.612267463355E-01
 -0.612265445302E-01
 -0.857576806498E-01
 -0.857576806498E-01
 -0.111131898306E+00
 -0.111131898307E+00
 -0.137420264098E+00
 -0.137420264098E+00
 -0.166589352896E+00
 -0.166589499856E+00
 -0.184275163096E+00
 -0.184275185517E+00
 -0.200460481282E+00
 -0.200460421321E+00
 -0.214047639184E+00
 -0.214047648261E+00
 -0.223144689214E+00
 -0.223144689220E+00
 -0.232407057689E+00
 -0.232407057679E+00
 -0.237538841550E+00
 -0.237538841548E+00
 -0.243288205823E+00
 -0.243288205836E+00
 -0.245277978213E+00
 -0.245277978215E+00
 -0.246709600435E+00
 -0.246709687438E+00
 -0.248039432014E+00
 -0.248039385445E+00
 -0.248076440510E+00
 -0.248076440490E+00
 -0.248337356498E+00
 -0.248337601019E+00
 -0.248560967821E+00
 -0.248560489438E+00
 -0.248400970997E+00
 -0.248401004444E+00
 -0.248029290824E+00
 -0.248029842816E+00
 -0.247757350349E+00
 -0.247756773516E+00
 -0.247583984837E+00
 -0.247583961110E+00
 -0.247452086540E+00
 -0.247452825377E+00
 -0.247331879019E+00
 -0.247331036425E+00
 -0.247225208343E+00
 -0.247226191032E+00
 -0.247134969730E+00
 -0.247133870428E+00
 -0.247055057511E+00
 -0.247055063372E+00
 -0.246986509899E+00
 -0.246987997055E+00
  0.385038816963E-01
  0.385023446953E-01
  0.384309399804E-01
  0.384309460738E-01
  0.383470662770E-01
  0.383470767978E-01
  0.382488299197E-01
  0.382488481822E-01
  0.381372270914E-01
  0.381372270464E-01
  0.380076186577E-01
  0.380076186950E-01
  0.378679702977E-01
  0.378679943679E-01
  0.376840158130E-01
  0.376840158464E-01
  0.373932882101E-01
  0.373932881805E-01
  0.369980094971E-01
  0.369979762000E-01
  0.368280362286E-01
  0.368280958705E-01
  0.370655365134E-01
  0.370655364939E-01
  0.373436489119E-01
  0.373436489135E-01
  0.373830625815E-01
  0.373831075498E-01
  0.387984703546E-01
  0.387984703546E-01
  0.403210793311E-01
  0.403210793174E-01
  0.424349189199E-01
  0.424349189187E-01
  0.485279725991E-01
  0.485279726003E-01
  0.539480831581E-01
  0.539480831675E-01
  0.636872678663E-01
  0.636872678581E-01
  0.731986544621E-01
  0.731985829903E-01
  0.873065364260E-01
  0.873066028652E-01
  0.103961360214E+00
  0.103961484166E+00
  0.121976296310E+00
  0.121976157426E+00
  0.151277982318E+00
  0.151277982318E+00
  0.177257999335E+00
  0.177258021170E+00
  0.201957682435E+00
  0.201957642286E+00
  0.225489786804E+00
  0.225489965986E+00
  0.247593083880E+00
  0.247592893944E+00
  0.268665699975E+00
  0.268665699977E+00
  0.292793095224E+00
  0.292793203552E+00
  0.320990483164E+00
  0.320990483170E+00
  0.350795616213E+00
  0.350795616206E+00
  0.385087436179E+00
  0.385087436181E+00
  0.419811812587E+00
  0.419811940893E+00
  0.470710770877E+00
  0.470710711031E+00
  0.515097897069E+00
  0.515097791948E+00
  0.617251407084E+00
  0.617251434994E+00
  0.672286845372E+00
  0.672286850778E+00
  0.713749340133E+00
  0.713749256034E+00
  0.643070928651E+00
  0.643070897164E+00
  0.521707784917E+00
  0.521707830294E+00
  0.424470078932E+00
  0.424469991744E+00
  0.277101332215E+00
  0.277101507847E+00
  0.219565971768E+00
  0.219566063087E+00
  0.156741942235E+00
  0.156741762126E+00
  0.115477141157E+00
  0.115477141154E+00
  0.758267987100E-01
  0.758267987186E-01
  0.421693064209E-01
  0.421693064139E-01
  0.109643627429E-01
  0.109642312803E-01
 -0.152742933709E-01
 -0.152742933730E-01
 -0.378585297471E-01
 -0.378583102497E-01
 -0.612265450367E-01
 -0.612267466290E-01
 -0.857577268855E-01
 -0.857576831053E-01
 -0.111131877508E+00
 -0.111131900487E+00
 -0.137420264633E+00
 -0.137420264633E+00
 -0.166589486659E+00
 -0.166589352812E+00
 -0.184275048040E+00
 -0.184275163776E+00
 -0.200460421055E+00
 -0.200460481227E+00
 -0.214047701005E+00
 -0.214047637967E+00
 -0.223144688408E+00
 -0.223144688399E+00
 -0.232407056566E+00
 -0.232407056576E+00
 -0.237538840246E+00
 -0.237538840247E+00
 -0.243288204295E+00
 -0.243288204294E+00
 -0.245277976586E+00
 -0.245277976571E+00
 -0.246709678183E+00
 -0.246709678183E+00
 -0.248039379838E+00
 -0.248039426148E+00
 -0.248076438458E+00
 -0.248076438460E+00
 -0.248337581751E+00
 -0.248337581731E+00
 -0.248560500805E+00
 -0.248560560897E+00
 -0.248401017428E+00
 -0.248400984120E+00
 -0.248029825463E+00
 -0.248029825434E+00
 -0.247756782618E+00
 -0.247756782651E+00
 -0.247583971129E+00
 -0.247583994754E+00
 -0.247452810091E+00
 -0.247452810128E+00
 -0.247331047266E+00
 -0.247331047223E+00
 -0.247226175352E+00
 -0.247226193019E+00
 -0.247133880948E+00
 -0.247133891086E+00
 -0.247055073973E+00
 -0.247055079826E+00
 -0.246987981759E+00
 -0.246986510017E+00
  0.385023252018E-01
  0.385038837018E-01
  0.384309260364E-01
  0.384309382277E-01
  0.383470645431E-01
  0.383470645426E-01
  0.382488465518E-01
  0.382488282844E-01
  0.381371937237E-01
  0.381372253989E-01
  0.380083756321E-01
  0.380076204324E-01
  0.378679478331E-01
  0.378679719445E-01
  0.376834315360E-01
  0.376840141361E-01
  0.373938062984E-01
  0.373932899858E-01
  0.369979776998E-01
  0.369980110180E-01
  0.368276208100E-01
  0.368280340493E-01
  0.370655348642E-01
  0.370655348642E-01
  0.373436472408E-01
  0.373436472585E-01
  0.373832631591E-01
  0.373830631522E-01
  0.387983869799E-01
  0.387984704657E-01
  0.403211588238E-01
  0.403210804952E-01
  0.424349684772E-01
  0.424349208151E-01
  0.485278624683E-01
  0.485279727218E-01
  0.539481154929E-01
  0.539480838432E-01
  0.636873383823E-01
  0.636872696798E-01
  0.731985860477E-01
  0.731985757305E-01
  0.873066043614E-01
  0.873066043614E-01
  0.103961483804E+00
  0.103961359989E+00
  0.121976157392E+00
  0.121976157392E+00
  0.151277982260E+00
  0.151277982260E+00
  0.177258020924E+00
  0.177257999058E+00
  0.201957641663E+00
  0.201957812483E+00
  0.225489965621E+00
  0.225489845860E+00
  0.247592886623E+00
  0.247592900231E+00
  0.268665689020E+00
  0.268665742217E+00
  0.292793194059E+00
  0.292793125390E+00
  0.320990479525E+00
  0.320990479522E+00
  0.350795610976E+00
  0.350795610978E+00
  0.385087428625E+00
  0.385087428629E+00
  0.419811960870E+00
  0.419811877432E+00
  0.470710743492E+00
  0.470710804734E+00
  0.515097767695E+00
  0.515097767688E+00
  0.617251432891E+00
  0.617251442796E+00
  0.672286789984E+00
  0.672286786388E+00
  0.713749174491E+00
  0.713749245177E+00
  0.643070820777E+00
  0.643070855183E+00
  0.521707816224E+00
  0.521707737740E+00
  0.424470105861E+00
  0.424470077486E+00
  0.277101319156E+00
  0.277101319168E+00
  0.219566078888E+00
  0.219565986910E+00
  0.156741833994E+00
  0.156741949694E+00
  0.115477138896E+00
  0.115477138891E+00
  0.758267975822E-01
  0.758267975795E-01
  0.421693059375E-01
  0.421693059421E-01
  0.109642796837E-01
  0.109643623874E-01
 -0.152742302595E-01
 -0.152742927480E-01
 -0.378585129959E-01
 -0.378585286276E-01
 -0.612266790054E-01
 -0.612265449376E-01
 -0.857575410492E-01
 -0.857577266210E-01
 -0.111131900314E+00
 -0.111131877354E+00
 -0.137420264580E+00
 -0.137420264580E+00
 -0.166589486612E+00
 -0.166589486612E+00
 -0.184275163376E+00
 -0.184275047398E+00
 -0.200460424491E+00
 -0.200460424491E+00
 -0.214047719100E+00
 -0.214047709945E+00
 -0.223144694753E+00
 -0.223144623446E+00
 -0.232407059528E+00
 -0.232407026580E+00
 -0.237538840847E+00
 -0.237538955592E+00
 -0.243288215159E+00
 -0.243288165628E+00
 -0.245277983653E+00
 -0.245277902587E+00
 -0.246709678889E+00
 -0.246709764838E+00
 -0.248039429935E+00
 -0.248039225262E+00
 -0.248076427476E+00
 -0.248076427494E+00
 -0.248337570681E+00
 -0.248337570681E+00
 -0.248560546188E+00
 -0.248560960510E+00
 -0.248400994331E+00
 -0.248401027514E+00
 -0.248029837212E+00
 -0.248029326236E+00
 -0.247756771626E+00
 -0.247757344806E+00
 -0.247584005521E+00
 -0.247584029113E+00