# vtk DataFile Version 3.0
MachLine results file. Generated by MachLine, USU AeroLab (c) 2022.
ASCII
DATASET POLYDATA
POINTS                 482 float
  0.000000000000E+00  0.000000000000E+00  0.000000000000E+00
  0.473465979099E+00  0.000000000000E+00 -0.436293870211E+00
  0.473465979099E+00  0.000000000000E+00  0.436293870211E+00
  0.757896304131E+00  0.757896304131E+00  0.000000000000E+00
  0.123136246204E+01  0.757896304131E+00 -0.436293989420E+00
  0.123136246204E+01  0.757896304131E+00  0.436293989420E+00
  0.157641971111E+01  0.000000000000E+00 -0.760520398617E+00
  0.157641971111E+01  0.000000000000E+00  0.760520398617E+00
  0.178897356987E+01  0.178897356987E+01  0.000000000000E+00
  0.226243972778E+01  0.178897356987E+01 -0.436294138432E+00
  0.226243972778E+01  0.178897356987E+01  0.436294138432E+00
  0.233431649208E+01  0.757896304131E+00 -0.760520577431E+00
  0.233431649208E+01  0.757896304131E+00  0.760520577431E+00
  0.317279767990E+01  0.317279767990E+01  0.000000000000E+00
  0.336539411545E+01  0.178897356987E+01 -0.760520815849E+00
  0.336539411545E+01  0.178897356987E+01  0.760520815849E+00
  0.342464399338E+01  0.000000000000E+00 -0.102348911762E+01
  0.342464399338E+01  0.000000000000E+00  0.102348911762E+01
  0.364626431465E+01  0.317279767990E+01 -0.436294317245E+00
  0.364626431465E+01  0.317279767990E+01  0.436294317245E+00
  0.418254137039E+01  0.757896304131E+00 -0.102348935604E+01
  0.418254137039E+01  0.757896304131E+00  0.102348935604E+01
  0.474921894073E+01  0.317279767990E+01 -0.760521173477E+00
  0.474921894073E+01  0.317279767990E+01  0.760521173477E+00
  0.499661636353E+01  0.499661636353E+01  0.000000000000E+00
  0.521361970901E+01  0.178897356987E+01 -0.102348971367E+01
  0.521361970901E+01  0.178897356987E+01  0.102348971367E+01
  0.547008323669E+01  0.499661636353E+01 -0.436294585466E+00
  0.547008323669E+01  0.499661636353E+01  0.436294585466E+00
  0.611307668686E+01  0.000000000000E+00 -0.114008128643E+01
  0.611307668686E+01  0.000000000000E+00  0.114008128643E+01
  0.657303857803E+01  0.499661636353E+01 -0.760521650314E+00
  0.657303857803E+01  0.499661636353E+01  0.760521650314E+00
  0.659744548798E+01  0.317279767990E+01 -0.102349019051E+01
  0.659744548798E+01  0.317279767990E+01  0.102349019051E+01
  0.687097454071E+01  0.757896304131E+00 -0.114008152485E+01
  0.687097454071E+01  0.757896304131E+00  0.114008152485E+01
  0.734362459183E+01  0.734362459183E+01  0.000000000000E+00
  0.781709194183E+01  0.734362459183E+01 -0.436294913292E+00
  0.781709194183E+01  0.734362459183E+01  0.436294913292E+00
  0.790205335617E+01  0.178897356987E+01 -0.114008200169E+01
  0.790205335617E+01  0.178897356987E+01  0.114008200169E+01
  0.842126560211E+01  0.499661636353E+01 -0.102349078655E+01
  0.842126560211E+01  0.499661636353E+01  0.102349078655E+01
  0.892004776001E+01  0.734362459183E+01 -0.760522186756E+00
  0.892004776001E+01  0.734362459183E+01  0.760522186756E+00
  0.928588008881E+01  0.317279767990E+01 -0.114008247852E+01
  0.928588008881E+01  0.317279767990E+01  0.114008247852E+01
  0.939508819580E+01  0.000000000000E+00 -0.980745851994E+00
  0.939508819580E+01  0.000000000000E+00  0.980745851994E+00
  0.101529865265E+02  0.757896304131E+00 -0.980746090412E+00
  0.101529865265E+02  0.757896304131E+00  0.980746090412E+00
  0.102728376389E+02  0.102728376389E+02  0.000000000000E+00
  0.107463054657E+02  0.102728376389E+02 -0.436295330524E+00
  0.107463054657E+02  0.102728376389E+02  0.436295330524E+00
  0.107682771683E+02  0.734362459183E+01 -0.102349150181E+01
  0.107682771683E+02  0.734362459183E+01  0.102349150181E+01
  0.111097030640E+02  0.499661636353E+01 -0.114008307457E+01
  0.111097030640E+02  0.499661636353E+01  0.114008307457E+01
  0.111840667725E+02  0.178897356987E+01 -0.980746388435E+00
  0.111840667725E+02  0.178897356987E+01  0.980746388435E+00
  0.118492631912E+02  0.102728376389E+02 -0.760522902012E+00
  0.118492631912E+02  0.102728376389E+02  0.760522902012E+00
  0.125678949356E+02  0.317279767990E+01 -0.980746865273E+00
  0.125678949356E+02  0.317279767990E+01  0.980746865273E+00
  0.126670312881E+02  0.000000000000E+00 -0.678052663803E+00
  0.126670312881E+02  0.000000000000E+00  0.678052663803E+00
  0.134249305725E+02  0.757896304131E+00 -0.678052842617E+00
  0.134249305725E+02  0.757896304131E+00  0.678052842617E+00
  0.134567155838E+02  0.734362459183E+01 -0.114008402824E+01
  0.134567155838E+02  0.734362459183E+01  0.114008402824E+01
  0.136974935532E+02  0.102728376389E+02 -0.102349245548E+01
  0.136974935532E+02  0.102728376389E+02  0.102349245548E+01
  0.137921218872E+02  0.137921218872E+02  0.000000000000E+00
  0.142655897141E+02  0.137921218872E+02 -0.436295837164E+00
  0.142655897141E+02  0.137921218872E+02  0.436295837164E+00
  0.143917188644E+02  0.499661636353E+01 -0.980747401714E+00
  0.143917188644E+02  0.499661636353E+01  0.980747401714E+00
  0.144560117722E+02  0.178897356987E+01 -0.678053081036E+00
  0.144560117722E+02  0.178897356987E+01  0.678053081036E+00
  0.153437566757E+02  0.000000000000E+00 -0.393031150103E+00
  0.153437566757E+02  0.000000000000E+00  0.393031150103E+00
  0.153685483932E+02  0.137921218872E+02 -0.760523796082E+00
  0.153685483932E+02  0.137921218872E+02  0.760523796082E+00
  0.158398418427E+02  0.317279767990E+01 -0.678053379059E+00
  0.158398418427E+02  0.317279767990E+01  0.678053379059E+00
  0.161016559601E+02  0.757896304131E+00 -0.393031239510E+00
  0.161016559601E+02  0.757896304131E+00  0.393031239510E+00
  0.163859348297E+02  0.102728376389E+02 -0.114008510113E+01
  0.163859348297E+02  0.102728376389E+02  0.114008510113E+01
  0.167387351990E+02  0.734362459183E+01 -0.980748176575E+00
  0.167387351990E+02  0.734362459183E+01  0.980748176575E+00
  0.171327381134E+02  0.178897356987E+01 -0.393031388521E+00
  0.171327381134E+02  0.178897356987E+01  0.393031388521E+00
  0.172004318237E+02  0.000000000000E+00 -0.192506864667E+00
  0.172004318237E+02  0.000000000000E+00  0.192506864667E+00
  0.172167816162E+02  0.137921218872E+02 -0.102349364758E+01
  0.172167816162E+02  0.137921218872E+02  0.102349364758E+01
  0.176636676788E+02  0.499661636353E+01 -0.678053736687E+00
  0.176636676788E+02  0.499661636353E+01  0.678053736687E+00
  0.178320064545E+02  0.178320064545E+02  0.000000000000E+00
  0.179583320618E+02  0.757896304131E+00 -0.192506924272E+00
  0.179583320618E+02  0.757896304131E+00  0.192506924272E+00
  0.183054752350E+02  0.178320064545E+02 -0.436296403408E+00
  0.183054752350E+02  0.178320064545E+02  0.436296403408E+00
  0.183450412750E+02  0.000000000000E+00 -0.698660761118E-01
  0.183450412750E+02  0.000000000000E+00  0.698660761118E-01
  0.185165691376E+02  0.317279767990E+01 -0.393031567335E+00
  0.185165691376E+02  0.317279767990E+01  0.393031567335E+00
  0.189894161224E+02  0.178897356987E+01 -0.192506983876E+00
  0.189894161224E+02  0.178897356987E+01  0.192506983876E+00
  0.190000000000E+02  0.000000000000E+00  0.000000000000E+00
  0.191029415131E+02  0.757896304131E+00 -0.698660910130E-01
  0.191029415131E+02  0.757896304131E+00  0.698660910130E-01
  0.194084339142E+02  0.178320064545E+02 -0.760524809361E+00
  0.194084339142E+02  0.178320064545E+02  0.760524809361E+00
  0.196679573059E+02  0.102728376389E+02 -0.980749070644E+00
  0.196679573059E+02  0.102728376389E+02  0.980749070644E+00
  0.197579002380E+02  0.757896304131E+00  0.000000000000E+00
  0.199052257538E+02  0.137921218872E+02 -0.114008641243E+01
  0.199052257538E+02  0.137921218872E+02  0.114008641243E+01
  0.200106849670E+02  0.734362459183E+01 -0.678054273129E+00
  0.200106849670E+02  0.734362459183E+01  0.678054273129E+00
  0.201340255737E+02  0.178897356987E+01 -0.698661133647E-01
  0.201340255737E+02  0.178897356987E+01  0.698661133647E-01
  0.203403968811E+02  0.499661636353E+01 -0.393031775951E+00
  0.203403968811E+02  0.499661636353E+01  0.393031775951E+00
  0.203732471466E+02  0.317279767990E+01 -0.192507073283E+00
  0.203732471466E+02  0.317279767990E+01  0.192507073283E+00
  0.207889842987E+02  0.178897356987E+01  0.000000000000E+00
  0.212566699982E+02  0.178320064545E+02 -0.102349495888E+01
  0.212566699982E+02  0.178320064545E+02  0.102349495888E+01
  0.215178565979E+02  0.317279767990E+01 -0.698661431670E-01
  0.215178565979E+02  0.317279767990E+01  0.698661431670E-01
  0.221728172302E+02  0.317279767990E+01  0.000000000000E+00
  0.221970767975E+02  0.499661636353E+01 -0.192507177591E+00
  0.221970767975E+02  0.499661636353E+01  0.192507177591E+00
  0.222339305878E+02  0.222339305878E+02  0.000000000000E+00
  0.226874179840E+02  0.734362459183E+01 -0.393032073975E+00
  0.226874179840E+02  0.734362459183E+01  0.393032073975E+00
  0.227074012756E+02  0.222339305878E+02 -0.436297029257E+00
  0.227074012756E+02  0.222339305878E+02  0.436297029257E+00
  0.229399108887E+02  0.102728376389E+02 -0.678054928780E+00
  0.229399108887E+02  0.102728376389E+02  0.678054928780E+00
  0.231872520447E+02  0.137921218872E+02 -0.980750203133E+00
  0.231872520447E+02  0.137921218872E+02  0.980750203133E+00
  0.233416862488E+02  0.499661636353E+01 -0.698661878705E-01
  0.233416862488E+02  0.499661636353E+01  0.698661878705E-01
  0.238103618622E+02  0.222339305878E+02 -0.760525882244E+00
  0.238103618622E+02  0.222339305878E+02  0.760525882244E+00
  0.239451179504E+02  0.178320064545E+02 -0.114008784294E+01
  0.239451179504E+02  0.178320064545E+02  0.114008784294E+01
  0.239966468811E+02  0.499661636353E+01  0.000000000000E+00
  0.245440979004E+02  0.734362459183E+01 -0.192507326603E+00
  0.245440979004E+02  0.734362459183E+01  0.192507326603E+00
  0.256166458130E+02  0.102728376389E+02 -0.393032461405E+00
  0.256166458130E+02  0.102728376389E+02  0.393032461405E+00
  0.256585998535E+02  0.222339305878E+02 -0.102349650860E+01
  0.256585998535E+02  0.222339305878E+02  0.102349650860E+01
  0.256887092590E+02  0.734362459183E+01 -0.698662400246E-01
  0.256887092590E+02  0.734362459183E+01  0.698662400246E-01
[...]
CELL_DATA                 904
SCALARS C_p_inc float 1
LOOKUP_TABLE default
  0.164489080099E+00
  0.141028095353E+00
  0.107965028610E+00
  0.905728465631E-01
  0.739793707798E-01
  0.648530288681E-01
  0.458355558176E-01
  0.388781311863E-01
  0.209472192743E-01
  0.160937535885E-01
  0.249232134028E-01
  0.192789336801E-01
  0.121389440509E+00
  0.891346952157E-01
  0.269206536963E+00
  0.224400303211E+00
  0.474506270432E+00
  0.429575973931E+00
  0.700253736733E+00
  0.693628545156E+00
 -0.271385744303E+00
  0.134421500821E+00
 -0.615500563696E+00
 -0.362462332144E+00
 -0.551509940147E+00
 -0.473333239825E+00
 -0.536336579824E+00
 -0.512198946971E+00
 -0.474138667812E+00
 -0.494146243254E+00
 -0.378384504870E+00
 -0.350433879814E+00
 -0.253964154160E+00
 -0.223974564768E+00
 -0.149591797814E+00
 -0.113289428759E+00
 -0.595978031530E-01
 -0.397822230940E-02
  0.568940252653E-01
  0.127252361405E+00
  0.159542414097E+00
  0.163092568696E+00
  0.111828334183E+00
  0.107768489854E+00
  0.831920377564E-01
  0.739693083989E-01
  0.522711455117E-01
  0.458826817443E-01
  0.233053472452E-01
  0.208986627457E-01
  0.192413044098E-01
  0.122332631976E-01
  0.904360218985E-01
  0.690582542250E-01
  0.221021597324E+00
  0.201797994001E+00
  0.398584602370E+00
  0.397866143656E+00
  0.577538279721E+00
  0.532952117035E+00
 -0.519364219104E+00
 -0.291962990726E+00
 -0.772162838779E+00
 -0.587184539067E+00
 -0.640230544932E+00
 -0.550293070137E+00
 -0.573002194248E+00
 -0.541605190566E+00
 -0.467870710380E+00
 -0.480716314528E+00
 -0.350069214700E+00
 -0.325767542387E+00
 -0.223455184547E+00
 -0.190808820884E+00
 -0.113125140943E+00
 -0.726084602760E-01
 -0.454957161805E-02
  0.289440242818E-01
  0.122951807553E+00
  0.133847687390E+00
  0.156682335878E+00
  0.158871366120E+00
  0.110143270842E+00
  0.111539311573E+00
  0.866631946472E-01
  0.831043470261E-01
  0.582150433795E-01
  0.523080472047E-01
  0.262933433778E-01
  0.233198007188E-01
  0.125732740067E-01
  0.907454285088E-02
  0.698078192521E-01
  0.594718713144E-01
  0.197413943618E+00
  0.190575812984E+00
  0.382985691858E+00
  0.388751225524E+00
  0.516818627550E+00
  0.469452022481E+00
 -0.723034726062E+00
 -0.526918976751E+00
 -0.912091141768E+00
 -0.752480714356E+00
 -0.718316569849E+00
 -0.634204173780E+00
 -0.605254594351E+00
 -0.577211801583E+00
 -0.464014990220E+00
 -0.476781651952E+00
 -0.325849002913E+00
 -0.301009233942E+00
 -0.190288544531E+00
 -0.157119404071E+00
 -0.725729828597E-01
 -0.431775046442E-01
  0.280313810976E-01
  0.431209305668E-01
  0.131768354142E+00
  0.137080199933E+00
  0.155770183315E+00
  0.156172134575E+00
  0.108682286347E+00
  0.109888693207E+00
  0.864301437195E-01
  0.865279847848E-01
  0.613105264098E-01
  0.582228672473E-01
  0.299490105330E-01
  0.263751097465E-01
  0.923800652516E-02
  0.996832398251E-02
  0.596087026890E-01
  0.578731910215E-01
  0.187902133191E+00
  0.190145961670E+00
  0.382313704554E+00
  0.391203407249E+00
  0.470125591204E+00
  0.422815426761E+00
 -0.900824346074E+00
 -0.724862666513E+00
 -0.103350125056E+01
 -0.899459493191E+00
 -0.784089590739E+00
 -0.715361832765E+00
 -0.632199142074E+00
 -0.611215526432E+00
 -0.459338281311E+00
 -0.473992836868E+00
 -0.301557557327E+00
 -0.277496719410E+00
 -0.156754511443E+00
 -0.131118779379E+00
 -0.432603673456E-01
 -0.267326027105E-01
  0.426515324487E-01
  0.508695698196E-01
  0.136275123442E+00
  0.139561314971E+00
  0.155442786148E+00
  0.155287633884E+00
  0.107914266364E+00
  0.108432277133E+00
  0.856870168419E-01
  0.862793204891E-01
  0.619913777800E-01
  0.612724347438E-01
  0.328110099134E-01
  0.300513796755E-01
  0.999877655936E-02
  0.136919684464E-01
  0.578529702695E-01
  0.623101289519E-01
  0.189189614199E+00
  0.197282644460E+00
  0.390167023847E+00
  0.400564468955E+00
  0.431215985035E+00
  0.385387881402E+00
 -0.105322941527E+01
 -0.900598872983E+00
 -0.113359846868E+01
 -0.102748676741E+01
 -0.835608522715E+00
 -0.785032600716E+00
 -0.651616500430E+00
 -0.639562756548E+00
 -0.454158312427E+00
 -0.468992087777E+00
 -0.278275653346E+00
 -0.259835222370E+00
 -0.131037307645E+00
 -0.115821206377E+00
 -0.267585101351E-01
 -0.177572990829E-01
  0.508238492805E-01
  0.557826230823E-01
  0.139579712840E+00
  0.142228508833E+00
  0.155664650570E+00
  0.154963504501E+00
  0.107685639809E+00
  0.107649484109E+00
  0.852813809711E-01
  0.855154760111E-01
  0.620767929793E-01
  0.619169151610E-01
  0.345468777169E-01
  0.328796134335E-01
  0.137091482904E-01
  0.180794106276E-01
  0.623060006156E-01
  0.696926083667E-01
  0.197400091369E+00
  0.208095850045E+00
  0.402421713633E+00
  0.412713244060E+00
  0.396837405655E+00
  0.354829202609E+00
 -0.117741900994E+01
 -0.105266628132E+01
 -0.121086729613E+01
 -0.113234383507E+01
 -0.873187014706E+00
 -0.839021570958E+00
 -0.664937535769E+00
 -0.658876191579E+00
 -0.451355611609E+00
 -0.461742009593E+00
 -0.260727665438E+00
 -0.250186801350E+00
 -0.115955013372E+00
 -0.108104063254E+00
 -0.177182430785E-01
 -0.128411967244E-01
  0.559840611016E-01
  0.589936259572E-01
  0.142674790758E+00
  0.144515742003E+00
  0.155988009982E+00
  0.155155992664E+00
  0.107638888122E+00
  0.107394147717E+00
  0.851028717063E-01
  0.850841672784E-01
  0.621896525026E-01
  0.619722568201E-01
  0.358029007733E-01
  0.345680394697E-01
  0.181101858644E-01
  0.218656484180E-01
  0.697120462915E-01
  0.770224998795E-01
  0.208592123645E+00
  0.218936503406E+00
  0.415403297580E+00
  0.424199798058E+00
  0.365711488774E+00
  0.330047651672E+00
 -0.127323839881E+01
 -0.117707845246E+01
 -0.126761404222E+01
 -0.121183356296E+01
 -0.900092618085E+00
 -0.876907716501E+00
 -0.675346247199E+00
 -0.670448983764E+00
 -0.451889371837E+00
 -0.456227479426E+00
 -0.251130047057E+00
 -0.246331398578E+00
 -0.108352959841E+00
 -0.104515005482E+00
 -0.127840166362E-01
 -0.100555197889E-01
  0.593019258940E-01
  0.612658561194E-01
  0.145172564253E+00
  0.146613427610E+00
  0.155886482459E+00
  0.155423897302E+00
  0.107254166565E+00
  0.107307397455E+00
  0.846555986525E-01
  0.848744959719E-01
  0.620380830209E-01
  0.620577628849E-01
  0.366069910274E-01
  0.357848206014E-01
  0.218909172983E-01
  0.246747146274E-01
  0.770223058537E-01
  0.827650924614E-01
  0.219351699257E+00
  0.227568936096E+00
  0.426427959979E+00
  0.433024289421E+00
  0.338249917881E+00
  0.310395815199E+00
 -0.134400574884E+01
 -0.127306912103E+01
 -0.130837961084E+01
 -0.126880282140E+01
 -0.919651969983E+00
 -0.902774109409E+00
 -0.683952132537E+00
 -0.678786289101E+00
 -0.453987289594E+00
 -0.454772287412E+00
 -0.247254081243E+00
 -0.245154671334E+00
 -0.104822121173E+00
 -0.102581115036E+00
 -0.100120240695E-01
 -0.796346896277E-02
  0.616054136020E-01
  0.634307085033E-01
  0.147363698543E+00
  0.149016233970E+00
  0.155080872405E+00
  0.155223543037E+00
  0.106008152509E+00
  0.106856919593E+00
  0.832900550733E-01
  0.843818402199E-01
  0.609429344844E-01
  0.618761349232E-01
  0.363655051237E-01
  0.365587959488E-01
  0.246845252220E-01
  0.260049641159E-01
  0.827182936639E-01
  0.862984089010E-01
  0.227744922363E+00
  0.233251123317E+00
  0.434384811463E+00
  0.438756836038E+00
  0.315623041878E+00
  0.295840308216E+00
 -0.139309630014E+01
 -0.134387855002E+01
 -0.133618223941E+01
 -0.130914913380E+01
 -0.933002479995E+00
 -0.921329706663E+00
 -0.689966640859E+00
 -0.686107228804E+00
 -0.455504042440E+00
 -0.455918328436E+00
 -0.246025000897E+00
 -0.244188622860E+00
 -0.102925130202E+00
 -0.100462414833E+00
 -0.794680605906E-02
 -0.531496455196E-02
  0.637782596166E-01
  0.663283207625E-01
  0.149833882097E+00
  0.152165715449E+00
  0.153158903683E+00
  0.154211933311E+00
  0.103260847238E+00
  0.105481856700E+00
  0.802155944272E-01
  0.829325269483E-01
  0.580284527963E-01
  0.607349241344E-01
  0.342041329383E-01
  0.362899232793E-01
  0.259916795465E-01
  0.250928840920E-01
  0.861760794364E-01
  0.870723457203E-01
  0.233143258466E+00
  0.235717981441E+00
  0.439274509937E+00
  0.441596628403E+00
  0.298669776887E+00
  0.286941801410E+00
 -0.142186987214E+01
 -0.139299724041E+01
 -0.135183940123E+01
 -0.133675141617E+01
 -0.939818306076E+00
 -0.934284947860E+00
 -0.692088897638E+00
 -0.691726468939E+00
 -0.454582268134E+00
 -0.457256752322E+00
 -0.245020134592E+00
 -0.241497473081E+00
 -0.100853746112E+00
 -0.965363317531E-01
 -0.533350763823E-02
 -0.765089682378E-03
  0.667002512408E-01
  0.710845450433E-01
  0.153121680422E+00
  0.156963327065E+00
  0.149788464204E+00
  0.151876428919E+00
  0.983615200245E-01
  0.102473999480E+00
  0.745574019880E-01
  0.796887628582E-01
  0.522725551967E-01
  0.577317473007E-01
  0.290699183793E-01
  0.340918042632E-01
  0.250356900750E-01
  0.209841896720E-01
  0.868214919825E-01
  0.843831555676E-01
  0.235246601776E+00
  0.234619231906E+00
  0.441267814506E+00
  0.441646136387E+00
  0.287791180808E+00
  0.284331151723E+00
 -0.143028122771E+01
 -0.142183843169E+01
 -0.135502100318E+01
 -0.135257767779E+01
 -0.939241666196E+00
 -0.941270272020E+00
 -0.688938184851E+00
 -0.694136466242E+00
 -0.449497486804E+00
 -0.456751362036E+00
 -0.242338907326E+00
 -0.235272443801E+00
 -0.970223881603E-01
 -0.890292869878E-01
 -0.841442166213E-03
  0.737345371171E-02
  0.715165844248E-01
  0.792605250733E-01
  0.158206283629E+00
  0.164797197820E+00
  0.144942976973E+00
  0.147731222658E+00
  0.910396325093E-01
  0.970693022337E-01
  0.657448073232E-01
  0.736913534453E-01
  0.427728889107E-01
  0.517936489748E-01
  0.198278889446E-01
  0.288897035149E-01
  0.208338972299E-01
  0.125424408211E-01
  0.839117606683E-01
  0.773343143854E-01
  0.233619419437E+00
  0.229423010313E+00
  0.440286050835E+00
  0.438754498243E+00
  0.283155829236E+00
  0.288239737700E+00
 -0.141819040427E+01
 -0.143035593019E+01
 -0.134524652135E+01
 -0.135623242881E+01
 -0.930387120433E+00
 -0.941320212686E+00
 -0.679138173754E+00
 -0.691879212168E+00
 -0.438437196662E+00
 -0.452721823851E+00
 -0.236194225966E+00
 -0.223516325603E+00
 -0.897081402882E-01
 -0.758347927211E-01
  0.717096357609E-02
  0.211618604108E-01
  0.797715720893E-01
  0.928473660658E-01
  0.166529996155E+00
  0.177687158604E+00
  0.139121447797E+00
  0.141575104187E+00
  0.818621908628E-01
  0.888439462612E-01
  0.542877329350E-01
  0.642349766451E-01
  0.296286189256E-01
  0.419187877333E-01
  0.580502484693E-02
  0.195014666042E-01
  0.121834300970E-01
 -0.142722080242E-02
  0.764811971154E-01
  0.647929929574E-01
  0.227603576570E+00
  0.219387369569E+00
  0.435948695893E+00
  0.432521663915E+00
  0.284514435820E+00
  0.298223649252E+00
 -0.138637899032E+01
 -0.141839276964E+01
 -0.132253554640E+01
 -0.134717234461E+01
 -0.912620969167E+00
 -0.933524639143E+00
 -0.661327232541E+00
 -0.683678586073E+00
 -0.419328934914E+00
 -0.443630952923E+00
 -0.224596586033E+00
 -0.203987013296E+00
 -0.768926606585E-01
 -0.548820385126E-01
  0.206425280962E-01
  0.423013556319E-01
  0.933284979466E-01
  0.113402824749E+00
  0.180028854162E+00
  0.197395097031E+00
  0.131433668191E+00
  0.133677934291E+00
  0.707417580903E-01
  0.781865593948E-01
  0.412025993498E-01
  0.516652746609E-01
  0.146448460256E-01
  0.280359874146E-01
 -0.117785085614E-01
  0.513591207895E-02
 -0.227929461165E-02
 -0.214060051788E-01
  0.632500577732E-01
  0.453673658111E-01
  0.216240697226E+00
  0.203418590008E+00
  0.427537267589E+00
  0.422244315340E+00
  0.290885801127E+00
  0.313084845586E+00
 -0.133696070296E+01
 -0.138670575372E+01
 -0.128766602298E+01
 -0.132536597433E+01
 -0.885615167373E+00
 -0.917302283317E+00
 -0.634039366512E+00
 -0.668480152976E+00
 -0.389725208511E+00
 -0.428033659933E+00
 -0.205324069048E+00
 -0.174945407367E+00
 -0.566956655249E-01
 -0.258111699004E-01
  0.409579954814E-01
  0.703277567213E-01
  0.113318087847E+00
  0.140545195227E+00
  0.199979841845E+00
  0.224256616384E+00
  0.117200792519E+00
  0.122537031435E+00
  0.541535896941E-01
  0.646837416539E-01
  0.250852458286E-01
  0.368204801928E-01
 -0.976022939885E-03
  0.117605237333E-01
 -0.294269474293E-01
 -0.132419914879E-01
 -0.233896233379E-01
 -0.448390034968E-01
  0.424799603458E-01
  0.179036724585E-01
  0.197983651574E+00
  0.179681456889E+00
  0.413787311841E+00
  0.406668895332E+00
  0.300304008926E+00
  0.331018958507E+00
 -0.127305144415E+01
 -0.133737581303E+01
 -0.124191639469E+01
 -0.129154214579E+01
 -0.848921006677E+00
 -0.892516610622E+00
 -0.595049573340E+00
 -0.645608704169E+00
 -0.347402840752E+00
 -0.404790870164E+00
 -0.176783864921E+00
 -0.138058908869E+00
 -0.291383408726E-01
  0.774725389705E-02
  0.669782076038E-01
  0.101821805099E+00
  0.138387220582E+00
  0.172044704889E+00
  0.225524335494E+00
  0.257521128420E+00
  0.856601786715E-01
  0.101695523665E+00
  0.238697867807E-01
  0.439506649267E-01
  0.830686374597E-03
  0.179323594254E-01
 -0.195983375020E-01
 -0.587672673690E-02
 -0.456861055259E-01
 -0.324697033046E-01
 -0.490564248607E-01
 -0.655389964095E-01
  0.123345533679E-01
 -0.154552739902E-01
  0.169905504688E+00
  0.145069730652E+00
  0.392193732323E+00
  0.383279670589E+00
  0.309526586287E+00
  0.349881787570E+00
 -0.119775327691E+01
 -0.127347897454E+01
 -0.118607838747E+01
 -0.124697595495E+01
 -0.800371524303E+00
 -0.859431947169E+00
 -0.540360596469E+00
 -0.615017442113E+00
 -0.295026645501E+00
 -0.373572696883E+00
 -0.141001156322E+00
 -0.100685245019E+00
  0.155234601637E-02
  0.394526104756E-01
  0.941487747629E-01
  0.132577724581E+00
  0.164600528625E+00
  0.206617720699E+00
  0.253748562280E+00
  0.299222744710E+00
  0.110731905856E-01
  0.556775613949E-01
 -0.362208171470E-01
  0.572899206380E-02
 -0.401884451527E-01
 -0.110333728479E-01
 -0.465545923126E-01
 -0.276878597271E-01
 -0.638685356346E-01
 -0.514678002309E-01
 -0.735270037146E-01
 -0.815749987769E-01
 -0.257854334035E-01
 -0.455457530569E-01
  0.126479815363E+00
  0.969791577402E-01
  0.356771997332E+00
  0.346288263346E+00
  0.312848244067E+00
  0.367233462205E+00
 -0.111251086387E+01
 -0.119806836264E+01
 -0.111779020591E+01
 -0.119275308561E+01
 -0.731451372447E+00
 -0.818821556977E+00
 -0.470419059388E+00
 -0.576565031951E+00
 -0.244155616957E+00
 -0.338373102186E+00
 -0.105809323060E+00
 -0.718375769903E-01
  0.279054125826E-01
  0.622139109045E-01
  0.116208620408E+00
  0.157758464782E+00
  0.187300712728E+00
  0.245342271546E+00
  0.281608109599E+00
  0.360234199411E+00
 -0.184685209534E+00
 -0.560638668714E-01
 -0.163564434670E+00
 -0.721492437798E-01
 -0.115352905172E+00
 -0.620542828041E-01
 -0.922042049647E-01
 -0.609915432447E-01
 -0.916614388503E-01
 -0.747619880805E-01
 -0.960246774814E-01
 -0.986477272972E-01
 -0.635912611824E-01
 -0.688830024456E-01
  0.623239188225E-01
  0.434197885684E-01
  0.290082727463E+00
  0.281191919874E+00
  0.295261924794E+00
  0.379126492323E+00
 -0.101322818058E+01
 -0.111253773236E+01
 -0.102042926173E+01
 -0.112900971181E+01
 -0.627211608614E+00
 -0.771041078634E+00
 -0.404779420969E+00
 -0.533375117512E+00
 -0.205646923990E+00
 -0.314472389656E+00
 -0.821226429548E-01
 -0.625448854869E-01
  0.389673751522E-01
  0.632863219248E-01
  0.121980711765E+00
  0.163489356377E+00
  0.197608797942E+00
  0.282636697481E+00
  0.302675737656E+00
  0.466858227661E+00
 -0.732963072337E+00
 -0.375745703723E+00
 -0.460648066888E+00
 -0.277194056380E+00
 -0.305854597817E+00
 -0.184938802640E+00
 -0.208810713417E+00
 -0.133167752252E+00
 -0.158117487403E+00
 -0.119799733185E+00
 -0.133593123906E+00
 -0.132873714293E+00
 -0.105244642873E+00
 -0.105493122423E+00
 -0.249677862219E-01
 -0.245916235474E-01
  0.140366523776E+00
  0.157118528273E+00
  0.158230817427E+00
  0.351033545111E+00
 -0.834707823211E+00
 -0.101318816579E+01
 -0.788538411270E+00
 -0.106592157051E+01
 -0.520813054142E+00
 -0.720616045596E+00
 -0.371887874770E+00
 -0.523293780865E+00
 -0.195329728133E+00
 -0.347701972211E+00
 -0.102918076378E+00
 -0.120285506492E+00
 -0.140227412444E-01
 -0.273230161395E-01
  0.367063256935E-01
  0.489339139984E-01
  0.104257828121E+00
  0.184515274469E+00
  0.247511165672E+00
  0.523583597977E+00
 -0.215302158595E+01
 -0.217600448482E+01
 -0.111599028294E+01
 -0.110996348014E+01
 -0.588239318096E+00
 -0.588222205080E+00
 -0.333780750501E+00
 -0.344903176842E+00
 -0.233187006594E+00
 -0.238278666217E+00
 -0.216877875141E+00
 -0.193885465648E+00
 -0.204336760423E+00
 -0.157343692311E+00
 -0.184602160259E+00
 -0.112451525504E+00
 -0.130232315670E+00
 -0.125435530918E+00
 -0.832982924290E+00
 -0.686655260715E+00
 -0.896726496339E+00
 -0.542157559371E+00
 -0.680673005834E+00
 -0.435926720892E+00
 -0.575134885016E+00
 -0.283917197367E+00
 -0.497969734937E+00
 -0.234661532801E+00
 -0.409824466205E+00
 -0.256375259189E+00
 -0.594193824599E+00
 -0.437148929283E+00
 -0.109938047331E+01
 -0.814380853774E+00
 -0.216393034797E+01
 -0.129587337391E+01
 -0.376644383937E+01
 -0.379240705129E+01
 -0.188396514505E+01
 -0.188410618907E+01
 -0.990695084054E+00
 -0.996931036331E+00
 -0.562893663105E+00
 -0.579859722397E+00
 -0.380543021649E+00
 -0.390127929205E+00
 -0.333657490855E+00
 -0.319477936537E+00
 -0.325160256528E+00
 -0.294948051280E+00
 -0.332684084713E+00
 -0.287001681921E+00
 -0.344148835651E+00
 -0.257726974428E+00
 -0.799854635071E+00
 -0.688109558495E+00
 -0.827244723502E+00
 -0.600077795099E+00
 -0.687591230943E+00
 -0.522570000743E+00
 -0.632465805589E+00
 -0.396554922443E+00
 -0.634786543708E+00
 -0.411431238511E+00
 -0.664028315205E+00
 -0.544694840514E+00
 -0.105202533509E+01
 -0.938767691588E+00
 -0.195925693758E+01
 -0.173880970877E+01
 -0.388180408274E+01
 -0.308640491880E+01
 -0.527477245274E+01
 -0.526560873678E+01
 -0.257713047644E+01
 -0.258264333710E+01
 -0.135191733971E+01
 -0.137200651383E+01
 -0.771322396438E+00
 -0.803742300439E+00
 -0.518009008444E+00
 -0.539773768347E+00
 -0.449682655085E+00
 -0.446352873537E+00
 -0.441241421781E+00
 -0.421786614974E+00
 -0.458346480867E+00
 -0.430227472686E+00
 -0.503792552406E+00
 -0.373675329838E+00
 -0.718995844049E+00
 -0.692561247625E+00
 -0.743516825581E+00
 -0.628323399359E+00
 -0.662284632260E+00
 -0.571836455633E+00
 -0.651084371728E+00
 -0.483800740040E+00
 -0.716296221783E+00
 -0.554307491164E+00
 -0.854435300470E+00
 -0.782986047945E+00
 -0.140644846030E+01
 -0.135304951392E+01
 -0.263969144307E+01
 -0.252789515661E+01
 -0.533148762273E+01
 -0.481415192829E+01
 -0.614542895853E+01
 -0.621218315764E+01
 -0.298757765355E+01
 -0.304635521370E+01
 -0.156495518718E+01
 -0.162863258445E+01
 -0.893604438280E+00
 -0.965183110886E+00
 -0.600404092441E+00
 -0.650586217184E+00
 -0.534448022181E+00
 -0.551936623680E+00
 -0.534394260973E+00
 -0.530197765974E+00
 -0.555217248152E+00
 -0.553099077326E+00
 -0.611921682987E+00
 -0.492504344251E+00
 -0.610933460073E+00
 -0.683244184570E+00
 -0.647958691735E+00
 -0.618262050881E+00
 -0.607196199046E+00
 -0.575535401574E+00
 -0.626503690314E+00
 -0.528534961397E+00
 -0.732614783215E+00
 -0.636511662716E+00
 -0.950832876594E+00
 -0.925133374880E+00
 -0.159883594466E+01
 -0.159623086118E+01
 -0.301583553981E+01
 -0.300048962252E+01
 -0.617227901121E+01
 -0.597795018646E+01
SCALARS sigma float 1
LOOKUP_TABLE default
  0.000000000000E+00
  0.000000000000E+00
  0.000000000000E+00
  0.000000000000E+00
  0.000000000000E+00
  0.000000000000E+00
  0.000000000000E+00
  0.000000000000E+00
  0.000000000000E+00
  0.000000000000E+00
  0.000000000000E+00
  0.000000000000E+00
  0.000000000000E+00
  0.000000000000E+00
  0.000000000000E+00
  0.000000000000E+00
  0.000000000000E+00
  0.000000000000E+00
  0.000000000000E+00
  0.000000000000E+00
  0.000000000000E+00
  0.000000000000E+00
  0.000000000000E+00
  0.000000000000E+00
  0.000000000000E+00
  0.000000000000E+00
  0.000000000000E+00
  0.000000000000E+00
  0.000000000000E+00
  0.000000000000E+00
  0.000000000000E+00
  0.000000000000E+00
  0.000000000000E+00
  0.000000000000E+00
  0.000000000000E+00
  0.000000000000E+00
  0.000000000000E+00
  0.000000000000E+00
  0.000000000000E+00
  0.000000000000E+00
  0.000000000000E+00
  0.000000000000E+00