# vtk DataFile Version 3.0
MachLine results file. Generated by MachLine, USU AeroLab (c) 2022.
ASCII
DATASET POLYDATA
POINTS                  80 float
  0.401973724365E+02  0.211972446442E+02  0.000000000000E+00
  0.989609555219E+04  0.211972446442E+02  0.143782004916E+04
  0.380459861755E+02  0.190458717346E+02  0.000000000000E+00
  0.989605072007E+04  0.190458717346E+02  0.143812736217E+04
  0.662720489502E+02  0.472717590332E+02  0.000000000000E+00
  0.989663891488E+04  0.472717590332E+02  0.143409543328E+04
  0.656565246582E+02  0.466562423706E+02  0.000000000000E+00
  0.989662608815E+04  0.466562423706E+02  0.143418335734E+04
  0.423940925598E+02  0.233939495087E+02  0.000000000000E+00
  0.989614132901E+04  0.233939495087E+02  0.143750626046E+04
  0.668050155640E+02  0.478047180176E+02  0.000000000000E+00
  0.989665002122E+04  0.478047180176E+02  0.143401930209E+04
  0.446062088013E+02  0.256060504913E+02  0.000000000000E+00
  0.989618742666E+04  0.256060504913E+02  0.143719027253E+04
  0.672649307251E+02  0.482646369934E+02  0.000000000000E+00
  0.989665960526E+04  0.482646369934E+02  0.143395360589E+04
  0.468029289246E+02  0.278027553558E+02  0.000000000000E+00
  0.989623320348E+04  0.278027553558E+02  0.143687648383E+04
  0.676606597900E+02  0.486603622437E+02  0.000000000000E+00
  0.989666785174E+04  0.486603622437E+02  0.143389707829E+04
  0.680002975464E+02  0.490000000000E+02  0.000000000000E+00
  0.989667492936E+04  0.490000000000E+02  0.143384856302E+04
  0.489543113708E+02  0.299541282654E+02  0.000000000000E+00
  0.989627803552E+04  0.299541282654E+02  0.143656917136E+04
  0.510328712463E+02  0.320326728821E+02  0.000000000000E+00
  0.989632135004E+04  0.320326728821E+02  0.143627226117E+04
  0.609892082214E+02  0.419889526367E+02  0.000000000000E+00
  0.989652882728E+04  0.419889526367E+02  0.143485005635E+04
  0.596738929749E+02  0.406736450195E+02  0.000000000000E+00
  0.989650141781E+04  0.406736450195E+02  0.143503794148E+04
  0.621668891907E+02  0.431666221619E+02  0.000000000000E+00
  0.989655336864E+04  0.431666221619E+02  0.143468183147E+04
  0.632134971619E+02  0.442132263184E+02  0.000000000000E+00
  0.989657517860E+04  0.442132263184E+02  0.143453232961E+04
  0.641374740601E+02  0.451371994019E+02  0.000000000000E+00
  0.989659443309E+04  0.451371994019E+02  0.143440034488E+04
  0.649484252930E+02  0.459481430054E+02  0.000000000000E+00
  0.989661133227E+04  0.459481430054E+02  0.143428450522E+04
  0.193396415710E+02  0.339639574289E+00  0.000000000000E+00
  0.989566090393E+04  0.339639574289E+00  0.144079945470E+04
  0.190000000000E+02  0.000000000000E+00  0.000000000000E+00
  0.989565382623E+04  0.000000000000E+00  0.144084797052E+04
  0.228628253937E+02  0.386280250549E+01  0.000000000000E+00
  0.989573432254E+04  0.386280250549E+01  0.144029618838E+04
  0.220518741608E+02  0.305185556412E+01  0.000000000000E+00
  0.989571742336E+04  0.305185556412E+01  0.144041202805E+04
  0.237868041992E+02  0.478677463531E+01  0.000000000000E+00
  0.989575357707E+04  0.478677463531E+01  0.144016420338E+04
  0.197353687286E+02  0.735364913940E+00  0.000000000000E+00
  0.989566915037E+04  0.735364913940E+00  0.144074292737E+04
  0.248334121704E+02  0.583337688446E+01  0.000000000000E+00
  0.989577538703E+04  0.583337688446E+01  0.144001470152E+04
  0.201952877045E+02  0.119528055191E+01  0.000000000000E+00
  0.989567873449E+04  0.119528055191E+01  0.144067723062E+04
  0.260110912323E+02  0.701104879379E+01  0.000000000000E+00
  0.989579992835E+04  0.701104879379E+01  0.143984647692E+04
  0.207282505035E+02  0.172824025154E+01  0.000000000000E+00
  0.989568984075E+04  0.172824025154E+01  0.144060109999E+04
  0.273264064789E+02  0.832635498047E+01  0.000000000000E+00
  0.989582733783E+04  0.832635498047E+01  0.143965859178E+04
  0.213437728882E+02  0.234375929832E+01  0.000000000000E+00
  0.989570266744E+04  0.234375929832E+01  0.144051317619E+04
  0.530148696899E+02  0.340146598816E+02  0.000000000000E+00
  0.989636265233E+04  0.340146598816E+02  0.143598914422E+04
  0.548812789917E+02  0.358810577393E+02  0.000000000000E+00
  0.989640154590E+04  0.358810577393E+02  0.143572253851E+04
  0.566182289124E+02  0.376179962158E+02  0.000000000000E+00
  0.989643774170E+04  0.376179962158E+02  0.143547442532E+04
  0.582170410156E+02  0.392168006897E+02  0.000000000000E+00
  0.989647105889E+04  0.392168006897E+02  0.143524604431E+04
  0.287832584381E+02  0.978319931030E+01  0.000000000000E+00
  0.989585769674E+04  0.978319931030E+01  0.143945048895E+04
  0.303820724487E+02  0.113820018768E+02  0.000000000000E+00
  0.989589101397E+04  0.113820018768E+02  0.143922210767E+04
  0.321190223694E+02  0.131189413071E+02  0.000000000000E+00
  0.989592720977E+04  0.131189413071E+02  0.143897399448E+04
  0.339854316711E+02  0.149853391647E+02  0.000000000000E+00
  0.989596610334E+04  0.149853391647E+02  0.143870738876E+04
  0.359674301147E+02  0.169673271179E+02  0.000000000000E+00
  0.989600740563E+04  0.169673271179E+02  0.143842427182E+04
POLYGONS                  78                 312
3                  38                  39                  41
3                  38                  41                  40
3                  48                  49                  39
3                  48                  39                  38
3                  52                  53                  49
3                  52                  49                  48
3                  56                  57                  53
3                  56                  53                  52
3                  60                  61                  57
3                  60                  57                  56
3                  44                  45                  61
3                  44                  61                  60
3                  42                  43                  45
3                  42                  45                  44
3                  46                  47                  43
3                  46                  43                  42
3                  50                  51                  47
3                  50                  47                  46
3                  54                  55                  51
3                  54                  51                  50
3                  58                  59                  55
3                  58                  55                  54
3                  70                  71                  59
3                  70                  59                  58
3                  72                  73                  71
3                  72                  71                  70
3                  74                  75                  73
3                  74                  73                  72
3                  76                  77                  75
3                  76                  75                  74
3                  78                  79                  77
3                  78                  77                  76
3                   2                   3                  79
3                   2                  79                  78
3                   0                   1                   3
3                   0                   3                   2
3                   8                   9                   1
3                   8                   1                   0
3                  12                  13                   9
3                  12                   9                   8
3                  16                  17                  13
3                  16                  13                  12
3                  22                  23                  17
3                  22                  17                  16
3                  24                  25                  23
3                  24                  23                  22
3                  62                  63                  25
3                  62                  25                  24
3                  64                  65                  63
3                  64                  63                  62
3                  66                  67                  65
3                  66                  65                  64
3                  68                  69                  67
3                  68                  67                  66
3                  28                  29                  69
3                  28                  69                  68
3                  26                  27                  29
3                  26                  29                  28
3                  30                  31                  27
3                  30                  27                  26
3                  32                  33                  31
3                  32                  31                  30
3                  34                  35                  33
3                  34                  33                  32
3                  36                  37                  35
3                  36                  35                  34
3                   6                   7                  37
3                   6                  37                  36
3                   4                   5                   7
3                   4                   7                   6
3                  10                  11                   5
3                  10                   5                   4
3                  14                  15                  11
3                  14                  11                  10
3                  18                  19                  15
3                  18                  15                  14
3                  20                  21                  19
3                  20                  19                  18
CELL_DATA                  78
NORMALS normals float
  0.142875191844E+00 -0.142876031794E+00 -0.979373840316E+00
  0.142875191844E+00 -0.142876031794E+00 -0.979373840315E+00
  0.142875195591E+00 -0.142875851955E+00 -0.979373866005E+00
  0.142875195591E+00 -0.142875851955E+00 -0.979373866005E+00
  0.142875187823E+00 -0.142876224768E+00 -0.979373812750E+00
  0.142875187823E+00 -0.142876224768E+00 -0.979373812750E+00
  0.142875192029E+00 -0.142876022904E+00 -0.979373841585E+00
  0.142875192029E+00 -0.142876022904E+00 -0.979373841585E+00
  0.142875193174E+00 -0.142875967977E+00 -0.979373849431E+00
  0.142875193174E+00 -0.142875967977E+00 -0.979373849432E+00
  0.142875188368E+00 -0.142876198608E+00 -0.979373816487E+00
  0.142875188368E+00 -0.142876198608E+00 -0.979373816487E+00
  0.142875193556E+00 -0.142875949651E+00 -0.979373852049E+00
  0.142875193556E+00 -0.142875949651E+00 -0.979373852049E+00
  0.142875187918E+00 -0.142876220188E+00 -0.979373813404E+00
  0.142875187918E+00 -0.142876220188E+00 -0.979373813404E+00
  0.142875193044E+00 -0.142875974181E+00 -0.979373848545E+00
  0.142875193044E+00 -0.142875974181E+00 -0.979373848545E+00
  0.142875191276E+00 -0.142876059027E+00 -0.979373836425E+00
  0.142875191276E+00 -0.142876059026E+00 -0.979373836426E+00
  0.142875188901E+00 -0.142876173035E+00 -0.979373820140E+00
  0.142875188901E+00 -0.142876173035E+00 -0.979373820140E+00
  0.142875193716E+00 -0.142875941941E+00 -0.979373853151E+00
  0.142875193716E+00 -0.142875941941E+00 -0.979373853151E+00
  0.142875188114E+00 -0.142876210803E+00 -0.979373814745E+00
  0.142875188114E+00 -0.142876210803E+00 -0.979373814745E+00
  0.142875191375E+00 -0.142876054283E+00 -0.979373837103E+00
  0.142875191375E+00 -0.142876054283E+00 -0.979373837103E+00
  0.142875191107E+00 -0.142876067168E+00 -0.979373835263E+00
  0.142875191107E+00 -0.142876067168E+00 -0.979373835263E+00
  0.142875193553E+00 -0.142875949773E+00 -0.979373852032E+00
  0.142875193553E+00 -0.142875949773E+00 -0.979373852032E+00
  0.142875192932E+00 -0.142875979578E+00 -0.979373847774E+00
  0.142875192932E+00 -0.142875979578E+00 -0.979373847774E+00
  0.142875190890E+00 -0.142876077572E+00 -0.979373833776E+00
  0.142875190890E+00 -0.142876077572E+00 -0.979373833776E+00
  0.142875188731E+00 -0.142876181174E+00 -0.979373818977E+00
  0.142875188731E+00 -0.142876181174E+00 -0.979373818977E+00
  0.142875188872E+00 -0.142876174414E+00 -0.979373819943E+00
  0.142875188872E+00 -0.142876174414E+00 -0.979373819943E+00
  0.142875188731E+00 -0.142876181174E+00 -0.979373818977E+00
  0.142875188731E+00 -0.142876181174E+00 -0.979373818977E+00
  0.142875196062E+00 -0.142875829398E+00 -0.979373869227E+00
  0.142875196062E+00 -0.142875829398E+00 -0.979373869227E+00
  0.142875187579E+00 -0.142876236440E+00 -0.979373811083E+00
  0.142875187579E+00 -0.142876236440E+00 -0.979373811083E+00
  0.142875192150E+00 -0.142876017119E+00 -0.979373842412E+00
  0.142875192150E+00 -0.142876017119E+00 -0.979373842412E+00
  0.142875191107E+00 -0.142876067168E+00 -0.979373835263E+00
  0.142875191107E+00 -0.142876067167E+00 -0.979373835263E+00
  0.142875189774E+00 -0.142876131138E+00 -0.979373826125E+00
  0.142875189774E+00 -0.142876131138E+00 -0.979373826125E+00
  0.142875195073E+00 -0.142875876855E+00 -0.979373862448E+00
  0.142875195073E+00 -0.142875876855E+00 -0.979373862448E+00
  0.142875193716E+00 -0.142875941954E+00 -0.979373853149E+00
  0.142875193716E+00 -0.142875941954E+00 -0.979373853149E+00
  0.142875192073E+00 -0.142876020805E+00 -0.979373841885E+00
  0.142875192073E+00 -0.142876020805E+00 -0.979373841885E+00
  0.142875180648E+00 -0.142876569050E+00 -0.979373763571E+00
  0.142875180648E+00 -0.142876569049E+00 -0.979373763571E+00
  0.142875198360E+00 -0.142875719116E+00 -0.979373884980E+00
  0.142875198360E+00 -0.142875719116E+00 -0.979373884980E+00
  0.142875196949E+00 -0.142875786821E+00 -0.979373875309E+00
  0.142875196949E+00 -0.142875786821E+00 -0.979373875309E+00
  0.142875181551E+00 -0.142876525728E+00 -0.979373769759E+00
  0.142875181551E+00 -0.142876525728E+00 -0.979373769759E+00
  0.142875208990E+00 -0.142875208990E+00 -0.979373957849E+00
  0.142875208990E+00 -0.142875208990E+00 -0.979373957849E+00
  0.142875172839E+00 -0.142876943793E+00 -0.979373710041E+00
  0.142875172839E+00 -0.142876943793E+00 -0.979373710041E+00
  0.142875167239E+00 -0.142877212521E+00 -0.979373671654E+00
  0.142875167239E+00 -0.142877212521E+00 -0.979373671654E+00
  0.142875233181E+00 -0.142874048133E+00 -0.979374123670E+00
  0.142875233181E+00 -0.142874048133E+00 -0.979374123670E+00
  0.142875180876E+00 -0.142876558123E+00 -0.979373765132E+00
  0.142875180876E+00 -0.142876558124E+00 -0.979373765132E+00
  0.142875208989E+00 -0.142875209031E+00 -0.979373957843E+00
  0.142875208989E+00 -0.142875209031E+00 -0.979373957843E+00
POINT_DATA                  80
SCALARS mu float 1
LOOKUP_TABLE default
 -0.532348656474E+01
 -0.532348656474E+01
 -0.529490732442E+01
 -0.529490732442E+01
 -0.262696416099E+01
 -0.262696416099E+01
 -0.299775153474E+01
 -0.299775153474E+01
 -0.534183619615E+01
 -0.534183619615E+01
 -0.220921854888E+01
 -0.220921854888E+01
 -0.534734473061E+01
 -0.534734473061E+01
 -0.170971752114E+01
 -0.170971752114E+01
 -0.533812746907E+01
 -0.533812746907E+01
 -0.104523695469E+01
 -0.104523695469E+01
  0.000000000000E+00
  0.000000000000E+00
 -0.531152453330E+01
 -0.531152453330E+01
 -0.526492603657E+01
 -0.526492603657E+01
 -0.443498194809E+01
 -0.443498194809E+01
 -0.464511467510E+01
 -0.464511467510E+01
 -0.419753618729E+01
 -0.419753618729E+01
 -0.393479245679E+01
 -0.393479245679E+01
 -0.364837482175E+01
 -0.364837482175E+01
 -0.333572436389E+01
 -0.333572436389E+01
 -0.460609043450E+01
 -0.460609043450E+01
 -0.459606948286E+01
 -0.459606948286E+01
 -0.478693635753E+01
 -0.478693635753E+01
 -0.474379983384E+01
 -0.474379983384E+01
 -0.483472524304E+01
 -0.483472524304E+01
 -0.462241942180E+01
 -0.462241942180E+01
 -0.488613032869E+01
 -0.488613032869E+01
 -0.464284009335E+01
 -0.464284009335E+01
 -0.494058999558E+01
 -0.494058999558E+01
 -0.467137780203E+01
 -0.467137780203E+01
 -0.499659208801E+01
 -0.499659208801E+01
 -0.470499926775E+01
 -0.470499926775E+01
 -0.519574908612E+01
 -0.519574908612E+01
 -0.510062150859E+01
 -0.510062150859E+01
 -0.497772976486E+01
 -0.497772976486E+01
 -0.482622390586E+01
 -0.482622390586E+01
 -0.505319889931E+01
 -0.505319889931E+01
 -0.510909261984E+01
 -0.510909261984E+01
 -0.516263625980E+01
 -0.516263625980E+01
 -0.521243785200E+01
 -0.521243785200E+01
 -0.525723166840E+01
 -0.525723166840E+01
