# vtk DataFile Version 3.0
MachLine results file. Generated by MachLine, USU AeroLab (c) 2022.
ASCII
DATASET POLYDATA
POINTS                 482 float
  0.000000000000E+00  0.000000000000E+00  0.000000000000E+00
  0.473465979099E+00  0.000000000000E+00 -0.436293870211E+00
  0.473465979099E+00  0.000000000000E+00  0.436293870211E+00
  0.757896304131E+00  0.757896304131E+00  0.000000000000E+00
  0.123136246204E+01  0.757896304131E+00 -0.436293989420E+00
  0.123136246204E+01  0.757896304131E+00  0.436293989420E+00
  0.157641971111E+01  0.000000000000E+00 -0.760520398617E+00
  0.157641971111E+01  0.000000000000E+00  0.760520398617E+00
  0.178897356987E+01  0.178897356987E+01  0.000000000000E+00
  0.226243972778E+01  0.178897356987E+01 -0.436294138432E+00
  0.226243972778E+01  0.178897356987E+01  0.436294138432E+00
  0.233431649208E+01  0.757896304131E+00 -0.760520577431E+00
  0.233431649208E+01  0.757896304131E+00  0.760520577431E+00
  0.317279767990E+01  0.317279767990E+01  0.000000000000E+00
  0.336539411545E+01  0.178897356987E+01 -0.760520815849E+00
  0.336539411545E+01  0.178897356987E+01  0.760520815849E+00
  0.342464399338E+01  0.000000000000E+00 -0.102348911762E+01
  0.342464399338E+01  0.000000000000E+00  0.102348911762E+01
  0.364626431465E+01  0.317279767990E+01 -0.436294317245E+00
  0.364626431465E+01  0.317279767990E+01  0.436294317245E+00
  0.418254137039E+01  0.757896304131E+00 -0.102348935604E+01
  0.418254137039E+01  0.757896304131E+00  0.102348935604E+01
  0.474921894073E+01  0.317279767990E+01 -0.760521173477E+00
  0.474921894073E+01  0.317279767990E+01  0.760521173477E+00
  0.499661636353E+01  0.499661636353E+01  0.000000000000E+00
  0.521361970901E+01  0.178897356987E+01 -0.102348971367E+01
  0.521361970901E+01  0.178897356987E+01  0.102348971367E+01
  0.547008323669E+01  0.499661636353E+01 -0.436294585466E+00
  0.547008323669E+01  0.499661636353E+01  0.436294585466E+00
  0.611307668686E+01  0.000000000000E+00 -0.114008128643E+01
  0.611307668686E+01  0.000000000000E+00  0.114008128643E+01
  0.657303857803E+01  0.499661636353E+01 -0.760521650314E+00
  0.657303857803E+01  0.499661636353E+01  0.760521650314E+00
  0.659744548798E+01  0.317279767990E+01 -0.102349019051E+01
  0.659744548798E+01  0.317279767990E+01  0.102349019051E+01
  0.687097454071E+01  0.757896304131E+00 -0.114008152485E+01
  0.687097454071E+01  0.757896304131E+00  0.114008152485E+01
  0.734362459183E+01  0.734362459183E+01  0.000000000000E+00
  0.781709194183E+01  0.734362459183E+01 -0.436294913292E+00
  0.781709194183E+01  0.734362459183E+01  0.436294913292E+00
  0.790205335617E+01  0.178897356987E+01 -0.114008200169E+01
  0.790205335617E+01  0.178897356987E+01  0.114008200169E+01
  0.842126560211E+01  0.499661636353E+01 -0.102349078655E+01
  0.842126560211E+01  0.499661636353E+01  0.102349078655E+01
  0.892004776001E+01  0.734362459183E+01 -0.760522186756E+00
  0.892004776001E+01  0.734362459183E+01  0.760522186756E+00
  0.928588008881E+01  0.317279767990E+01 -0.114008247852E+01
  0.928588008881E+01  0.317279767990E+01  0.114008247852E+01
  0.939508819580E+01  0.000000000000E+00 -0.980745851994E+00
  0.939508819580E+01  0.000000000000E+00  0.980745851994E+00
  0.101529865265E+02  0.757896304131E+00 -0.980746090412E+00
  0.101529865265E+02  0.757896304131E+00  0.980746090412E+00
  0.102728376389E+02  0.102728376389E+02  0.000000000000E+00
  0.107463054657E+02  0.102728376389E+02 -0.436295330524E+00
  0.107463054657E+02  0.102728376389E+02  0.436295330524E+00
  0.107682771683E+02  0.734362459183E+01 -0.102349150181E+01
  0.107682771683E+02  0.734362459183E+01  0.102349150181E+01
  0.111097030640E+02  0.499661636353E+01 -0.114008307457E+01
  0.111097030640E+02  0.499661636353E+01  0.114008307457E+01
  0.111840667725E+02  0.178897356987E+01 -0.980746388435E+00
  0.111840667725E+02  0.178897356987E+01  0.980746388435E+00
  0.118492631912E+02  0.102728376389E+02 -0.760522902012E+00
  0.118492631912E+02  0.102728376389E+02  0.760522902012E+00
  0.125678949356E+02  0.317279767990E+01 -0.980746865273E+00
  0.125678949356E+02  0.317279767990E+01  0.980746865273E+00
  0.126670312881E+02  0.000000000000E+00 -0.678052663803E+00
  0.126670312881E+02  0.000000000000E+00  0.678052663803E+00
  0.134249305725E+02  0.757896304131E+00 -0.678052842617E+00
  0.134249305725E+02  0.757896304131E+00  0.678052842617E+00
  0.134567155838E+02  0.734362459183E+01 -0.114008402824E+01
  0.134567155838E+02  0.734362459183E+01  0.114008402824E+01
  0.136974935532E+02  0.102728376389E+02 -0.102349245548E+01
  0.136974935532E+02  0.102728376389E+02  0.102349245548E+01
  0.137921218872E+02  0.137921218872E+02  0.000000000000E+00
  0.142655897141E+02  0.137921218872E+02 -0.436295837164E+00
  0.142655897141E+02  0.137921218872E+02  0.436295837164E+00
  0.143917188644E+02  0.499661636353E+01 -0.980747401714E+00
  0.143917188644E+02  0.499661636353E+01  0.980747401714E+00
  0.144560117722E+02  0.178897356987E+01 -0.678053081036E+00
  0.144560117722E+02  0.178897356987E+01  0.678053081036E+00
  0.153437566757E+02  0.000000000000E+00 -0.393031150103E+00
  0.153437566757E+02  0.000000000000E+00  0.393031150103E+00
  0.153685483932E+02  0.137921218872E+02 -0.760523796082E+00
  0.153685483932E+02  0.137921218872E+02  0.760523796082E+00
  0.158398418427E+02  0.317279767990E+01 -0.678053379059E+00
  0.158398418427E+02  0.317279767990E+01  0.678053379059E+00
  0.161016559601E+02  0.757896304131E+00 -0.393031239510E+00
  0.161016559601E+02  0.757896304131E+00  0.393031239510E+00
  0.163859348297E+02  0.102728376389E+02 -0.114008510113E+01
  0.163859348297E+02  0.102728376389E+02  0.114008510113E+01
  0.167387351990E+02  0.734362459183E+01 -0.980748176575E+00
  0.167387351990E+02  0.734362459183E+01  0.980748176575E+00
  0.171327381134E+02  0.178897356987E+01 -0.393031388521E+00
  0.171327381134E+02  0.178897356987E+01  0.393031388521E+00
  0.172004318237E+02  0.000000000000E+00 -0.192506864667E+00
  0.172004318237E+02  0.000000000000E+00  0.192506864667E+00
  0.172167816162E+02  0.137921218872E+02 -0.102349364758E+01
  0.172167816162E+02  0.137921218872E+02  0.102349364758E+01
  0.176636676788E+02  0.499661636353E+01 -0.678053736687E+00
  0.176636676788E+02  0.499661636353E+01  0.678053736687E+00
  0.178320064545E+02  0.178320064545E+02  0.000000000000E+00
  0.179583320618E+02  0.757896304131E+00 -0.192506924272E+00
  0.179583320618E+02  0.757896304131E+00  0.192506924272E+00
  0.183054752350E+02  0.178320064545E+02 -0.436296403408E+00
  0.183054752350E+02  0.178320064545E+02  0.436296403408E+00
  0.183450412750E+02  0.000000000000E+00 -0.698660761118E-01
  0.183450412750E+02  0.000000000000E+00  0.698660761118E-01
  0.185165691376E+02  0.317279767990E+01 -0.393031567335E+00
  0.185165691376E+02  0.317279767990E+01  0.393031567335E+00
  0.189894161224E+02  0.178897356987E+01 -0.192506983876E+00
  0.189894161224E+02  0.178897356987E+01  0.192506983876E+00
  0.190000000000E+02  0.000000000000E+00  0.000000000000E+00
  0.191029415131E+02  0.757896304131E+00 -0.698660910130E-01
  0.191029415131E+02  0.757896304131E+00  0.698660910130E-01
  0.194084339142E+02  0.178320064545E+02 -0.760524809361E+00
  0.194084339142E+02  0.178320064545E+02  0.760524809361E+00
  0.196679573059E+02  0.102728376389E+02 -0.980749070644E+00
  0.196679573059E+02  0.102728376389E+02  0.980749070644E+00
  0.197579002380E+02  0.757896304131E+00  0.000000000000E+00
  0.199052257538E+02  0.137921218872E+02 -0.114008641243E+01
  0.199052257538E+02  0.137921218872E+02  0.114008641243E+01
  0.200106849670E+02  0.734362459183E+01 -0.678054273129E+00
  0.200106849670E+02  0.734362459183E+01  0.678054273129E+00
  0.201340255737E+02  0.178897356987E+01 -0.698661133647E-01
  0.201340255737E+02  0.178897356987E+01  0.698661133647E-01
  0.203403968811E+02  0.499661636353E+01 -0.393031775951E+00
  0.203403968811E+02  0.499661636353E+01  0.393031775951E+00
  0.203732471466E+02  0.317279767990E+01 -0.192507073283E+00
  0.203732471466E+02  0.317279767990E+01  0.192507073283E+00
  0.207889842987E+02  0.178897356987E+01  0.000000000000E+00
  0.212566699982E+02  0.178320064545E+02 -0.102349495888E+01
  0.212566699982E+02  0.178320064545E+02  0.102349495888E+01
  0.215178565979E+02  0.317279767990E+01 -0.698661431670E-01
  0.215178565979E+02  0.317279767990E+01  0.698661431670E-01
  0.221728172302E+02  0.317279767990E+01  0.000000000000E+00
  0.221970767975E+02  0.499661636353E+01 -0.192507177591E+00
  0.221970767975E+02  0.499661636353E+01  0.192507177591E+00
  0.222339305878E+02  0.222339305878E+02  0.000000000000E+00
  0.226874179840E+02  0.734362459183E+01 -0.393032073975E+00
  0.226874179840E+02  0.734362459183E+01  0.393032073975E+00
  0.227074012756E+02  0.222339305878E+02 -0.436297029257E+00
  0.227074012756E+02  0.222339305878E+02  0.436297029257E+00
  0.229399108887E+02  0.102728376389E+02 -0.678054928780E+00
  0.229399108887E+02  0.102728376389E+02  0.678054928780E+00
  0.231872520447E+02  0.137921218872E+02 -0.980750203133E+00
  0.231872520447E+02  0.137921218872E+02  0.980750203133E+00
  0.233416862488E+02  0.499661636353E+01 -0.698661878705E-01
  0.233416862488E+02  0.499661636353E+01  0.698661878705E-01
  0.238103618622E+02  0.222339305878E+02 -0.760525882244E+00
  0.238103618622E+02  0.222339305878E+02  0.760525882244E+00
  0.239451179504E+02  0.178320064545E+02 -0.114008784294E+01
  0.239451179504E+02  0.178320064545E+02  0.114008784294E+01
  0.239966468811E+02  0.499661636353E+01  0.000000000000E+00
  0.245440979004E+02  0.734362459183E+01 -0.192507326603E+00
  0.245440979004E+02  0.734362459183E+01  0.192507326603E+00
  0.256166458130E+02  0.102728376389E+02 -0.393032461405E+00
  0.256166458130E+02  0.102728376389E+02  0.393032461405E+00
  0.256585998535E+02  0.222339305878E+02 -0.102349650860E+01
  0.256585998535E+02  0.222339305878E+02  0.102349650860E+01
  0.256887092590E+02  0.734362459183E+01 -0.698662400246E-01
  0.256887092590E+02  0.734362459183E+01  0.698662400246E-01
[...]
CELL_DATA                 904
SCALARS C_p_inc float 1
LOOKUP_TABLE default
  0.164215999470E+00
  0.141242556379E+00
  0.107938178196E+00
  0.905724460846E-01
  0.739674747994E-01
  0.648427342968E-01
  0.458266091442E-01
  0.388699177702E-01
  0.209406729364E-01
  0.160875997455E-01
  0.249183929760E-01
  0.192738352007E-01
  0.121385619790E+00
  0.891305527247E-01
  0.269203402009E+00
  0.224396770774E+00
  0.474503731899E+00
  0.429572779760E+00
  0.700253083096E+00
  0.693628745657E+00
 -0.271378146368E+00
  0.134425132958E+00
 -0.615494512342E+00
 -0.362457857131E+00
 -0.551504784588E+00
 -0.473328672258E+00
 -0.536331071034E+00
 -0.512193835320E+00
 -0.474132254691E+00
 -0.494140140328E+00
 -0.378377010037E+00
 -0.350425974633E+00
 -0.253954527300E+00
 -0.223964190109E+00
 -0.149580281144E+00
 -0.113276441759E+00
 -0.595985911613E-01
 -0.394972969007E-02
  0.566600210675E-01
  0.127574124540E+00
  0.159477639566E+00
  0.162833437351E+00
  0.111775125225E+00
  0.107741636521E+00
  0.831714092578E-01
  0.739574102072E-01
  0.522607024333E-01
  0.458737277823E-01
  0.232981823020E-01
  0.208920964905E-01
  0.192362180556E-01
  0.122277147745E-01
  0.904319182822E-01
  0.690536874065E-01
  0.221018162114E+00
  0.201794082189E+00
  0.398581678863E+00
  0.397862884829E+00
  0.577538366796E+00
  0.532953604856E+00
 -0.519354035999E+00
 -0.291956007443E+00
 -0.772155015752E+00
 -0.587178709260E+00
 -0.640224355598E+00
 -0.550287941272E+00
 -0.572995976540E+00
 -0.541599694843E+00
 -0.467863706791E+00
 -0.480709905150E+00
 -0.350061254103E+00
 -0.325758946337E+00
 -0.223444782276E+00
 -0.190796815672E+00
 -0.113112132147E+00
 -0.725848392694E-01
 -0.452091975291E-02
  0.290057041086E-01
  0.123246797568E+00
  0.133908933366E+00
  0.156717987230E+00
  0.158805488770E+00
  0.110134523870E+00
  0.111487229458E+00
  0.866457915109E-01
  0.830838290257E-01
  0.582028853945E-01
  0.522975983056E-01
  0.262853283343E-01
  0.233126075994E-01
  0.125677600216E-01
  0.906840661040E-02
  0.698033054272E-01
  0.594667872285E-01
  0.197410093322E+00
  0.190571435153E+00
  0.382982440283E+00
  0.388747709622E+00
  0.516819682231E+00
  0.469454732165E+00
 -0.723021234830E+00
 -0.526909040980E+00
 -0.912081253336E+00
 -0.752473182454E+00
 -0.718309110650E+00
 -0.634198122223E+00
 -0.605247438315E+00
 -0.577205662718E+00
 -0.464007157851E+00
 -0.476774689907E+00
 -0.325840292324E+00
 -0.300999633665E+00
 -0.190276454818E+00
 -0.157105276400E+00
 -0.725493679694E-01
 -0.431577117777E-01
  0.280908498816E-01
  0.431274738783E-01
  0.131832366125E+00
  0.137030369791E+00
  0.155765799810E+00
  0.156203996808E+00
  0.108677109839E+00
  0.109879493281E+00
  0.864217664185E-01
  0.865107054867E-01
  0.613004110081E-01
  0.582107309151E-01
  0.299404787885E-01
  0.263670683474E-01
  0.923189916268E-02
  0.996153812723E-02
  0.596036536524E-01
  0.578674909401E-01
  0.187897765846E+00
  0.190141022536E+00
  0.382310099006E+00
  0.391199567528E+00
  0.470127827605E+00
  0.422819617360E+00
 -0.900806866105E+00
 -0.724849349598E+00
 -0.103348888465E+01
 -0.899449880589E+00
 -0.784080588552E+00
 -0.715354534385E+00
 -0.632190820271E+00
 -0.611208465121E+00
 -0.459329473663E+00
 -0.473985028176E+00
 -0.301547769818E+00
 -0.277486406728E+00
 -0.156740247615E+00
 -0.131107198905E+00
 -0.432407116815E-01
 -0.267246856631E-01
  0.426590744027E-01
  0.508725084937E-01
  0.136233194226E+00
  0.139563914341E+00
  0.155374046868E+00
  0.155282672405E+00
  0.107888237520E+00
  0.108426732150E+00
  0.856746013560E-01
  0.862708616040E-01
  0.619826913965E-01
  0.612623575431E-01
  0.328030649382E-01
  0.300428444433E-01
  0.999199443082E-02
  0.136848204338E-01
  0.578472835338E-01
  0.623038350410E-01
  0.189184648834E+00
  0.197277100001E+00
  0.390163040736E+00
  0.400560280335E+00
  0.431219687550E+00
  0.385393847954E+00
 -0.105320726157E+01
 -0.900581517050E+00
 -0.113358324504E+01
 -0.102747462934E+01
 -0.835597784806E+00
 -0.785023729572E+00
 -0.651606970292E+00
 -0.639554478687E+00
 -0.454148863658E+00
 -0.468983167802E+00
 -0.278265142702E+00
 -0.259825547831E+00
 -0.131025751604E+00
 -0.115811456892E+00
 -0.267505108585E-01
 -0.177437492630E-01
  0.508275943479E-01
  0.558114147564E-01
  0.139583450453E+00
  0.142302313748E+00
  0.155651373945E+00
  0.154897348290E+00
  0.107672467345E+00
  0.107623990360E+00
  0.852702690878E-01
  0.855031490092E-01
  0.620678776558E-01
  0.619082557746E-01
  0.345392976028E-01
  0.328716927507E-01
  0.137019887838E-01
  0.180723253774E-01
  0.622997075335E-01
  0.696859577627E-01
  0.197394512480E+00
  0.208089792872E+00
  0.402417373053E+00
  0.412708756677E+00
  0.396842905887E+00
  0.354837130733E+00
 -0.117739185660E+01
 -0.105264420991E+01
 -0.121084912716E+01
 -0.113232875959E+01
 -0.873174633282E+00
 -0.839010877229E+00
 -0.664927111826E+00
 -0.658866577399E+00
 -0.451346045981E+00
 -0.461732300706E+00
 -0.260717922378E+00
 -0.250177372505E+00
 -0.115945286677E+00
 -0.108093484798E+00
 -0.177047002478E-01
 -0.128287353170E-01
  0.560121492135E-01
  0.590067815414E-01
  0.142744469056E+00
  0.144525841487E+00
  0.155982937008E+00
  0.155142055659E+00
  0.107632485223E+00
  0.107381011888E+00
  0.850960370425E-01
  0.850731494356E-01
  0.621826721348E-01
  0.619633898938E-01
  0.357959457625E-01
  0.345604867120E-01
  0.181030970468E-01
  0.218587481170E-01
  0.697053981903E-01
  0.770157320706E-01
  0.208586047235E+00
  0.218930133010E+00
  0.415398690701E+00
  0.424195136151E+00
  0.365719021673E+00
  0.330057441218E+00
 -0.127320669240E+01
 -0.117705134829E+01
 -0.126759333353E+01
 -0.121181544579E+01
 -0.900078970850E+00
 -0.876895278578E+00
 -0.675335266593E+00
 -0.670438388601E+00
 -0.451879762285E+00
 -0.456217668323E+00
 -0.251120527921E+00
 -0.246322563564E+00
 -0.108342284171E+00
 -0.104506867780E+00
 -0.127715411415E-01
 -0.100483681109E-01
  0.593151584635E-01
  0.612716352276E-01
  0.145184004117E+00
  0.146616591028E+00
  0.155866527540E+00
  0.155418219273E+00
  0.107242845283E+00
  0.107300784934E+00
  0.846476356614E-01
  0.848676049817E-01
  0.620314408380E-01
  0.620507945739E-01
  0.366006185096E-01
  0.357778920944E-01
  0.218840234087E-01
  0.246680998611E-01
  0.770155458011E-01
  0.827583329263E-01
  0.219345321925E+00
  0.227562407021E+00
  0.426423214066E+00
  0.433019560118E+00
  0.338259401266E+00
  0.310407094250E+00
 -0.134397054065E+01
 -0.127303744185E+01
 -0.130835703156E+01
 -0.126878209828E+01
 -0.919637465810E+00
 -0.902760363030E+00
 -0.683940876405E+00
 -0.678775134432E+00
 -0.453977943726E+00
 -0.454762460448E+00
 -0.247245189215E+00
 -0.245146553211E+00
 -0.104813990299E+00
 -0.102573341661E+00
 -0.100048156600E-01
 -0.795464179824E-02
  0.616115198526E-01
  0.634428121949E-01
  0.147367838120E+00
  0.149036799181E+00
  0.155057590465E+00
  0.155203677761E+00
  0.105993257095E+00
  0.106845567759E+00
  0.832794884040E-01
  0.843738434376E-01
  0.609348208721E-01
  0.618694856080E-01
  0.363585533961E-01
  0.365524405930E-01
  0.246779243480E-01
  0.259981644204E-01
  0.827115377139E-01
  0.862915060320E-01
  0.227738375037E+00
  0.233244417378E+00
  0.434379997948E+00
  0.438752034588E+00
  0.315634062451E+00
  0.295852666987E+00
 -0.139305854991E+01
 -0.134384335541E+01
 -0.133615828832E+01
 -0.130912651757E+01
 -0.932987298566E+00
 -0.921315122282E+00
 -0.689954999661E+00
 -0.686095876380E+00
 -0.455494300825E+00
 -0.455908928434E+00
 -0.246016927564E+00
 -0.244179660268E+00
 -0.102917392520E+00
 -0.100452609988E+00
 -0.793794306215E-02
 -0.530277633811E-02
  0.637904666363E-01
  0.663447397100E-01
  0.149854497904E+00
  0.152190078269E+00
  0.153100772013E+00
  0.154188267022E+00
  0.103232141331E+00
  0.105466861870E+00
  0.801988827913E-01
  0.829219413650E-01
  0.580173809183E-01
  0.607268159376E-01
  0.341956642804E-01
  0.362829858724E-01
  0.259848955607E-01
  0.250852512649E-01
  0.861691656177E-01
  0.870648991406E-01
  0.233136497136E+00
  0.235710866779E+00
  0.439269576086E+00
  0.441591601173E+00
  0.298681844356E+00
  0.286955022764E+00
 -0.142182981459E+01
 -0.139295949381E+01
 -0.135181402621E+01
 -0.133672743941E+01
 -0.939802175726E+00
 -0.934269751142E+00
 -0.692076313017E+00
 -0.691714864441E+00
 -0.454571225415E+00
 -0.457247137814E+00
 -0.245011153602E+00
 -0.241486388961E+00
 -0.100843922663E+00
 -0.965225048460E-01
 -0.532128285006E-02
 -0.744978902299E-03
  0.667168355770E-01
  0.711173904206E-01
  0.153146714995E+00
  0.157025932737E+00
  0.149731369164E+00
  0.151819708971E+00
  0.983326137113E-01
  0.102445790128E+00
  0.745396291486E-01
  0.796722402647E-01
  0.522600587720E-01
  0.577207417308E-01
  0.290600983039E-01
  0.340833619404E-01
  0.250280779781E-01
  0.209755151437E-01
  0.868140277725E-01
  0.843749092835E-01
  0.235239397595E+00
  0.234611475550E+00
  0.441262587250E+00
  0.441640672900E+00
  0.287804001078E+00
  0.284345079973E+00
 -0.143023880422E+01
 -0.142179836225E+01
 -0.135499406890E+01
 -0.135255224672E+01
 -0.939224438291E+00
 -0.941254111247E+00
 -0.688924492545E+00
 -0.694123901688E+00
 -0.449485039999E+00
 -0.456740393518E+00
 -0.242327633426E+00
 -0.235259457746E+00
 -0.970083895852E-01
 -0.890133280209E-01
 -0.821214419232E-03
  0.739515999940E-02
  0.715493794364E-01
  0.792936091124E-01
  0.158268262605E+00
  0.164857790754E+00
  0.144934649184E+00
  0.147676063333E+00
  0.910289489221E-01
  0.970411527227E-01
  0.657340394486E-01
  0.736738965810E-01
  0.427625795178E-01
  0.517812733124E-01
  0.198181479809E-01
  0.288799285924E-01
  0.208252651765E-01
  0.125331474154E-01
  0.839035094930E-01
  0.773253407979E-01
  0.233611560588E+00
  0.229414547819E+00
  0.440280325185E+00
  0.438748435179E+00
  0.283169192145E+00
  0.288253916311E+00
 -0.141814634228E+01
 -0.143031345806E+01
 -0.134521861784E+01
 -0.135620527499E+01
 -0.930369412970E+00
 -0.941302741803E+00
 -0.679124236096E+00
 -0.691865232956E+00
 -0.438424831376E+00
 -0.452709015397E+00
 -0.236180817573E+00
 -0.223504105123E+00
 -0.896918087235E-01
 -0.758219372879E-01
  0.719295264419E-02
  0.211751206173E-01
  0.798047842178E-01
  0.928598088456E-01
  0.166590278144E+00
  0.177694643142E+00
  0.139096687382E+00
  0.141564958394E+00
  0.818485430617E-01
  0.888327374517E-01
  0.542775134559E-01
  0.642240580134E-01
  0.296190137092E-01
  0.419084589983E-01
  0.579524199564E-02
  0.194917469446E-01
  0.121742033833E-01
 -0.143708310100E-02
  0.764722321256E-01
  0.647833019974E-01
  0.227594994732E+00
  0.219378156933E+00
  0.435942296045E+00
  0.432514850418E+00
  0.284527846141E+00
  0.298237284970E+00
 -0.138633503066E+01
 -0.141834859601E+01
 -0.132250810784E+01
 -0.134714391162E+01
 -0.912604124530E+00
 -0.933506280917E+00
 -0.661314660357E+00
 -0.683663796726E+00
 -0.419318723748E+00
 -0.443617524795E+00
 -0.224583887067E+00
 -0.203977637781E+00
 -0.768794021276E-01
 -0.548723046844E-01
  0.206561450921E-01
  0.423137489641E-01
  0.933414400384E-01
  0.113420849641E+00
  0.180037755436E+00
  0.197424280129E+00
  0.131395296770E+00
  0.133652031393E+00
  0.707221477056E-01
  0.781718245614E-01
  0.411876216804E-01
  0.516542746902E-01
  0.146309798962E-01
  0.280260219483E-01
 -0.117913604449E-01
  0.512605064716E-02
 -0.228913880487E-02
 -0.214177837076E-01
  0.632403458736E-01
  0.453563629179E-01
  0.216231300601E+00
  0.203408326704E+00
  0.427529994208E+00
  0.422236504406E+00
  0.290898430300E+00
  0.313097119547E+00
 -0.133691883920E+01
 -0.138666160693E+01
 -0.128764072647E+01
 -0.132533761096E+01
 -0.885600724514E+00
 -0.917284264367E+00
 -0.634029883848E+00
 -0.668465998633E+00
 -0.389719105270E+00
 -0.428021477459E+00
 -0.205314156097E+00
 -0.174940239722E+00
 -0.566852236900E-01
 -0.258041769285E-01
  0.409712447839E-01
  0.703423276512E-01
  0.113337036914E+00
  0.140573746321E+00
  0.200010007391E+00
  0.224308299270E+00
  0.117153966612E+00
  0.122494261693E+00
  0.541274995495E-01
  0.646600663833E-01
  0.250560213644E-01
  0.368028195322E-01
 -0.100427089546E-02
  0.117455606249E-01
 -0.294489890073E-01
 -0.132550952166E-01
 -0.234016658595E-01
 -0.448553907882E-01
  0.424688178617E-01
  0.178901636683E-01
  0.197973083623E+00
  0.179669562315E+00
  0.413778880154E+00
  0.406659731058E+00
  0.300315041123E+00
  0.331029241882E+00
 -0.127301323352E+01
 -0.133733369785E+01
 -0.124189474117E+01
 -0.129151549955E+01
 -0.848910456081E+00
 -0.892500365200E+00
 -0.595045084619E+00
 -0.645596601019E+00
 -0.347403771021E+00
 -0.404781086161E+00
 -0.176777809095E+00
 -0.138062216224E+00
 -0.291293695524E-01
  0.774400926591E-02
  0.669959497914E-01
  0.101831204225E+00
  0.138419538313E+00
  0.172085163139E+00
  0.225579599989E+00
  0.257607844058E+00
  0.856536860304E-01
  0.101622823874E+00
  0.238183096309E-01
  0.439039240091E-01
  0.737151571095E-03
  0.178931309310E-01
 -0.196716408011E-01
 -0.590764734658E-02
 -0.457290016002E-01
 -0.324920871009E-01
 -0.490738991565E-01
 -0.655635084255E-01
  0.123206250048E-01
 -0.154726491697E-01
  0.169893156618E+00
  0.145055558675E+00
  0.392183813824E+00
  0.383268781995E+00
  0.309535476503E+00
  0.349889661738E+00
 -0.119771978826E+01
 -0.127344047994E+01
 -0.118606155395E+01
 -0.124695252119E+01
 -0.800366229790E+00
 -0.859418807135E+00
 -0.540363080101E+00
 -0.615008711579E+00
 -0.295038642508E+00
 -0.373566552412E+00
 -0.141003515576E+00
 -0.100705304360E+00
  0.155362869870E-02
  0.394161185127E-01
  0.941699353396E-01
  0.132542602812E+00
  0.164660266123E+00
  0.206656091109E+00
  0.253855129067E+00
  0.299381001036E+00
  0.115727051341E-01
  0.554329698129E-01
 -0.367274711026E-01
  0.555885483352E-02
 -0.406184585637E-01
 -0.111592500052E-01
 -0.467594868314E-01
 -0.277641408681E-01
 -0.639512455570E-01
 -0.515098972487E-01
 -0.735544784720E-01
 -0.816108733252E-01
 -0.258037768863E-01
 -0.455678877297E-01
  0.126465040721E+00
  0.969622932544E-01
  0.356760338231E+00
  0.346275340774E+00
  0.312854742006E+00
  0.367238605257E+00
 -0.111248282658E+01
 -0.119803460590E+01
 -0.111777910067E+01
 -0.119273402503E+01
 -0.731452330802E+00
 -0.818812613512E+00
 -0.470429679824E+00
 -0.576560881494E+00
 -0.244182401894E+00
 -0.338372270422E+00
 -0.105830756083E+00
 -0.718836286626E-01
  0.278745594269E-01
  0.620961526547E-01
  0.116212137266E+00
  0.157509677184E+00
  0.187451274744E+00
  0.245100041615E+00
  0.281935316187E+00
  0.360955846695E+00
 -0.212013039231E+00
 -0.540441750693E-01
 -0.157049740668E+00
 -0.735685435112E-01
 -0.118076005011E+00
 -0.625399004724E-01
 -0.927381440639E-01
 -0.611819659263E-01
 -0.918077798971E-01
 -0.748380319356E-01
 -0.960672348925E-01
 -0.986965854851E-01
 -0.636153556186E-01
 -0.689098562059E-01
  0.623063047119E-01
  0.434005079894E-01
  0.290069269128E+00
  0.281176751400E+00
  0.295265927355E+00
  0.379128361890E+00
 -0.101320637820E+01
 -0.111250952095E+01
 -0.102042477044E+01
 -0.112899570746E+01
 -0.627218847129E+00
 -0.771036710173E+00
 -0.404797847880E+00
 -0.533375816182E+00
 -0.205690601160E+00
 -0.314477307438E+00
 -0.821799040992E-01
 -0.626183451354E-01
  0.388330404432E-01
  0.630384874837E-01
  0.121805377476E+00
  0.162171822606E+00
  0.198274610758E+00
  0.289014056863E+00
  0.302324402273E+00
  0.441844120730E+00
 -0.509012205254E+03
 -0.138463850820E+01
 -0.172972251519E+01
 -0.270694570713E+00
 -0.303181113343E+00
 -0.187229281684E+00
 -0.210293577648E+00
 -0.133593589698E+00
 -0.158367389681E+00
 -0.119922951991E+00
 -0.133657277197E+00
 -0.132935596786E+00
 -0.105275589742E+00
 -0.105523702830E+00
 -0.249880803827E-01
 -0.246118714529E-01
  0.140351789520E+00
  0.157102259131E+00
  0.158232402735E+00
  0.351030146785E+00
 -0.834695782708E+00
 -0.101316657318E+01
 -0.788541350243E+00
 -0.106591176821E+01
 -0.520824626692E+00
 -0.720614370498E+00
 -0.371912498948E+00
 -0.523295684544E+00
 -0.195390887049E+00
 -0.347703561635E+00
 -0.103026560194E+00
 -0.120355178925E+00
 -0.144109270581E-01
 -0.275158969727E-01
  0.349075053817E-01
  0.474146542252E-01
  0.110788680755E+00
 -0.349971544663E+00
  0.495656192291E+00
 -0.534596559763E+03
 -0.129469995404E+04
 -0.186477706834E+02
 -0.152957606289E+01
 -0.106218690440E+01
 -0.590734286851E+00
 -0.591545108805E+00
 -0.334583072767E+00
 -0.345302929753E+00
 -0.233361596395E+00
 -0.238373217149E+00
 -0.216945898376E+00
 -0.193923736876E+00
 -0.204367959912E+00
 -0.157365328768E+00
 -0.184620376443E+00
 -0.112465591060E+00
 -0.130245438998E+00
 -0.125437295353E+00
 -0.832971445261E+00
 -0.686658731774E+00
 -0.896720621714E+00
 -0.542167613465E+00
 -0.680670996048E+00
 -0.435952139659E+00
 -0.575132997068E+00
 -0.283986684170E+00
 -0.497950914709E+00
 -0.234840723089E+00
 -0.409764089616E+00
 -0.257492347361E+00
 -0.592660738796E+00
 -0.431992484320E+00
 -0.114932858258E+01
 -0.267451952575E+01
 -0.179920566778E+01
 -0.117977779879E+04
 -0.139094191962E+04
 -0.553499072574E+02
 -0.215795791381E+01
 -0.172305213539E+01
 -0.994142356497E+00
 -0.100151325750E+01
 -0.563766874779E+00
 -0.580328682872E+00
 -0.380737712043E+00
 -0.390239744949E+00
 -0.333729942864E+00
 -0.319518955198E+00
 -0.325191110951E+00
 -0.294968449970E+00
 -0.332699755336E+00
 -0.287013343283E+00
 -0.344157801740E+00
 -0.257728661233E+00
 -0.799844750563E+00
 -0.688111293044E+00
 -0.827239250507E+00
 -0.600086550053E+00
 -0.687588405490E+00
 -0.522596536673E+00
 -0.632463118890E+00
 -0.396632864400E+00
 -0.634765127331E+00
 -0.411647717025E+00
 -0.663958805503E+00
 -0.546164506281E+00
 -0.104978047375E+01
 -0.927740430664E+00
 -0.212364440744E+01
 -0.439633888957E+01
 -0.122015556214E+02
 -0.121326432876E+04
 -0.111424490059E+04
 -0.511216400362E+02
 -0.319908195601E+01
 -0.240720488210E+01
 -0.135265496433E+01
 -0.137656845895E+01
 -0.772384156606E+00
 -0.804202287092E+00
 -0.518227337372E+00
 -0.539885154884E+00
 -0.449759963346E+00
 -0.446392140530E+00
 -0.441272004287E+00
 -0.421804259804E+00
 -0.458359934589E+00
 -0.430236268338E+00
 -0.503798053432E+00
 -0.373676307056E+00
 -0.718988779279E+00
 -0.692562210392E+00
 -0.743513942800E+00
 -0.628332255932E+00
 -0.662285040430E+00
 -0.571864521482E+00
 -0.651088658765E+00
 -0.483883489014E+00
 -0.716296937949E+00
 -0.554554323310E+00
 -0.854429678452E+00
 -0.784720859668E+00
 -0.140481795848E+01
 -0.133388225063E+01
 -0.279895798158E+01
 -0.575641538946E+01
 -0.721572603920E+01
 -0.950375446621E+03
 -0.765532496105E+03
 -0.218218280334E+02
 -0.461441164973E+01
 -0.295701911362E+01
 -0.155630932865E+01
 -0.163156256340E+01
 -0.895011819984E+00
 -0.965518715909E+00
 -0.600649683134E+00
 -0.650673577826E+00
 -0.534528274422E+00
 -0.551967908919E+00
 -0.534423774580E+00
 -0.530210649056E+00
 -0.555228467631E+00
 -0.553104195886E+00
 -0.611924431600E+00
 -0.492503401924E+00
 -0.610929628786E+00
 -0.683245329960E+00
 -0.647959676679E+00
 -0.618271727661E+00
 -0.607202627327E+00
 -0.575564235139E+00
 -0.626521398861E+00
 -0.528617091165E+00
 -0.732659212713E+00
 -0.636774197372E+00
 -0.950974858860E+00
 -0.926881806525E+00
 -0.159913021716E+01
 -0.157694947822E+01
 -0.307360991150E+01
 -0.586756110885E+01
 -0.264967142101E+01
 -0.697898126682E+03
SCALARS sigma float 1
LOOKUP_TABLE default
  0.383668777187E-01
  0.383669000993E-01
  0.378993989773E-01
  0.378994372639E-01
  0.370559139958E-01
  0.370558755004E-01
  0.385553554448E-01
  0.385553879227E-01
  0.523671635956E-01
  0.523671551085E-01
  0.960903875744E-01
  0.960903947445E-01
  0.186918812986E+00
  0.186918805733E+00
  0.279544752309E+00
  0.279544741396E+00
  0.401893501890E+00
  0.401893487528E+00
  0.642983203599E+00
  0.642983201092E+00
  0.467222599179E+00
  0.467222616846E+00
  0.135300690957E+00
  0.135300711181E+00
 -0.349463813160E-02
 -0.349462487607E-02
 -0.101252119205E+00
 -0.101252111421E+00
 -0.191943926447E+00
 -0.191943932996E+00
 -0.233905584053E+00
 -0.233905575038E+00
 -0.246938131343E+00
 -0.246938165341E+00
 -0.248346655401E+00
 -0.248346616372E+00
 -0.247554432850E+00
 -0.247554470564E+00
 -0.247115252701E+00
 -0.247115274311E+00
  0.383668434726E-01
  0.383668770345E-01