# vtk DataFile Version 3.0
TriPan results file. Generated by TriPan, USU AeroLab (c) 2021.
ASCII
DATASET POLYDATA
POINTS                 482 float
  0.000000000000E+00  0.000000000000E+00  0.000000000000E+00
  0.473465979099E+00  0.000000000000E+00 -0.436293870211E+00
  0.473465979099E+00  0.000000000000E+00  0.436293870211E+00
  0.757896304131E+00  0.757896304131E+00  0.000000000000E+00
  0.123136246204E+01  0.757896304131E+00 -0.436293989420E+00
  0.123136246204E+01  0.757896304131E+00  0.436293989420E+00
  0.157641971111E+01  0.000000000000E+00 -0.760520398617E+00
  0.157641971111E+01  0.000000000000E+00  0.760520398617E+00
  0.178897356987E+01  0.178897356987E+01  0.000000000000E+00
  0.226243972778E+01  0.178897356987E+01 -0.436294138432E+00
  0.226243972778E+01  0.178897356987E+01  0.436294138432E+00
  0.233431649208E+01  0.757896304131E+00 -0.760520577431E+00
  0.233431649208E+01  0.757896304131E+00  0.760520577431E+00
  0.317279767990E+01  0.317279767990E+01  0.000000000000E+00
  0.336539411545E+01  0.178897356987E+01 -0.760520815849E+00
  0.336539411545E+01  0.178897356987E+01  0.760520815849E+00
  0.342464399338E+01  0.000000000000E+00 -0.102348911762E+01
  0.342464399338E+01  0.000000000000E+00  0.102348911762E+01
  0.364626431465E+01  0.317279767990E+01 -0.436294317245E+00
  0.364626431465E+01  0.317279767990E+01  0.436294317245E+00
  0.418254137039E+01  0.757896304131E+00 -0.102348935604E+01
  0.418254137039E+01  0.757896304131E+00  0.102348935604E+01
  0.474921894073E+01  0.317279767990E+01 -0.760521173477E+00
  0.474921894073E+01  0.317279767990E+01  0.760521173477E+00
  0.499661636353E+01  0.499661636353E+01  0.000000000000E+00
  0.521361970901E+01  0.178897356987E+01 -0.102348971367E+01
  0.521361970901E+01  0.178897356987E+01  0.102348971367E+01
  0.547008323669E+01  0.499661636353E+01 -0.436294585466E+00
  0.547008323669E+01  0.499661636353E+01  0.436294585466E+00
  0.611307668686E+01  0.000000000000E+00 -0.114008128643E+01
  0.611307668686E+01  0.000000000000E+00  0.114008128643E+01
  0.657303857803E+01  0.499661636353E+01 -0.760521650314E+00
  0.657303857803E+01  0.499661636353E+01  0.760521650314E+00
  0.659744548798E+01  0.317279767990E+01 -0.102349019051E+01
  0.659744548798E+01  0.317279767990E+01  0.102349019051E+01
  0.687097454071E+01  0.757896304131E+00 -0.114008152485E+01
  0.687097454071E+01  0.757896304131E+00  0.114008152485E+01
  0.734362459183E+01  0.734362459183E+01  0.000000000000E+00
  0.781709194183E+01  0.734362459183E+01 -0.436294913292E+00
  0.781709194183E+01  0.734362459183E+01  0.436294913292E+00
  0.790205335617E+01  0.178897356987E+01 -0.114008200169E+01
  0.790205335617E+01  0.178897356987E+01  0.114008200169E+01
  0.842126560211E+01  0.499661636353E+01 -0.102349078655E+01
  0.842126560211E+01  0.499661636353E+01  0.102349078655E+01
  0.892004776001E+01  0.734362459183E+01 -0.760522186756E+00
  0.892004776001E+01  0.734362459183E+01  0.760522186756E+00
  0.928588008881E+01  0.317279767990E+01 -0.114008247852E+01
  0.928588008881E+01  0.317279767990E+01  0.114008247852E+01
  0.939508819580E+01  0.000000000000E+00 -0.980745851994E+00
  0.939508819580E+01  0.000000000000E+00  0.980745851994E+00
  0.101529865265E+02  0.757896304131E+00 -0.980746090412E+00
  0.101529865265E+02  0.757896304131E+00  0.980746090412E+00
  0.102728376389E+02  0.102728376389E+02  0.000000000000E+00
  0.107463054657E+02  0.102728376389E+02 -0.436295330524E+00
  0.107463054657E+02  0.102728376389E+02  0.436295330524E+00
  0.107682771683E+02  0.734362459183E+01 -0.102349150181E+01
  0.107682771683E+02  0.734362459183E+01  0.102349150181E+01
  0.111097030640E+02  0.499661636353E+01 -0.114008307457E+01
  0.111097030640E+02  0.499661636353E+01  0.114008307457E+01
  0.111840667725E+02  0.178897356987E+01 -0.980746388435E+00
  0.111840667725E+02  0.178897356987E+01  0.980746388435E+00
  0.118492631912E+02  0.102728376389E+02 -0.760522902012E+00
  0.118492631912E+02  0.102728376389E+02  0.760522902012E+00
  0.125678949356E+02  0.317279767990E+01 -0.980746865273E+00
  0.125678949356E+02  0.317279767990E+01  0.980746865273E+00
  0.126670312881E+02  0.000000000000E+00 -0.678052663803E+00
  0.126670312881E+02  0.000000000000E+00  0.678052663803E+00
  0.134249305725E+02  0.757896304131E+00 -0.678052842617E+00
  0.134249305725E+02  0.757896304131E+00  0.678052842617E+00
  0.134567155838E+02  0.734362459183E+01 -0.114008402824E+01
  0.134567155838E+02  0.734362459183E+01  0.114008402824E+01
  0.136974935532E+02  0.102728376389E+02 -0.102349245548E+01
  0.136974935532E+02  0.102728376389E+02  0.102349245548E+01
  0.137921218872E+02  0.137921218872E+02  0.000000000000E+00
  0.142655897141E+02  0.137921218872E+02 -0.436295837164E+00
  0.142655897141E+02  0.137921218872E+02  0.436295837164E+00
  0.143917188644E+02  0.499661636353E+01 -0.980747401714E+00
  0.143917188644E+02  0.499661636353E+01  0.980747401714E+00
  0.144560117722E+02  0.178897356987E+01 -0.678053081036E+00
  0.144560117722E+02  0.178897356987E+01  0.678053081036E+00
  0.153437566757E+02  0.000000000000E+00 -0.393031150103E+00
  0.153437566757E+02  0.000000000000E+00  0.393031150103E+00
  0.153685483932E+02  0.137921218872E+02 -0.760523796082E+00
  0.153685483932E+02  0.137921218872E+02  0.760523796082E+00
  0.158398418427E+02  0.317279767990E+01 -0.678053379059E+00
  0.158398418427E+02  0.317279767990E+01  0.678053379059E+00
  0.161016559601E+02  0.757896304131E+00 -0.393031239510E+00
  0.161016559601E+02  0.757896304131E+00  0.393031239510E+00
  0.163859348297E+02  0.102728376389E+02 -0.114008510113E+01
  0.163859348297E+02  0.102728376389E+02  0.114008510113E+01
  0.167387351990E+02  0.734362459183E+01 -0.980748176575E+00
  0.167387351990E+02  0.734362459183E+01  0.980748176575E+00
  0.171327381134E+02  0.178897356987E+01 -0.393031388521E+00
  0.171327381134E+02  0.178897356987E+01  0.393031388521E+00
  0.172004318237E+02  0.000000000000E+00 -0.192506864667E+00
  0.172004318237E+02  0.000000000000E+00  0.192506864667E+00
  0.172167816162E+02  0.137921218872E+02 -0.102349364758E+01
  0.172167816162E+02  0.137921218872E+02  0.102349364758E+01
  0.176636676788E+02  0.499661636353E+01 -0.678053736687E+00
  0.176636676788E+02  0.499661636353E+01  0.678053736687E+00
  0.178320064545E+02  0.178320064545E+02  0.000000000000E+00
  0.179583320618E+02  0.757896304131E+00 -0.192506924272E+00
  0.179583320618E+02  0.757896304131E+00  0.192506924272E+00
  0.183054752350E+02  0.178320064545E+02 -0.436296403408E+00
  0.183054752350E+02  0.178320064545E+02  0.436296403408E+00
  0.183450412750E+02  0.000000000000E+00 -0.698660761118E-01
  0.183450412750E+02  0.000000000000E+00  0.698660761118E-01
  0.185165691376E+02  0.317279767990E+01 -0.393031567335E+00
  0.185165691376E+02  0.317279767990E+01  0.393031567335E+00
  0.189894161224E+02  0.178897356987E+01 -0.192506983876E+00
  0.189894161224E+02  0.178897356987E+01  0.192506983876E+00
  0.190000000000E+02  0.000000000000E+00  0.000000000000E+00
  0.191029415131E+02  0.757896304131E+00 -0.698660910130E-01
  0.191029415131E+02  0.757896304131E+00  0.698660910130E-01
  0.194084339142E+02  0.178320064545E+02 -0.760524809361E+00
  0.194084339142E+02  0.178320064545E+02  0.760524809361E+00
  0.196679573059E+02  0.102728376389E+02 -0.980749070644E+00
  0.196679573059E+02  0.102728376389E+02  0.980749070644E+00
  0.197579002380E+02  0.757896304131E+00  0.000000000000E+00
  0.199052257538E+02  0.137921218872E+02 -0.114008641243E+01
  0.199052257538E+02  0.137921218872E+02  0.114008641243E+01
  0.200106849670E+02  0.734362459183E+01 -0.678054273129E+00
  0.200106849670E+02  0.734362459183E+01  0.678054273129E+00
  0.201340255737E+02  0.178897356987E+01 -0.698661133647E-01
  0.201340255737E+02  0.178897356987E+01  0.698661133647E-01
  0.203403968811E+02  0.499661636353E+01 -0.393031775951E+00
  0.203403968811E+02  0.499661636353E+01  0.393031775951E+00
  0.203732471466E+02  0.317279767990E+01 -0.192507073283E+00
  0.203732471466E+02  0.317279767990E+01  0.192507073283E+00
  0.207889842987E+02  0.178897356987E+01  0.000000000000E+00
  0.212566699982E+02  0.178320064545E+02 -0.102349495888E+01
  0.212566699982E+02  0.178320064545E+02  0.102349495888E+01
  0.215178565979E+02  0.317279767990E+01 -0.698661431670E-01
  0.215178565979E+02  0.317279767990E+01  0.698661431670E-01
  0.221728172302E+02  0.317279767990E+01  0.000000000000E+00
  0.221970767975E+02  0.499661636353E+01 -0.192507177591E+00
  0.221970767975E+02  0.499661636353E+01  0.192507177591E+00
  0.222339305878E+02  0.222339305878E+02  0.000000000000E+00
  0.226874179840E+02  0.734362459183E+01 -0.393032073975E+00
  0.226874179840E+02  0.734362459183E+01  0.393032073975E+00
  0.227074012756E+02  0.222339305878E+02 -0.436297029257E+00
  0.227074012756E+02  0.222339305878E+02  0.436297029257E+00
  0.229399108887E+02  0.102728376389E+02 -0.678054928780E+00
  0.229399108887E+02  0.102728376389E+02  0.678054928780E+00
  0.231872520447E+02  0.137921218872E+02 -0.980750203133E+00
  0.231872520447E+02  0.137921218872E+02  0.980750203133E+00
  0.233416862488E+02  0.499661636353E+01 -0.698661878705E-01
  0.233416862488E+02  0.499661636353E+01  0.698661878705E-01
  0.238103618622E+02  0.222339305878E+02 -0.760525882244E+00
  0.238103618622E+02  0.222339305878E+02  0.760525882244E+00
  0.239451179504E+02  0.178320064545E+02 -0.114008784294E+01
  0.239451179504E+02  0.178320064545E+02  0.114008784294E+01
  0.239966468811E+02  0.499661636353E+01  0.000000000000E+00
  0.245440979004E+02  0.734362459183E+01 -0.192507326603E+00
  0.245440979004E+02  0.734362459183E+01  0.192507326603E+00
  0.256166458130E+02  0.102728376389E+02 -0.393032461405E+00
  0.256166458130E+02  0.102728376389E+02  0.393032461405E+00
  0.256585998535E+02  0.222339305878E+02 -0.102349650860E+01
  0.256585998535E+02  0.222339305878E+02  0.102349650860E+01
  0.256887092590E+02  0.734362459183E+01 -0.698662400246E-01
  0.256887092590E+02  0.734362459183E+01  0.698662400246E-01
[...]
CELL_DATA                 904
SCALARS sigma float 1
LOOKUP_TABLE default
  0.383668777187E-01
  0.383669000993E-01
  0.378993989773E-01
  0.378994372639E-01
  0.370559139958E-01
  0.370558755004E-01
  0.385553554448E-01
  0.385553879227E-01
  0.523671635956E-01
  0.523671551085E-01
  0.960903875744E-01
  0.960903947445E-01
  0.186918812986E+00
  0.186918805733E+00
  0.279544752309E+00
  0.279544741396E+00
  0.401893501890E+00
  0.401893487528E+00
  0.642983203599E+00
  0.642983201092E+00
  0.467222599179E+00
  0.467222616846E+00
  0.135300690957E+00
  0.135300711181E+00
 -0.349463813160E-02
 -0.349462487607E-02
 -0.101252119205E+00
 -0.101252111421E+00
 -0.191943926447E+00
 -0.191943932996E+00
 -0.233905584053E+00
 -0.233905575038E+00
 -0.246938131343E+00
 -0.246938165341E+00
 -0.248346655401E+00
 -0.248346616372E+00
 -0.247554432850E+00
 -0.247554470564E+00
 -0.247115252701E+00
 -0.247115274311E+00
  0.383668434726E-01
  0.383668770345E-01
  0.378993662742E-01
  0.378993982306E-01
  0.370559753994E-01
  0.370559139284E-01
  0.385553594644E-01
  0.385553550401E-01
  0.523671723365E-01
  0.523671638017E-01
  0.960903946724E-01
  0.960903609738E-01
  0.186918806897E+00
  0.186918841731E+00
  0.279544743398E+00
  0.279544751186E+00
  0.401893491692E+00
  0.401893483075E+00
  0.642983232826E+00
  0.642983252464E+00
  0.467222688332E+00
  0.467222622238E+00
  0.135300680817E+00
  0.135300692359E+00
 -0.349462898316E-02
 -0.349463815663E-02
 -0.101252082899E+00
 -0.101252119835E+00
 -0.191943957598E+00
 -0.191943926303E+00
 -0.233905575959E+00
 -0.233905567157E+00
 -0.246938162749E+00
 -0.246938158245E+00
 -0.248346615920E+00
 -0.248346554826E+00
 -0.247554465687E+00
 -0.247554496778E+00
 -0.247115269905E+00
 -0.247115302080E+00
  0.383671051109E-01
  0.383668440667E-01
  0.378993155919E-01
  0.378993667816E-01
  0.370559285657E-01
  0.370559757933E-01
  0.385553529085E-01
  0.385553593651E-01
  0.523671714814E-01
  0.523671721873E-01
  0.960903611998E-01
  0.960903825205E-01
  0.186918841413E+00
  0.186918826705E+00
  0.279544750846E+00
  0.279544743333E+00
  0.401893479244E+00
  0.401893541544E+00
  0.642983211114E+00
  0.642983162625E+00
  0.467222532421E+00
  0.467222658285E+00
  0.135300760252E+00
  0.135300679527E+00
 -0.349463764340E-02
 -0.349462897891E-02
 -0.101252098190E+00
 -0.101252082727E+00
 -0.191943938016E+00
 -0.191943958049E+00
 -0.233905566490E+00
 -0.233905567203E+00
 -0.246938157609E+00
 -0.246938164052E+00
 -0.248346557466E+00
 -0.248346603738E+00
 -0.247554500092E+00
 -0.247554549456E+00
 -0.247115305907E+00
 -0.247115056916E+00
  0.383670379358E-01
  0.383671051671E-01
  0.378992637870E-01
  0.378993150178E-01
  0.370559821708E-01
  0.370559283832E-01
  0.385553729158E-01
  0.385553530995E-01
  0.523671710269E-01
  0.523671717369E-01
  0.960903825337E-01
  0.960903784577E-01
  0.186918826160E+00
  0.186918781875E+00
  0.279544744492E+00
  0.279544768248E+00
  0.401893549584E+00
  0.401893548614E+00
  0.642983168468E+00
  0.642983179356E+00
  0.467222561456E+00
  0.467222536666E+00
  0.135300761729E+00
  0.135300762959E+00
 -0.349461066111E-02
 -0.349463765789E-02
 -0.101252144176E+00
 -0.101252097895E+00
 -0.191943941904E+00
 -0.191943938042E+00
 -0.233905568344E+00
 -0.233905569050E+00
 -0.246938165275E+00
 -0.246938145779E+00
 -0.248346602515E+00
 -0.248346550348E+00
 -0.247554545706E+00
 -0.247554594800E+00
 -0.247115057277E+00
 -0.247115121174E+00
  0.383669592792E-01
  0.383670377253E-01
  0.378993563087E-01
  0.378992638568E-01
  0.370559032352E-01
  0.370559821208E-01
  0.385554344787E-01
  0.385553729308E-01
  0.523671254214E-01
  0.523671705945E-01
  0.960903781940E-01
  0.960903801475E-01
  0.186918782151E+00
  0.186918852682E+00
  0.279544765012E+00
  0.279544690065E+00
  0.401893548662E+00
  0.401893589923E+00
  0.642983168916E+00
  0.642983140889E+00
  0.467222494699E+00
  0.467222553870E+00
  0.135300813247E+00
  0.135300761745E+00
 -0.349469493178E-02
 -0.349461062066E-02
 -0.101252070924E+00
 -0.101252144326E+00
 -0.191943939516E+00
 -0.191943941377E+00
 -0.233905567119E+00
 -0.233905611568E+00
 -0.246938145875E+00
 -0.246938085928E+00
 -0.248346550013E+00
 -0.248346625976E+00
 -0.247554595256E+00
 -0.247554507051E+00
 -0.247115119818E+00
 -0.247115194184E+00
  0.383671646793E-01
  0.383669594440E-01
  0.378992602696E-01
  0.378993564101E-01
  0.370559017616E-01
  0.370559031517E-01
  0.385554106416E-01
  0.385554345560E-01
  0.523671598755E-01
  0.523671253943E-01
  0.960903803320E-01
  0.960903681467E-01
  0.186918852936E+00
  0.186918851194E+00
  0.279544689785E+00
  0.279544738110E+00
  0.401893582364E+00
  0.401893421783E+00
  0.642983139230E+00
  0.642983133259E+00
  0.467222481456E+00
  0.467222493493E+00
  0.135300612306E+00
  0.135300810703E+00
 -0.349464094448E-02
 -0.349469492829E-02
 -0.101252072869E+00
 -0.101252071062E+00
 -0.191943951541E+00
 -0.191943939884E+00
 -0.233905611447E+00
 -0.233905577770E+00
 -0.246938086423E+00
 -0.246938109552E+00
 -0.248346625417E+00
 -0.248346626749E+00
 -0.247554507713E+00
 -0.247554599156E+00
 -0.247115195246E+00
 -0.247115001025E+00
  0.383667350912E-01
  0.383671646356E-01
  0.378994902487E-01
  0.378992603418E-01
  0.370558926821E-01
  0.370559019643E-01
  0.385553648836E-01
  0.385554107083E-01
  0.523671586053E-01
  0.523671600321E-01
  0.960903681583E-01
  0.960903701055E-01
  0.186918851309E+00
  0.186918849556E+00
  0.279544740255E+00
  0.279544688719E+00
  0.401893429822E+00
  0.401893495922E+00
  0.642983164865E+00
  0.642983307891E+00
  0.467222784524E+00
  0.467222504423E+00
  0.135300696124E+00
  0.135300615012E+00
 -0.349469827341E-02
 -0.349464097131E-02
 -0.101252074746E+00
 -0.101252072931E+00
 -0.191943949697E+00
 -0.191943951565E+00
 -0.233905578470E+00
 -0.233905579856E+00
 -0.246938109979E+00
 -0.246938154087E+00
 -0.248346628107E+00
 -0.248346636971E+00
 -0.247554599627E+00
 -0.247554381408E+00
 -0.247115000744E+00
 -0.247115406753E+00
  0.383672131209E-01
  0.383667352149E-01
  0.378993494540E-01
  0.378994905342E-01
  0.370558675330E-01
  0.370558926206E-01
  0.385553717566E-01
  0.385553648598E-01
  0.523671392523E-01
  0.523671586508E-01
  0.960903701175E-01
  0.960903902287E-01
  0.186918849399E+00
  0.186918832788E+00
  0.279544687754E+00
  0.279544636061E+00
  0.401893499696E+00
  0.401893777210E+00
  0.642983290906E+00
  0.642983200161E+00
  0.467222597562E+00
  0.467222772182E+00
  0.135301036463E+00
  0.135300697394E+00
 -0.349475556608E-02
 -0.349469826134E-02
 -0.101252091842E+00
 -0.101252074660E+00
 -0.191943930396E+00
 -0.191943949721E+00
 -0.233905580060E+00
 -0.233905598849E+00
 -0.246938153934E+00
 -0.246938147316E+00
 -0.248346636558E+00
 -0.248346660463E+00
 -0.247554383273E+00
 -0.247554517003E+00
 -0.247115407549E+00
 -0.247114956173E+00
  0.383670669019E-01
  0.383672126934E-01
  0.378995532505E-01
  0.378993489287E-01
  0.370559277022E-01
  0.370558672726E-01
  0.385553036008E-01
  0.385553713711E-01
  0.523671727862E-01
  0.523671389599E-01
  0.960903900711E-01
  0.960903839074E-01
  0.186918832800E+00
  0.186918816179E+00
  0.279544634145E+00
  0.279544731703E+00
  0.401893768971E+00
  0.401893698169E+00
  0.642983143707E+00
  0.642982810006E+00
  0.467221920464E+00
  0.467222556540E+00
  0.135300947388E+00
  0.135301033689E+00
 -0.349464757241E-02
 -0.349475554213E-02
 -0.101252109029E+00
 -0.101252091848E+00
 -0.191943936010E+00
 -0.191943930082E+00
 -0.233905597543E+00
 -0.233905564838E+00
 -0.246938144847E+00
 -0.246938209768E+00
 -0.248346658718E+00
 -0.248346601206E+00
 -0.247554513572E+00
 -0.247554320039E+00
 -0.247114953420E+00
 -0.247115091060E+00
  0.383669106206E-01
  0.383670676134E-01
  0.378993999666E-01
  0.378995538906E-01
  0.370557777663E-01
  0.370559278810E-01
  0.385554383319E-01
  0.385553040031E-01
  0.523672073205E-01
  0.523671734877E-01
  0.960903842162E-01
  0.960903680024E-01
  0.186918816323E+00
  0.186918872312E+00
  0.279544734587E+00
  0.279544775556E+00
  0.401893708061E+00
  0.401893287586E+00
  0.642982925483E+00
  0.642983631682E+00
  0.467223346450E+00
  0.467222004375E+00
  0.135300438595E+00
  0.135300950719E+00
 -0.349460229136E-02
 -0.349464760846E-02
 -0.101252051248E+00
 -0.101252109107E+00
 -0.191943952226E+00
 -0.191943936627E+00
 -0.233905567972E+00
 -0.233905535279E+00
 -0.246938212344E+00
 -0.246938083734E+00
 -0.248346602405E+00
 -0.248346745214E+00
 -0.247554324220E+00
 -0.247554469982E+00
 -0.247115095642E+00
 -0.247115243837E+00
  0.383673767960E-01
  0.383669100989E-01
  0.378992390380E-01
  0.378993993705E-01
  0.370558457684E-01
  0.370557774445E-01
  0.385554451689E-01
  0.385554382703E-01
  0.523671694031E-01
  0.523672067936E-01
  0.960903677065E-01
  0.960903878114E-01
  0.186918871990E+00
  0.186918855370E+00
  0.279544771791E+00
  0.279544655584E+00
  0.401893261468E+00
  0.401893227812E+00
  0.642983575223E+00
  0.642983241495E+00
  0.467222669296E+00
  0.467223305424E+00
  0.135300388780E+00
  0.135300429802E+00
 -0.349473085368E-02
 -0.349460224430E-02
 -0.101252068252E+00
 -0.101252051074E+00
 -0.191943932298E+00
 -0.191943951635E+00
 -0.233905532926E+00
 -0.233905569077E+00
 -0.246938083340E+00
 -0.246938076731E+00
 -0.248346743057E+00
 -0.248346678033E+00
 -0.247554466088E+00
 -0.247554617955E+00
 -0.247115240477E+00
 -0.247114799874E+00
  0.383672312568E-01
  0.383673770394E-01
  0.378994563751E-01
  0.378992392476E-01
  0.370559304078E-01
  0.370558462969E-01
  0.385553028001E-01
  0.385554452031E-01
  0.523671679879E-01
  0.523671694122E-01
  0.960903878485E-01
  0.960903534627E-01
  0.186918855624E+00
  0.186918779559E+00
  0.279544661431E+00
  0.279544887470E+00
  0.401893236121E+00
  0.401893476647E+00
  0.642983176742E+00
  0.642982830793E+00
  0.467221956540E+00
  0.467222622244E+00
  0.135300685453E+00
  0.135300391577E+00
 -0.349448034829E-02
 -0.349473092677E-02
 -0.101252147067E+00
 -0.101252068390E+00
 -0.191943965413E+00
 -0.191943932372E+00
 -0.233905569118E+00
 -0.233905570498E+00
 -0.246938076950E+00
 -0.246938213599E+00
 -0.248346681575E+00
 -0.248346601430E+00
 -0.247554619324E+00
 -0.247554413509E+00
 -0.247114801442E+00
 -0.247114939132E+00
  0.383671188862E-01
  0.383672310158E-01
  0.378993406799E-01
  0.378994560793E-01
  0.370560220452E-01
  0.370559300607E-01
  0.385553311767E-01
  0.385553023827E-01
  0.523671665222E-01
  0.523671679488E-01
  0.960903535488E-01
  0.960903554926E-01
  0.186918779115E+00
  0.186918805321E+00
  0.279544886772E+00
  0.279544714759E+00
  0.401893502099E+00
  0.401893741195E+00
  0.642982862404E+00
  0.642983005456E+00
  0.467222259660E+00
  0.467221979510E+00
  0.135300987417E+00
  0.135300694022E+00
 -0.349467159849E-02
 -0.349448033957E-02
 -0.101252119686E+00
 -0.101252146826E+00
 -0.191943963720E+00
 -0.191943965585E+00
 -0.233905570323E+00
 -0.233905571709E+00
 -0.246938210926E+00
 -0.246938183210E+00
 -0.248346599103E+00
 -0.248346511265E+00
 -0.247554411577E+00
 -0.247554521110E+00
 -0.247114937580E+00
 -0.247115043566E+00
  0.383670184459E-01
  0.383671193472E-01
  0.378992449143E-01
  0.378993410722E-01
  0.370559117993E-01
  0.370560223065E-01
  0.385554040630E-01
  0.385553315164E-01
  0.523671834105E-01
  0.523671668799E-01
  0.960903557070E-01
  0.960903576562E-01
  0.186918805741E+00
  0.186918848490E+00
  0.279544710410E+00
  0.279544567229E+00
  0.401893751290E+00
  0.401893933493E+00
  0.642983036733E+00
  0.642983149296E+00
  0.467222509288E+00
  0.467222282388E+00
  0.135301215926E+00
  0.135300990815E+00
 -0.349483149289E-02
 -0.349467154412E-02
 -0.101252075553E+00
 -0.101252119913E+00
 -0.191943962284E+00
 -0.191943964148E+00
 -0.233905573307E+00
 -0.233905557162E+00
 -0.246938185386E+00
 -0.246938115223E+00
 -0.248346513016E+00
 -0.248346618900E+00
 -0.247554523672E+00
 -0.247554615132E+00
 -0.247115046535E+00
 -0.247115142021E+00
  0.383669393442E-01
  0.383670178054E-01
  0.378995131110E-01
  0.378992448948E-01
  0.370558327980E-01
  0.370559116821E-01
  0.385554660604E-01
  0.385554045137E-01
  0.523671113894E-01
  0.523671830963E-01
  0.960903573847E-01
  0.960903957664E-01
  0.186918848619E+00
  0.186918848616E+00
  0.279544562646E+00
  0.279544674041E+00
  0.401893896598E+00
  0.401893382283E+00
  0.642983179967E+00
  0.642983262313E+00
  0.467222705424E+00
  0.467222531575E+00
  0.135300561528E+00
  0.135301203505E+00
 -0.349470612337E-02
 -0.349483143560E-02
 -0.101252075626E+00
 -0.101252075622E+00
 -0.191943925170E+00
 -0.191943961741E+00
 -0.233905555759E+00
 -0.233905626316E+00
 -0.246938118109E+00
 -0.246938058163E+00
 -0.248346618115E+00
 -0.248346694077E+00
 -0.247554615005E+00
 -0.247554359109E+00
 -0.247115137895E+00
 -0.247115212276E+00
  0.383668721284E-01
  0.383669393429E-01
  0.378994489895E-01
  0.378995130361E-01
  0.370560035101E-01
  0.370558328915E-01
  0.385553895217E-01
  0.385554659479E-01
  0.523671636882E-01
  0.523671114321E-01
  0.960903957947E-01
  0.960903592977E-01
  0.186918848748E+00
  0.186918832252E+00
  0.279544685666E+00
  0.279544768378E+00
  0.401893391257E+00
  0.401893496851E+00
  0.642983291018E+00
  0.642983344507E+00
  0.467222848069E+00
  0.467222726283E+00
  0.135300698361E+00
  0.135300564550E+00
 -0.349461227239E-02
 -0.349470626870E-02
 -0.101252092938E+00
 -0.101252075698E+00
 -0.191943959803E+00
 -0.191943925226E+00
 -0.233905626507E+00
 -0.233905574537E+00
 -0.246938057443E+00
 -0.246938132636E+00
 -0.248346694704E+00
 -0.248346529225E+00
 -0.247554358620E+00
 -0.247554419995E+00
 -0.247115212267E+00
 -0.247115276148E+00
  0.383668263750E-01
  0.383668711905E-01
  0.378997489856E-01
  0.378994491541E-01
  0.370559563550E-01
  0.370560035820E-01
  0.385553449590E-01
  0.385553885477E-01
  0.523671270747E-01
  0.523671627556E-01
  0.960903589473E-01
  0.960903974980E-01
  0.186918831430E+00
  0.186918831430E+00
  0.279544757811E+00
  0.279544812151E+00
  0.401893428087E+00
  0.401892870977E+00
  0.642983377595E+00
  0.642983416394E+00
  0.467222972827E+00
  0.467222872113E+00
  0.135299953339E+00
  0.135300675211E+00
 -0.349454947478E-02
 -0.349461214030E-02
 -0.101252092493E+00
 -0.101252092493E+00
 -0.191943922880E+00
 -0.191943959103E+00
 -0.233905570371E+00
 -0.233905606398E+00
 -0.246938126398E+00
 -0.246938169900E+00
 -0.248346529706E+00
 -0.248346575979E+00
 -0.247554421071E+00
 -0.247554131936E+00
 -0.247115270107E+00
 -0.247115312854E+00
  0.383667946615E-01
  0.383668282391E-01
  0.378997188298E-01
  0.378997507855E-01
  0.370559096676E-01
  0.370559568086E-01
  0.385553127219E-01
  0.385553453248E-01
  0.523672166004E-01
  0.523671291532E-01
  0.960903983773E-01
  0.960903800161E-01
  0.186918832414E+00
  0.186918832410E+00
  0.279544830524E+00
  0.279544641447E+00
  0.401892988639E+00
  0.401893652204E+00
  0.642983448148E+00
  0.642983467797E+00
  0.467223062035E+00
  0.467222995901E+00
  0.135300881678E+00
  0.135299992950E+00
 -0.349477241878E-02
 -0.349454970446E-02
 -0.101252093029E+00
 -0.101252093025E+00
 -0.191943941688E+00
 -0.191943924637E+00
 -0.233905615682E+00
 -0.233905525496E+00
 -0.246938172242E+00
 -0.246938205437E+00
 -0.248346579018E+00
 -0.248346625870E+00
 -0.247554143693E+00
 -0.247554174782E+00
 -0.247115324860E+00
 -0.247115357051E+00
  0.383667737979E-01
  0.383667961620E-01
  0.378989903517E-01
  0.378997159736E-01
  0.370558832342E-01
  0.370559067430E-01
  0.385554488264E-01
  0.385553121006E-01
  0.523671802710E-01
  0.523672156158E-01
  0.960903790313E-01
  0.960903421047E-01
  0.186918831657E+00
  0.186918815445E+00
  0.279544624510E+00
  0.279544885367E+00
  0.401893512367E+00
  0.401892983127E+00
  0.642983493701E+00
  0.642983498620E+00
  0.467223115526E+00
  0.467223080858E+00
  0.135300089340E+00
  0.135300834600E+00
 -0.349445536149E-02
 -0.349477220704E-02
 -0.101252110021E+00
 -0.101252092621E+00
 -0.191943973447E+00
 -0.191943939721E+00
 -0.233905521098E+00
 -0.233905558641E+00
 -0.246938201458E+00
 -0.246938058329E+00
 -0.248346606270E+00
 -0.248346630105E+00
 -0.247554156126E+00
 -0.247554870910E+00
 -0.247115366716E+00
 -0.247115388311E+00
  0.384102647518E-01
  0.379468411949E-01
  0.379454288879E-01
  0.371069476452E-01
  0.371075772383E-01
  0.385974368916E-01
  0.385976613439E-01
  0.522797850516E-01
  0.522797388434E-01
  0.950943242244E-01
  0.950942623182E-01
  0.181718615135E+00
  0.181718595153E+00
  0.267218063609E+00
  0.267218215148E+00
  0.377076095798E+00
  0.377076311479E+00
  0.598799651541E+00
  0.435116981026E+00
  0.126946489343E+00
  0.126945310298E+00
 -0.334004111663E-02
 -0.334036372671E-02
 -0.984352461599E-01
 -0.984352119323E-01
 -0.189954482170E+00
 -0.189954391296E+00
 -0.233514988901E+00
 -0.233514954296E+00
 -0.247208419002E+00
 -0.247208582932E+00
 -0.248693080671E+00
 -0.248693511128E+00
 -0.247858205793E+00
 -0.247857351959E+00
 -0.247395507875E+00
  0.169063166030E-01
  0.164275488322E-01
  0.164254078152E-01
  0.155559916119E-01
  0.155550577132E-01
  0.170992247054E-01
  0.170993620866E-01
  0.311906840347E-01
  0.311912313578E-01
  0.743726072740E-01
  0.743728120169E-01
  0.157824952458E+00
  0.157824894599E+00
  0.235899061516E+00
  0.235898965863E+00
  0.332066066295E+00
  0.332066059920E+00
  0.531311442658E+00
  0.405970095647E+00
  0.135897022590E+00
  0.135896686613E+00
  0.169286828838E-01
  0.169292489589E-01
 -0.756559008946E-01
 -0.756556259420E-01
 -0.171068378912E+00
 -0.171069421768E+00
 -0.219071955338E+00
 -0.219072085060E+00
 -0.234538712432E+00
 -0.234538732979E+00
 -0.236227710424E+00
 -0.236227669392E+00
 -0.235276857617E+00
 -0.235277066484E+00
 -0.234753323278E+00
 -0.248820543585E-01
 -0.253919747152E-01
 -0.253802308450E-01
 -0.262983772293E-01
 -0.263039141173E-01
 -0.246708011728E-01
 -0.246713849658E-01
 -0.984119842891E-02
 -0.984236940317E-02
  0.348682456697E-01
  0.348682440653E-01
  0.118504291663E+00
  0.118504370415E+00
  0.194194590317E+00
  0.194194470678E+00
  0.285539956926E+00
  0.285540089414E+00
  0.479772855207E+00
  0.400409843747E+00
  0.159697467553E+00
  0.159699882286E+00
  0.510093511111E-01
  0.510117143909E-01
 -0.372182403528E-01
 -0.372197914536E-01
 -0.132899892826E+00
 -0.132899107145E+00
 -0.183288608533E+00
 -0.183288614299E+00
 -0.199886268293E+00
 -0.199886329212E+00
 -0.201710555079E+00
 -0.201711727739E+00
 -0.200686226417E+00
 -0.200682156796E+00
 -0.200112537786E+00
 -0.828749403933E-01
 -0.834212886078E-01
 -0.834230020223E-01
 -0.844071927170E-01
 -0.844035881502E-01
 -0.826551097450E-01
 -0.826516740212E-01
 -0.667904492711E-01
 -0.667895796557E-01
 -0.194031859216E-01
 -0.194032249585E-01
  0.677484643407E-01
  0.677484260790E-01
  0.145407943766E+00
  0.145408048803E+00
  0.238432938063E+00
  0.238432935484E+00
  0.439595576923E+00
  0.412365463466E+00
  0.195005746537E+00
  0.195007472203E+00
  0.955343942099E-01
  0.955320671065E-01
  0.129453233896E-01
  0.129476090674E-01
 -0.792553015438E-01
 -0.792561744130E-01
 -0.129178288813E+00
 -0.129178190407E+00
 -0.145854931189E+00
 -0.145854180107E+00
 -0.147691518492E+00
 -0.147690344869E+00
 -0.146656151844E+00
 -0.146656934115E+00
 -0.146082786347E+00
SCALARS inclination float 1
LOOKUP_TABLE default
  0.100000000000E+01
  0.100000000000E+01
  0.100000000000E+01
  0.100000000000E+01
  0.100000000000E+01
  0.100000000000E+01
  0.100000000000E+01
  0.100000000000E+01
  0.100000000000E+01
  0.100000000000E+01
  0.100000000000E+01
  0.100000000000E+01
  0.100000000000E+01
  0.100000000000E+01
  0.100000000000E+01
  0.100000000000E+01
  0.100000000000E+01
  0.100000000000E+01
  0.100000000000E+01
  0.100000000000E+01
  0.100000000000E+01
  0.100000000000E+01
  0.100000000000E+01
  0.100000000000E+01
  0.100000000000E+01
  0.100000000000E+01
  0.100000000000E+01
  0.100000000000E+01
  0.100000000000E+01
  0.100000000000E+01
  0.100000000000E+01
  0.100000000000E+01
  0.100000000000E+01
  0.100000000000E+01
  0.100000000000E+01
  0.100000000000E+01
  0.100000000000E+01
  0.100000000000E+01
  0.100000000000E+01
  0.100000000000E+01
  0.100000000000E+01
  0.100000000000E+01