# vtk DataFile Version 3.0
TriPan results file. Generated by TriPan, USU AeroLab (c) 2021.
ASCII
DATASET POLYDATA
POINTS                 144 float
  0.000000000000E+00  0.000000000000E+00  0.000000000000E+00
  0.113538098335E+01  0.000000000000E+00 -0.658124566078E+00
  0.113538098335E+01  0.000000000000E+00  0.658124566078E+00
  0.192375373840E+01  0.192375373840E+01  0.000000000000E+00
  0.305913543701E+01  0.192375373840E+01 -0.658124983311E+00
  0.305913543701E+01  0.192375373840E+01  0.658124983311E+00
  0.423028087616E+01  0.000000000000E+00 -0.108747220039E+01
  0.423028087616E+01  0.000000000000E+00  0.108747220039E+01
  0.547033166885E+01  0.547033166885E+01  0.000000000000E+00
  0.615403699875E+01  0.192375373840E+01 -0.108747279644E+01
  0.615403699875E+01  0.192375373840E+01  0.108747279644E+01
  0.660571479797E+01  0.547033166885E+01 -0.658125698566E+00
  0.660571479797E+01  0.547033166885E+01  0.658125698566E+00
  0.939508819580E+01  0.000000000000E+00 -0.980745851994E+00
  0.939508819580E+01  0.000000000000E+00  0.980745851994E+00
  0.970061969757E+01  0.547033166885E+01 -0.108747410774E+01
  0.970061969757E+01  0.547033166885E+01  0.108747410774E+01
  0.113188476562E+02  0.192375373840E+01 -0.980746448040E+00
  0.113188476562E+02  0.192375373840E+01  0.980746448040E+00
  0.113820018768E+02  0.113820018768E+02  0.000000000000E+00
  0.125173873901E+02  0.113820018768E+02 -0.658127009869E+00
  0.125173873901E+02  0.113820018768E+02  0.658127009869E+00
  0.145402030945E+02  0.000000000000E+00 -0.479613035917E+00
  0.145402030945E+02  0.000000000000E+00  0.479613035917E+00
  0.148654365540E+02  0.547033166885E+01 -0.980747580528E+00
  0.148654365540E+02  0.547033166885E+01  0.980747580528E+00
  0.156122989655E+02  0.113820018768E+02 -0.108747613430E+01
  0.156122989655E+02  0.113820018768E+02  0.108747613430E+01
  0.164639663696E+02  0.192375373840E+01 -0.479613333941E+00
  0.164639663696E+02  0.192375373840E+01  0.479613333941E+00
  0.176505107880E+02  0.000000000000E+00 -0.144198849797E+00
  0.176505107880E+02  0.000000000000E+00  0.144198849797E+00
  0.190000000000E+02  0.000000000000E+00  0.000000000000E+00
  0.195742740631E+02  0.192375373840E+01 -0.144198939204E+00
  0.195742740631E+02  0.192375373840E+01  0.144198939204E+00
  0.197561950684E+02  0.197561950684E+02  0.000000000000E+00
  0.200105609894E+02  0.547033166885E+01 -0.479613870382E+00
  0.200105609894E+02  0.547033166885E+01  0.479613870382E+00
  0.207771244049E+02  0.113820018768E+02 -0.980749428272E+00
  0.207771244049E+02  0.113820018768E+02  0.980749428272E+00
  0.208915824890E+02  0.197561950684E+02 -0.658128738403E+00
  0.208915824890E+02  0.197561950684E+02  0.658128738403E+00
  0.209237651825E+02  0.192375373840E+01  0.000000000000E+00
  0.231208724976E+02  0.547033166885E+01 -0.144199103117E+00
  0.231208724976E+02  0.547033166885E+01  0.144199103117E+00
  0.239865016937E+02  0.197561950684E+02 -0.108747911453E+01
  0.239865016937E+02  0.197561950684E+02  0.108747911453E+01
  0.244703655243E+02  0.547033166885E+01  0.000000000000E+00
  0.259222583771E+02  0.113820018768E+02 -0.479614794254E+00
  0.259222583771E+02  0.113820018768E+02  0.479614794254E+00
  0.290325775146E+02  0.113820018768E+02 -0.144199386239E+00
  0.290325775146E+02  0.113820018768E+02  0.144199386239E+00
  0.291513423920E+02  0.197561950684E+02 -0.980752110481E+00
  0.291513423920E+02  0.197561950684E+02  0.980752110481E+00
  0.292438049316E+02  0.292438049316E+02  0.000000000000E+00
  0.303791980743E+02  0.292438049316E+02 -0.658130764961E+00
  0.303791980743E+02  0.292438049316E+02  0.658130764961E+00
  0.303820724487E+02  0.113820018768E+02  0.000000000000E+00
  0.334741249084E+02  0.292438049316E+02 -0.108748245239E+01
  0.334741249084E+02  0.292438049316E+02  0.108748245239E+01
  0.342964897156E+02  0.197561950684E+02 -0.479616105556E+00
  0.342964897156E+02  0.197561950684E+02  0.479616105556E+00
  0.374068183899E+02  0.197561950684E+02 -0.144199773669E+00
  0.374068183899E+02  0.197561950684E+02  0.144199773669E+00
  0.376179962158E+02  0.376179962158E+02  0.000000000000E+00
  0.386389808655E+02  0.292438049316E+02 -0.980755090714E+00
  0.386389808655E+02  0.292438049316E+02  0.980755090714E+00
  0.387533912659E+02  0.376179962158E+02 -0.658132553101E+00
  0.387533912659E+02  0.376179962158E+02  0.658132553101E+00
  0.387563171387E+02  0.197561950684E+02  0.000000000000E+00
  0.418483314514E+02  0.376179962158E+02 -0.108748543262E+01
  0.418483314514E+02  0.376179962158E+02  0.108748543262E+01
  0.435296669006E+02  0.435296669006E+02  0.000000000000E+00
  0.437841453552E+02  0.292438049316E+02 -0.479617565870E+00
  0.437841453552E+02  0.292438049316E+02  0.479617565870E+00
  0.446650657654E+02  0.435296669006E+02 -0.658133804798E+00
  0.446650657654E+02  0.435296669006E+02  0.658133804798E+00
  0.468944816589E+02  0.292438049316E+02 -0.144200220704E+00
  0.468944816589E+02  0.292438049316E+02  0.144200220704E+00
  0.470131988525E+02  0.376179962158E+02 -0.980757772923E+00
  0.470131988525E+02  0.376179962158E+02  0.980757772923E+00
  0.470762481689E+02  0.470762481689E+02  0.000000000000E+00
  0.477600097656E+02  0.435296669006E+02 -0.108748745918E+01
  0.477600097656E+02  0.435296669006E+02  0.108748745918E+01
  0.482116432190E+02  0.470762481689E+02 -0.658134579659E+00
  0.482116432190E+02  0.470762481689E+02  0.658134579659E+00
  0.482439842224E+02  0.292438049316E+02  0.000000000000E+00
  0.490000000000E+02  0.490000000000E+02  0.000000000000E+00
  0.501353988647E+02  0.490000000000E+02 -0.658134996891E+00
  0.501353988647E+02  0.490000000000E+02  0.658134996891E+00
  0.506007728577E+02  0.494653701782E+02 -0.465371757746E+00
  0.506007728577E+02  0.494653701782E+02  0.465371757746E+00
  0.507935333252E+02  0.496581344604E+02 -0.771266485397E-15
  0.513065910339E+02  0.470762481689E+02 -0.108748877048E+01
  0.513065910339E+02  0.470762481689E+02  0.108748877048E+01
  0.521583786011E+02  0.376179962158E+02 -0.479618877172E+00
  0.521583786011E+02  0.376179962158E+02  0.479618877172E+00
  0.529248886108E+02  0.435296669006E+02 -0.980759620667E+00
  0.529248886108E+02  0.435296669006E+02  0.980759620667E+00
  0.532303466797E+02  0.490000000000E+02 -0.108748936653E+01
  0.532303466797E+02  0.490000000000E+02  0.108748936653E+01
  0.539993209839E+02  0.497689704895E+02 -0.768971264362E+00
  0.539993209839E+02  0.497689704895E+02  0.768971264362E+00
  0.543178405762E+02  0.500874900818E+02 -0.157378642191E-15
  0.552687225342E+02  0.376179962158E+02 -0.144200608134E+00
  0.552687225342E+02  0.376179962158E+02  0.144200608134E+00
  0.564714775085E+02  0.470762481689E+02 -0.980760753155E+00
  0.564714775085E+02  0.470762481689E+02  0.980760753155E+00
  0.566182289124E+02  0.376179962158E+02  0.000000000000E+00
  0.580700759888E+02  0.435296669006E+02 -0.479619771242E+00
  0.580700759888E+02  0.435296669006E+02  0.479619771242E+00
  0.583952369690E+02  0.490000000000E+02 -0.980761349201E+00
  0.583952369690E+02  0.490000000000E+02  0.980761349201E+00
  0.590887413025E+02  0.496935043335E+02 -0.693503141403E+00
  0.590887413025E+02  0.496935043335E+02  0.693503141403E+00
  0.593759994507E+02  0.499807624817E+02  0.000000000000E+00
  0.611804275513E+02  0.435296669006E+02 -0.144200876355E+00
  0.611804275513E+02  0.435296669006E+02  0.144200876355E+00
  0.616166725159E+02  0.470762481689E+02 -0.479620337486E+00
  0.616166725159E+02  0.470762481689E+02  0.479620337486E+00
  0.625299339294E+02  0.435296669006E+02  0.000000000000E+00
  0.635404319763E+02  0.490000000000E+02 -0.479620635509E+00
  0.635404319763E+02  0.490000000000E+02  0.479620635509E+00
  0.638795776367E+02  0.493391418457E+02 -0.339143037796E+00
  0.638795776367E+02  0.493391418457E+02  0.339143037796E+00
  0.640200576782E+02  0.494796218872E+02  0.296956834055E-15
  0.647270278931E+02  0.470762481689E+02 -0.144201040268E+00
  0.647270278931E+02  0.470762481689E+02  0.144201040268E+00
  0.660765380859E+02  0.470762481689E+02  0.000000000000E+00
  0.666507873535E+02  0.490000000000E+02 -0.144201144576E+00
  0.666507873535E+02  0.490000000000E+02  0.144201144576E+00
  0.667527542114E+02  0.491019668579E+02 -0.101965606213E+00
  0.667527542114E+02  0.491019668579E+02  0.101965606213E+00
  0.667949905396E+02  0.491441993713E+02 -0.260488604752E-16
  0.680002975464E+02  0.490000000000E+02  0.000000000000E+00
  0.209237651825E+02  0.192375373840E+01  0.000000000000E+00
  0.190000000000E+02  0.000000000000E+00  0.000000000000E+00
  0.244703655243E+02  0.547033166885E+01  0.000000000000E+00
  0.303820724487E+02  0.113820018768E+02  0.000000000000E+00
  0.387563171387E+02  0.197561950684E+02  0.000000000000E+00
  0.482439842224E+02  0.292438049316E+02  0.000000000000E+00
  0.566182289124E+02  0.376179962158E+02  0.000000000000E+00
  0.625299339294E+02  0.435296669006E+02  0.000000000000E+00
  0.660765380859E+02  0.470762481689E+02  0.000000000000E+00
POLYGONS                 256                1024
3                  32                  33                  42
3                  32                  30                  33
3                  30                  28                  33
3                  30                  22                  28
3                  22                  17                  28
3                  22                  13                  17
3                  13                   6                  17
3                  17                   6                   9
3                   6                   1                   9
3                   9                   1                   4
3                   1                   0                   4
3                   4                   0                   3
3                   0                   5                   3
3                   0                   2                   5
3                   2                  10                   5
3                   2                   7                  10
[...]
CELL_DATA                 256
SCALARS sigma float 1
LOOKUP_TABLE default
  0.381875471310E-01
  0.381874637437E-01
  0.372158060763E-01
  0.372158717888E-01
  0.475279002872E-01
  0.475278863219E-01
  0.123855615697E+00
  0.123855629065E+00
  0.276362158301E+00
  0.276362144032E+00
  0.555224557755E+00
  0.555224558374E+00
  0.331945202977E+00
  0.331945201894E+00
 -0.694932886560E-02
 -0.694931227114E-02
 -0.164733567771E+00
 -0.164733580767E+00
 -0.238483938016E+00
 -0.238483923787E+00
 -0.248196423050E+00
 -0.248196487989E+00
 -0.247283847694E+00
 -0.247283767590E+00
  0.381875761305E-01
  0.381875470181E-01
  0.372158180447E-01
  0.372158057718E-01
  0.475278929685E-01
  0.475279003655E-01
  0.123855628943E+00
  0.123855619144E+00
  0.276362144693E+00
  0.276362181862E+00
  0.555224552190E+00
  0.555224520210E+00
  0.331945149277E+00
  0.331945199280E+00
 -0.694928704184E-02
 -0.694932888223E-02
 -0.164733577206E+00
 -0.164733567609E+00
 -0.238483924180E+00
 -0.238483931464E+00
 -0.248196485958E+00
 -0.248196474107E+00
 -0.247283766858E+00
 -0.247283739174E+00
  0.381875182074E-01
  0.381875761231E-01
  0.372158756892E-01
  0.372158181137E-01
  0.475278939569E-01
  0.475278929974E-01
  0.123855619203E+00
  0.123855618923E+00
  0.276362181289E+00
  0.276362121480E+00
  0.555224517908E+00
  0.555224496533E+00
  0.331945115961E+00
  0.331945147901E+00
 -0.694935334343E-02
 -0.694928702743E-02
 -0.164733577561E+00
 -0.164733577285E+00
 -0.238483931609E+00
 -0.238483930680E+00
 -0.248196474567E+00
 -0.248196419585E+00
 -0.247283739126E+00
 -0.247283793937E+00
  0.381875329890E-01
  0.381875182431E-01
  0.372159089299E-01
  0.372158758266E-01
  0.475278804208E-01
  0.475278939360E-01
  0.123855618905E+00
  0.123855622238E+00
  0.276362122663E+00
  0.276362177846E+00
  0.555224510853E+00
  0.555224705190E+00
  0.331945409562E+00
  0.331945124522E+00
 -0.694929258802E-02
 -0.694935337317E-02
 -0.164733574256E+00
 -0.164733577537E+00
 -0.238483930575E+00
 -0.238483943571E+00
 -0.248196420502E+00
 -0.248196389046E+00
 -0.247283794168E+00
 -0.247283780242E+00
  0.381875042278E-01
  0.381875330230E-01
  0.372158485516E-01
  0.372159088753E-01
  0.475279095520E-01
  0.475278803865E-01
  0.123855622246E+00
  0.123855614089E+00
  0.276362177174E+00
  0.276362249500E+00
  0.555224679013E+00
  0.555224273029E+00
  0.331944801470E+00
  0.331945393912E+00
 -0.694921305052E-02
 -0.694929257110E-02
 -0.164733582299E+00
 -0.164733574266E+00
 -0.238483943399E+00
 -0.238483915411E+00
 -0.248196388682E+00
 -0.248196445924E+00
 -0.247283780462E+00
 -0.247283807639E+00
  0.381875188356E-01
  0.381875040897E-01
  0.372158163731E-01
  0.372158483837E-01
  0.475279316295E-01
  0.475279095202E-01
  0.123855614075E+00
  0.123855602210E+00
  0.276362248510E+00
  0.276362060061E+00
  0.555224288718E+00
  0.555224501631E+00
  0.331945123134E+00
  0.331944810849E+00
 -0.694942060176E-02
 -0.694921302561E-02
 -0.164733593960E+00
 -0.164733582281E+00
 -0.238483915251E+00
 -0.238483893991E+00
 -0.248196444805E+00
 -0.248196475223E+00
 -0.247283806745E+00
 -0.247283792820E+00
  0.381873230197E-01
  0.381875188976E-01
  0.372158788480E-01
  0.372158165556E-01
  0.475278913817E-01
  0.475279317105E-01
  0.123855602247E+00
  0.123855613372E+00
  0.276362059391E+00
  0.276362129070E+00
  0.555224470389E+00
  0.555224180258E+00
  0.331944670932E+00
  0.331945104456E+00
 -0.694934332510E-02
 -0.694942058490E-02
 -0.164733583075E+00
 -0.164733594009E+00
 -0.238483894397E+00
 -0.238483933462E+00
 -0.248196476440E+00
 -0.248196416954E+00
 -0.247283793221E+00
 -0.247283978596E+00
  0.381875008754E-01
  0.381873230184E-01
  0.372158818937E-01
  0.372158790364E-01
  0.475279254459E-01
  0.475278916650E-01
  0.123855613387E+00
  0.123855609299E+00
  0.276362138208E+00
  0.276362140230E+00
  0.555224342323E+00
  0.555225180403E+00
  0.331946078233E+00
  0.331944767823E+00
 -0.694934127859E-02
 -0.694934355488E-02
 -0.164733587098E+00
 -0.164733583094E+00
 -0.238483934883E+00
 -0.238483901618E+00
 -0.248196418210E+00
 -0.248196415451E+00
 -0.247283978588E+00
 -0.247283809453E+00
  0.381874257019E-01
  0.381875017195E-01
  0.372158210472E-01
  0.372158820647E-01
  0.475278683084E-01
  0.475279249125E-01
  0.123855609243E+00
  0.123855624521E+00
  0.276362127938E+00
  0.276362176340E+00
  0.555225000907E+00
  0.555224579556E+00
  0.331945232782E+00
  0.331945970920E+00
 -0.694928467761E-02
 -0.694934096950E-02
 -0.164733572171E+00
 -0.164733587023E+00
 -0.238483898942E+00
 -0.238483956614E+00
 -0.248196416591E+00
 -0.248196476891E+00
 -0.247283814920E+00
 -0.247283887945E+00
  0.367255649770E-01
  0.358054467293E-01
  0.358048682687E-01
  0.455401706772E-01
  0.455403391440E-01
  0.115279565948E+00
  0.115279647013E+00
  0.244665984397E+00
  0.244666113003E+00
  0.470965012374E+00
  0.281570010444E+00
 -0.615191598165E-02
 -0.615226583834E-02
 -0.153326840660E+00
 -0.153327027097E+00
 -0.228510990523E+00
 -0.228511072648E+00
 -0.238786674854E+00
 -0.238786462187E+00
 -0.237817562393E+00
 -0.463939710762E-01
 -0.474178550335E-01
 -0.474113195157E-01
 -0.366620937610E-01
 -0.366637836064E-01
  0.369964682107E-01
  0.369964446522E-01
  0.161580044405E+00
  0.161579999546E+00
  0.365504139759E+00
  0.296491476355E+00
  0.635268601300E-01
  0.635272638088E-01
 -0.754487654574E-01
 -0.754482484197E-01
 -0.156507456612E+00
 -0.156507500147E+00
 -0.168268004044E+00
 -0.168266778384E+00
 -0.167147317629E+00
SCALARS inclination float 1
LOOKUP_TABLE default
  0.100000000000E+01
  0.100000000000E+01
  0.100000000000E+01
  0.100000000000E+01
  0.100000000000E+01
  0.100000000000E+01
  0.100000000000E+01
  0.100000000000E+01
  0.100000000000E+01
  0.100000000000E+01
  0.100000000000E+01
  0.100000000000E+01
  0.100000000000E+01
  0.100000000000E+01
  0.100000000000E+01
  0.100000000000E+01
  0.100000000000E+01
  0.100000000000E+01
  0.100000000000E+01
  0.100000000000E+01
  0.100000000000E+01
  0.100000000000E+01
  0.100000000000E+01
  0.100000000000E+01
  0.100000000000E+01
  0.100000000000E+01
  0.100000000000E+01
  0.100000000000E+01
  0.100000000000E+01
  0.100000000000E+01
  0.100000000000E+01
  0.100000000000E+01
  0.100000000000E+01
  0.100000000000E+01
  0.100000000000E+01
  0.100000000000E+01
  0.100000000000E+01
  0.100000000000E+01
  0.100000000000E+01
  0.100000000000E+01
  0.100000000000E+01
  0.100000000000E+01
  0.100000000000E+01
  0.100000000000E+01
  0.100000000000E+01
  0.100000000000E+01
  0.100000000000E+01
  0.100000000000E+01
  0.100000000000E+01
  0.100000000000E+01
  0.100000000000E+01
  0.100000000000E+01
  0.100000000000E+01
  0.100000000000E+01
  0.100000000000E+01
  0.100000000000E+01
  0.100000000000E+01
  0.100000000000E+01
  0.100000000000E+01
  0.100000000000E+01
  0.100000000000E+01
  0.100000000000E+01
  0.100000000000E+01
  0.100000000000E+01
  0.100000000000E+01
  0.100000000000E+01
  0.100000000000E+01
  0.100000000000E+01
  0.100000000000E+01
  0.100000000000E+01
  0.100000000000E+01
  0.100000000000E+01
  0.100000000000E+01
  0.100000000000E+01
  0.100000000000E+01
  0.100000000000E+01
  0.100000000000E+01
  0.100000000000E+01
  0.100000000000E+01
  0.100000000000E+01
  0.100000000000E+01
  0.100000000000E+01
  0.100000000000E+01
  0.100000000000E+01
  0.100000000000E+01
  0.100000000000E+01
  0.100000000000E+01
  0.100000000000E+01
  0.100000000000E+01
  0.100000000000E+01
  0.100000000000E+01
  0.100000000000E+01
  0.100000000000E+01
  0.100000000000E+01
  0.100000000000E+01
  0.100000000000E+01
  0.100000000000E+01
  0.100000000000E+01
  0.100000000000E+01
  0.100000000000E+01
  0.100000000000E+01
  0.100000000000E+01
  0.100000000000E+01
  0.100000000000E+01
  0.100000000000E+01
  0.100000000000E+01
  0.100000000000E+01
  0.100000000000E+01
  0.100000000000E+01
  0.100000000000E+01
  0.100000000000E+01
  0.100000000000E+01
  0.100000000000E+01
  0.100000000000E+01
  0.100000000000E+01
  0.100000000000E+01
  0.100000000000E+01
  0.100000000000E+01
  0.100000000000E+01
  0.100000000000E+01
  0.100000000000E+01
  0.100000000000E+01
  0.100000000000E+01
  0.100000000000E+01
  0.100000000000E+01
  0.100000000000E+01
  0.100000000000E+01
  0.100000000000E+01
  0.100000000000E+01
  0.100000000000E+01
  0.100000000000E+01
  0.100000000000E+01
  0.100000000000E+01
  0.100000000000E+01
  0.100000000000E+01
  0.100000000000E+01
  0.100000000000E+01
  0.100000000000E+01
  0.100000000000E+01
  0.100000000000E+01
  0.100000000000E+01
  0.100000000000E+01
  0.100000000000E+01
  0.100000000000E+01
  0.100000000000E+01
  0.100000000000E+01
  0.100000000000E+01
  0.100000000000E+01
  0.100000000000E+01
  0.100000000000E+01
  0.100000000000E+01
  0.100000000000E+01
  0.100000000000E+01
  0.100000000000E+01
  0.100000000000E+01
  0.100000000000E+01
  0.100000000000E+01
  0.100000000000E+01
  0.100000000000E+01
  0.100000000000E+01
  0.100000000000E+01
  0.100000000000E+01
  0.100000000000E+01
  0.100000000000E+01
  0.100000000000E+01
  0.100000000000E+01
  0.100000000000E+01
  0.100000000000E+01
  0.100000000000E+01
  0.100000000000E+01
  0.100000000000E+01
  0.100000000000E+01
  0.100000000000E+01
  0.100000000000E+01
  0.100000000000E+01
  0.100000000000E+01
  0.100000000000E+01
  0.100000000000E+01
  0.100000000000E+01
  0.100000000000E+01
  0.100000000000E+01
  0.100000000000E+01
  0.100000000000E+01
  0.100000000000E+01
  0.100000000000E+01
  0.100000000000E+01
  0.100000000000E+01
  0.100000000000E+01
  0.100000000000E+01
  0.100000000000E+01
  0.100000000000E+01
  0.100000000000E+01
  0.100000000000E+01
  0.100000000000E+01
  0.100000000000E+01
  0.100000000000E+01
  0.100000000000E+01
  0.100000000000E+01
  0.100000000000E+01
  0.100000000000E+01
  0.100000000000E+01
  0.100000000000E+01
  0.100000000000E+01
  0.100000000000E+01
  0.100000000000E+01
  0.100000000000E+01
  0.100000000000E+01
  0.100000000000E+01
  0.100000000000E+01
  0.100000000000E+01
  0.100000000000E+01
  0.100000000000E+01
  0.100000000000E+01
  0.100000000000E+01
  0.100000000000E+01
  0.100000000000E+01
  0.100000000000E+01
  0.100000000000E+01
  0.100000000000E+01
  0.100000000000E+01
  0.100000000000E+01
  0.100000000000E+01
  0.100000000000E+01
  0.100000000000E+01
  0.100000000000E+01
  0.100000000000E+01
  0.100000000000E+01
  0.100000000000E+01
  0.100000000000E+01
  0.100000000000E+01
  0.100000000000E+01
  0.100000000000E+01
  0.100000000000E+01
  0.100000000000E+01
  0.100000000000E+01
  0.100000000000E+01
  0.100000000000E+01
  0.100000000000E+01
  0.100000000000E+01
  0.100000000000E+01
  0.100000000000E+01
  0.100000000000E+01
  0.100000000000E+01
  0.100000000000E+01
  0.100000000000E+01
  0.100000000000E+01
  0.100000000000E+01
  0.100000000000E+01
  0.100000000000E+01
  0.100000000000E+01
  0.100000000000E+01
  0.100000000000E+01
  0.100000000000E+01
  0.100000000000E+01
  0.100000000000E+01
  0.100000000000E+01
VECTORS v float
  0.150867962771E+03  0.327727570538E+01  0.157706985945E+02
  0.152780955955E+03  0.272595275204E+01  0.160340346230E+02
  0.156015738980E+03 -0.508846269737E+00  0.168795518374E+02
  0.157633988381E+03  0.500710212902E+00  0.169451818692E+02
  0.160618968128E+03 -0.248428449529E+01  0.158862124689E+02
  0.161761766307E+03 -0.589724947984E+00  0.158129922126E+02
  0.159211812709E+03  0.196023234231E+01  0.324946937112E+01
  0.161010656541E+03 -0.467774367366E+01  0.342380915860E+01
  0.140005261871E+03  0.163276706519E+02 -0.171574816683E+02
  0.146675683482E+03 -0.184313340432E+01 -0.206036369894E+02
  0.829723033070E+02  0.618602722708E+02 -0.122376070804E+02
  0.836698589528E+02  0.603041108966E+02 -0.135439760640E+02
  0.166558242805E+03 -0.225842729555E+02  0.109636622803E+03
  0.143810348878E+03  0.281634982034E+02  0.670347967587E+02
  0.204154957831E+03 -0.321811257574E+02  0.327862977752E+02
  0.194466062787E+03 -0.578773987389E+01  0.277807027503E+02
  0.196881750099E+03 -0.820342025928E+01 -0.423791054650E+01
  0.197483626822E+03 -0.104244266459E+02 -0.429624688131E+01
  0.187338983333E+03 -0.279748651256E+00 -0.182740145210E+02
  0.182788206083E+03 -0.782413992134E+01 -0.185655938247E+02
  0.173725671157E+03  0.123843993609E+01 -0.186009447686E+02
  0.167664259671E+03 -0.254301983394E+01 -0.183550895464E+02
  0.160955921547E+03  0.416535147158E+01 -0.167537586992E+02
  0.153816029675E+03  0.622306459890E+01 -0.157709401372E+02
  0.151173608109E+03  0.662885757512E+01  0.154452204899E+02
  0.150907637893E+03  0.679176319454E+01  0.153993974984E+02
  0.155797067250E+03  0.190230562478E+01  0.165959491696E+02
  0.156043141099E+03  0.187482465836E+01  0.166254511775E+02
  0.159938319501E+03 -0.202037220287E+01  0.157747334238E+02
  0.160626290070E+03 -0.170515705524E+01  0.158110383044E+02
  0.161011760798E+03 -0.209063294755E+01  0.337037080199E+01
  0.161381313173E+03 -0.299915302292E+01  0.339678306973E+01
  0.146926784722E+03  0.114553866575E+02 -0.187936042022E+02
  0.146766950494E+03  0.117625416841E+02 -0.187288253885E+02
  0.865948728582E+02  0.719346456534E+02 -0.849781106419E+01
  0.814112525045E+02  0.802272790739E+02 -0.686291103962E+00
  0.182587762919E+03 -0.209492313408E+02  0.117980374286E+03
  0.171450394300E+03 -0.313193534298E+01  0.101196798431E+03
  0.210646759795E+03 -0.423283033169E+02  0.350945910591E+02
  0.204197379643E+03 -0.299344371553E+02  0.324805052914E+02
  0.196631175774E+03 -0.223682094301E+02 -0.452544406096E+01
  0.196875447779E+03 -0.229687358946E+02 -0.454289885103E+01
  0.182778362448E+03 -0.887160246069E+01 -0.186666581289E+02
  0.178743146201E+03 -0.107204632842E+02 -0.184537101823E+02
  0.167697235474E+03  0.325499360175E+00 -0.180493039371E+02
  0.164111864322E+03  0.725907895475E+00 -0.176194766643E+02
  0.153869597988E+03  0.109682333358E+02 -0.152696190953E+02
  0.152436449192E+03  0.118460297176E+02 -0.150226797765E+02
  0.151250422753E+03  0.795024899904E+01  0.153122397579E+02
  0.151189056747E+03  0.799732412084E+01  0.153006437994E+02
  0.155966741607E+03  0.321961118536E+01  0.164721792106E+02
  0.155813032184E+03  0.329107284032E+01  0.164479058404E+02
  0.159770942087E+03 -0.666855387157E+00  0.156265977576E+02
  0.159950835754E+03 -0.688517922903E+00  0.156462294452E+02
  0.161381688691E+03 -0.211937896439E+01  0.337861065120E+01
  0.160568263449E+03 -0.594418120605E+00  0.333028937571E+01
  0.146793717512E+03  0.131801414308E+02 -0.185358786478E+02
  0.144611332322E+03  0.165611162318E+02 -0.177640799499E+02
  0.813175969341E+02  0.798548808987E+02 -0.847863512988E+00
  0.761075644251E+02  0.868533668037E+02  0.622881189275E+01
  0.189976644570E+03 -0.270157133411E+02  0.125779772600E+03
  0.183313166242E+03 -0.180648571125E+02  0.116728925366E+03
  0.213904728910E+03 -0.486564143057E+02  0.364244241638E+02
  0.210623262489E+03 -0.435727332793E+02  0.352639684850E+02
  0.195933095122E+03 -0.288825297180E+02 -0.464563367070E+01
  0.196627839327E+03 -0.301849944742E+02 -0.468690470427E+01
  0.178728438263E+03 -0.122855356402E+02 -0.186047161278E+02
  0.176861803062E+03 -0.120607580024E+02 -0.184010127811E+02
  0.164111447578E+03  0.689655981804E+00 -0.176233411512E+02
  0.162945939989E+03  0.123151232006E+01 -0.174392098447E+02
  0.152435277472E+03  0.117422366103E+02 -0.150336453592E+02
  0.151797353398E+03  0.122316036171E+02 -0.149131975195E+02
  0.151443105479E+03  0.913730830680E+01  0.152059834509E+02
  0.151265498628E+03  0.928569517153E+01  0.151711516622E+02
  0.156238296359E+03  0.431286918076E+01  0.163835613476E+02
  0.155981146895E+03  0.447270916289E+01  0.163385984527E+02
  0.159872011398E+03  0.581826807527E+00  0.155148220083E+02
  0.159782992579E+03  0.615437509726E+00  0.155028757192E+02
  0.160568444596E+03 -0.170020734196E+00  0.332152315174E+01
  0.160105866347E+03  0.578175197547E+00  0.329650271921E+01
  0.144602281297E+03  0.160817703846E+02 -0.178293231768E+02
  0.142836017864E+03  0.185307881959E+02 -0.172445558699E+02
  0.757872186125E+02  0.855796074494E+02  0.567615869757E+01
  0.724178227485E+02  0.897492735494E+02  0.100461971336E+02
  0.193189666903E+03 -0.310225706056E+02  0.129964903899E+03
  0.189970757692E+03 -0.270391244215E+02  0.125789928505E+03
  0.215199326144E+03 -0.522676803131E+02  0.371050175948E+02
  0.213871310072E+03 -0.504263144733E+02  0.366653198445E+02
  0.195773118928E+03 -0.323280879932E+02 -0.471352810425E+01
  0.195931515088E+03 -0.325842854403E+02 -0.472209625514E+01
  0.176848268427E+03 -0.135009778491E+02 -0.185399724606E+02
  0.176267044589E+03 -0.132815250369E+02 -0.184619891263E+02
  0.162932394239E+03  0.531859158910E-01 -0.175648200698E+02
  0.162317242808E+03  0.435553470053E+00 -0.174572423781E+02
  0.151783108268E+03  0.109697478805E+02 -0.150465110591E+02
  0.151209596929E+03  0.114489046316E+02 -0.149340264764E+02
  0.152253396099E+03  0.103054312524E+02  0.151677510296E+02
  0.151463910455E+03  0.109802482921E+02  0.150112793326E+02
  0.157199934960E+03  0.524419156411E+01  0.163868393595E+02
  0.156256225883E+03  0.587253473702E+01  0.162173001720E+02
  0.160629779450E+03  0.149895995819E+01  0.154992946007E+02
  0.159883786699E+03  0.183483615202E+01  0.153939253708E+02
  0.160106307749E+03  0.161231062360E+01  0.327514193107E+01
  0.160513011549E+03  0.983964616296E+00  0.329653188696E+01
  0.142838430547E+03  0.186585632706E+02 -0.172271643421E+02
  0.142618488969E+03  0.189534833746E+02 -0.171557485187E+02
  0.722982432940E+02  0.892737772266E+02  0.983990161646E+01
  0.713791275842E+02  0.903844997824E+02  0.110164661673E+02
  0.193946224114E+03 -0.321825967475E+02  0.131075596863E+03
  0.193142263083E+03 -0.312110517614E+02  0.130046683797E+03
  0.215236670685E+03 -0.533054528679E+02  0.372541900464E+02
  0.215181136958E+03 -0.532309864081E+02  0.372361320943E+02
  0.195196080226E+03 -0.332458867914E+02 -0.472057188845E+01
  0.195772347168E+03 -0.341362030723E+02 -0.475087588829E+01
  0.176254482317E+03 -0.146182750163E+02 -0.185909655759E+02
  0.175282958280E+03 -0.141808560957E+02 -0.184537292621E+02
  0.162298483224E+03 -0.119631851805E+01 -0.176312007296E+02
  0.161020814964E+03 -0.345616856033E+00 -0.174016876563E+02
  0.151187457919E+03  0.948779543373E+01 -0.151412151905E+02
  0.149861818833E+03  0.106208926406E+02 -0.148784919675E+02
  0.153922451758E+03  0.123347122208E+02  0.151292555056E+02
  0.152291685709E+03  0.136971821437E+02  0.148094164408E+02
  0.159363366693E+03  0.662545935907E+01  0.164711914446E+02
  0.157231050282E+03  0.795086747297E+01  0.160983059319E+02
  0.162705574536E+03  0.247631570988E+01  0.156062780205E+02
  0.160646271130E+03  0.325383966301E+01  0.153299749951E+02
  0.160514036847E+03  0.338607049752E+01  0.324691466314E+01
  0.162387025881E+03  0.356601948813E+00  0.334822288322E+01
  0.142640202707E+03  0.201034538627E+02 -0.169992278084E+02
  0.144269052292E+03  0.178449641407E+02 -0.175384831637E+02
  0.714495419797E+02  0.906644971623E+02  0.111379435788E+02
  0.729154197258E+02  0.888504563418E+02  0.923675537507E+01
  0.192416710184E+03 -0.306508341162E+02  0.129301261646E+03
  0.193876981425E+03 -0.324579269546E+02  0.131195052871E+03
  0.213596212246E+03 -0.521771421253E+02  0.368700261653E+02
  0.215215578715E+03 -0.544224874362E+02  0.374062288178E+02
  0.193213626967E+03 -0.324204806261E+02 -0.466255264222E+01
  0.195195064586E+03 -0.356253594162E+02 -0.476972177686E+01
  0.175268692104E+03 -0.156989189650E+02 -0.186001996799E+02
  0.172636922207E+03 -0.147052513638E+02 -0.182470784992E+02
  0.160989635135E+03 -0.305790601608E+01 -0.176908192524E+02
  0.157741435295E+03 -0.103888506122E+01 -0.171228081427E+02
  0.149819621420E+03  0.688297564039E+01 -0.152733978565E+02
  0.146496241944E+03  0.965958752822E+01 -0.146215832821E+02
  0.156366565900E+03  0.168008352223E+02  0.149132208114E+02
  0.153993421457E+03  0.186213247382E+02  0.144650831237E+02
  0.162121111242E+03  0.104935878369E+02  0.163514359682E+02
  0.159422257602E+03  0.117482990975E+02  0.159250942285E+02
  0.165541560238E+03  0.562896876816E+01  0.155754395323E+02