# vtk DataFile Version 3.0
MachLine results file. Generated by MachLine, USU AeroLab (c) 2022.
ASCII
DATASET POLYDATA
POINTS                 144 float
  0.312930634121E-04  0.000000000000E+00  0.387506237003E-20
  0.113539063053E+01  0.000000000000E+00 -0.658087935210E+00
  0.113539063053E+01  0.000000000000E+00  0.658087935210E+00
  0.192378249374E+01  0.192372498306E+01  0.118693775247E-20
  0.305914835645E+01  0.192374081896E+01 -0.658086193634E+00
  0.305914835645E+01  0.192374081896E+01  0.658086193634E+00
  0.423028253315E+01  0.000000000000E+00 -0.108742011765E+01
  0.423028253315E+01  0.000000000000E+00  0.108742011765E+01
  0.547037632114E+01  0.547028701656E+01  0.184311801238E-20
  0.615404028205E+01  0.192375045511E+01 -0.108741647537E+01
  0.615404028205E+01  0.192375045511E+01  0.108741647537E+01
  0.660573385881E+01  0.547031260802E+01 -0.658068469811E+00
  0.660573385881E+01  0.547031260802E+01  0.658068469811E+00
  0.939508564654E+01  0.000000000000E+00 -0.980702541365E+00
  0.939508564654E+01  0.000000000000E+00  0.980702541365E+00
  0.970062414602E+01  0.547032722042E+01 -0.108739780002E+01
  0.970062414602E+01  0.547032722042E+01  0.108739780002E+01
  0.113188445158E+02  0.192375687882E+01 -0.980693094219E+00
  0.113188445158E+02  0.192375687882E+01  0.980693094219E+00
  0.113820643673E+02  0.113819393863E+02  0.103177094566E-19
  0.125174139439E+02  0.113819753230E+02 -0.658047284009E+00
  0.125174139439E+02  0.113819753230E+02  0.658047284009E+00
  0.145401991734E+02  0.000000000000E+00 -0.479574165270E+00
  0.145401991734E+02  0.000000000000E+00  0.479574165270E+00
  0.148654325708E+02  0.547033565208E+01 -0.980679907908E+00
  0.148654325708E+02  0.547033565208E+01  0.980679907908E+00
  0.156123048447E+02  0.113819959977E+02 -0.108737528443E+01
  0.156123048447E+02  0.113819959977E+02  0.108737528443E+01
  0.164639622288E+02  0.192375787923E+01 -0.479572980793E+00
  0.164639622288E+02  0.192375787923E+01  0.479572980793E+00
  0.176505079470E+02  0.000000000000E+00 -0.144172424756E+00
  0.176505079470E+02  0.000000000000E+00  0.144172424756E+00
  0.189999778925E+02  0.000000000000E+00 -0.165542730925E-05
  0.195742705951E+02  0.192375720641E+01 -0.144166632792E+00
  0.195742705951E+02  0.192375720641E+01  0.144166632792E+00
  0.197562681851E+02  0.197561219516E+02  0.150902427192E-19
  0.200105551723E+02  0.547033748596E+01 -0.479557181615E+00
  0.200105551723E+02  0.547033748596E+01  0.479557181615E+00
  0.207771191273E+02  0.113820071544E+02 -0.980659764437E+00
  0.207771191273E+02  0.113820071544E+02  0.980659764437E+00
  0.208916146114E+02  0.197561629460E+02 -0.658032293233E+00
  0.208916146114E+02  0.197561629460E+02  0.658032293233E+00
  0.209237410836E+02  0.192377783745E+01 -0.254601661134E-05
  0.231208669354E+02  0.547033723104E+01 -0.144147288307E+00
  0.231208669354E+02  0.547033723104E+01  0.144147288307E+00
  0.239865086400E+02  0.197561881221E+02 -0.108735995859E+01
  0.239865086400E+02  0.197561881221E+02  0.108735995859E+01
  0.244703257500E+02  0.547037144337E+01 -0.420209809024E-05
  0.259222501778E+02  0.113820100762E+02 -0.479534889879E+00
  0.259222501778E+02  0.113820100762E+02  0.479534889879E+00
  0.290325693319E+02  0.113820100595E+02 -0.144123159709E+00
  0.290325693319E+02  0.113820100595E+02  0.144123159709E+00
  0.291513358854E+02  0.197562015750E+02 -0.980641566995E+00
  0.291513358854E+02  0.197562015750E+02  0.980641566995E+00
  0.292438739780E+02  0.292437358852E+02  0.570007673422E-20
  0.303792302038E+02  0.292437728021E+02 -0.658034298375E+00
  0.303792302038E+02  0.292437728021E+02  0.658034298375E+00
  0.303820150452E+02  0.113820592806E+02 -0.606459828689E-05
  0.334741318570E+02  0.292437979831E+02 -0.108736325854E+01
  0.334741318570E+02  0.292437979831E+02  0.108736325854E+01
  0.342964796805E+02  0.197562051036E+02 -0.479518310694E+00
  0.342964796805E+02  0.197562051036E+02  0.479518310694E+00
  0.374068082499E+02  0.197562052085E+02 -0.144105313513E+00
  0.374068082499E+02  0.197562052085E+02  0.144105313513E+00
  0.376180497188E+02  0.376179427128E+02  0.220844969606E-20
  0.386389740370E+02  0.292438117601E+02 -0.980639078250E+00
  0.386389740370E+02  0.292438117601E+02  0.980639078250E+00
  0.387534178424E+02  0.376179696393E+02 -0.658052759190E+00
  0.387534178424E+02  0.376179696393E+02  0.658052759190E+00
  0.387562492294E+02  0.197562629782E+02 -0.717453034836E-05
  0.418483373371E+02  0.376179903301E+02 -0.108738447037E+01
  0.418483373371E+02  0.376179903301E+02  0.108738447037E+01
  0.435297029672E+02  0.435296308340E+02 -0.148872652358E-20
  0.437841353047E+02  0.292438149822E+02 -0.479519620832E+00
  0.437841353047E+02  0.292438149822E+02  0.479519620832E+00
  0.446650848654E+02  0.435296478006E+02 -0.658076458324E+00
  0.446650848654E+02  0.435296478006E+02  0.658076458324E+00
  0.468944715132E+02  0.292438150774E+02 -0.144105707172E+00
  0.468944715132E+02  0.292438150774E+02  0.144105707172E+00
  0.470131928898E+02  0.376180021786E+02 -0.980656468792E+00
  0.470131928898E+02  0.376180021786E+02  0.980656468792E+00
  0.470762711240E+02  0.470762252138E+02 -0.189503762973E-20
  0.477600142238E+02  0.435296624425E+02 -0.108741098466E+01
  0.477600142238E+02  0.435296624425E+02  0.108741098466E+01
  0.482116561869E+02  0.470762352010E+02 -0.658095644386E+00
  0.482116561869E+02  0.470762352010E+02  0.658095644386E+00
  0.482439203362E+02  0.292438688182E+02 -0.674948747450E-05
  0.490000098337E+02  0.489999829894E+02  0.328552793022E-20
  0.501354069086E+02  0.489999871344E+02 -0.658111061843E+00
  0.501354069086E+02  0.489999871344E+02  0.658111061843E+00
  0.506007778866E+02  0.494653516704E+02 -0.465360197472E+00
  0.506007778866E+02  0.494653516704E+02  0.465360197472E+00
  0.507935375703E+02  0.496581169850E+02 -0.771259651005E-15
  0.513065943267E+02  0.470762448761E+02 -0.108743228644E+01
  0.513065943267E+02  0.470762448761E+02  0.108743228644E+01
  0.521583703386E+02  0.376180044784E+02 -0.479538356774E+00
  0.521583703386E+02  0.376180044784E+02  0.479538356774E+00
  0.529248840674E+02  0.435296714441E+02 -0.980682430110E+00
  0.529248840674E+02  0.435296714441E+02  0.980682430110E+00
  0.532303491166E+02  0.489999893063E+02 -0.108744779990E+01
  0.532303491166E+02  0.489999893063E+02  0.108744779990E+01
  0.539993229218E+02  0.497689436952E+02 -0.768946532731E+00
  0.539993229218E+02  0.497689436952E+02  0.768946532731E+00
  0.543178430301E+02  0.500874571974E+02 -0.157374059169E-15
  0.552687143289E+02  0.376180044211E+02 -0.144124171041E+00
  0.552687143289E+02  0.376180044211E+02  0.144124171041E+00
  0.564714741318E+02  0.470762515457E+02 -0.980703384050E+00
  0.564714741318E+02  0.470762515457E+02  0.980703384050E+00
  0.566181803863E+02  0.376180447422E+02 -0.512671807591E-05
  0.580700700039E+02  0.435296728856E+02 -0.479561446547E+00
  0.580700700039E+02  0.435296728856E+02  0.479561446547E+00
  0.583952342525E+02  0.489999966035E+02 -0.980715337112E+00
  0.583952342525E+02  0.489999966035E+02  0.980715337112E+00
  0.590887388161E+02  0.496934812578E+02 -0.693469805575E+00
  0.590887388161E+02  0.496934812578E+02  0.693469805575E+00
  0.593759966941E+02  0.499807194883E+02 -0.424930093259E-20
  0.611804219244E+02  0.435296725276E+02 -0.144148458102E+00
  0.611804219244E+02  0.435296725276E+02  0.144148458102E+00
  0.616166681578E+02  0.470762525270E+02 -0.479577866536E+00
  0.616166681578E+02  0.470762525270E+02  0.479577866536E+00
  0.625299026009E+02  0.435296982293E+02 -0.330981405380E-05
  0.635404285646E+02  0.489999966685E+02 -0.479587400581E+00
  0.635404285646E+02  0.489999966685E+02  0.479587400581E+00
  0.638795744263E+02  0.493391226712E+02 -0.339121163529E+00
  0.638795744263E+02  0.493391226712E+02  0.339121163529E+00
  0.640200547551E+02  0.494795968058E+02  0.296949892487E-15
  0.647270242582E+02  0.470762518038E+02 -0.144167179154E+00
  0.647270242582E+02  0.470762518038E+02  0.144167179154E+00
  0.660765195290E+02  0.470762667259E+02 -0.196051129310E-05
  0.666507849833E+02  0.489999978860E+02 -0.144179063945E+00
  0.666507849833E+02  0.489999978860E+02  0.144179063945E+00
  0.667527523879E+02  0.491019555434E+02 -0.101954743525E+00
  0.667527523879E+02  0.491019555434E+02  0.101954743525E+00
  0.667949891457E+02  0.491441877800E+02 -0.260490388611E-16
  0.680002928756E+02  0.489999838682E+02  0.822676812894E-21
  0.660765195290E+02  0.470762667259E+02  0.196051129310E-05
  0.303820150452E+02  0.113820592806E+02  0.606459828689E-05
  0.244703257500E+02  0.547037144337E+01  0.420209809024E-05
  0.482439203362E+02  0.292438688182E+02  0.674948747450E-05
  0.387562492294E+02  0.197562629782E+02  0.717453034836E-05
  0.209237410836E+02  0.192377783745E+01  0.254601661134E-05
  0.189999778925E+02  0.000000000000E+00  0.165542730925E-05
  0.625299026009E+02  0.435296982293E+02  0.330981405380E-05
  0.566181803863E+02  0.376180447422E+02  0.512671807591E-05
VERTICES                 144                 288
1                   0
1                   1
1                   2
1                   3
1                   4
1                   5
1                   6
1                   7
1                   8
1                   9
1                  10
1                  11
1                  12
1                  13
1                  14
1                  15
1                  16
1                  17
1                  18
1                  19
1                  20
1                  21
1                  22
1                  23
1                  24
1                  25
1                  26
1                  27
1                  28
1                  29
1                  30
1                  31
1                  32
1                  33
1                  34
1                  35
1                  36
1                  37
1                  38
1                  39
1                  40
1                  41
1                  42
1                  43
1                  44
1                  45
1                  46
1                  47
1                  48
1                  49
1                  50
1                  51
1                  52
1                  53
1                  54
1                  55
1                  56
1                  57
1                  58
1                  59
1                  60
1                  61
1                  62
1                  63
1                  64
1                  65
1                  66
1                  67
1                  68
1                  69
1                  70
1                  71
1                  72
1                  73
1                  74
1                  75
1                  76
1                  77
1                  78
1                  79
1                  80
1                  81
1                  82
1                  83
1                  84
1                  85
1                  86
1                  87
1                  88
1                  89
1                  90
1                  91
1                  92
1                  93
1                  94
1                  95
1                  96
1                  97
1                  98
1                  99
1                 100
1                 101
1                 102
1                 103
1                 104
1                 105
1                 106
1                 107
1                 108
1                 109
1                 110
1                 111
1                 112
1                 113
1                 114
1                 115
1                 116
1                 117
1                 118
1                 119
1                 120
1                 121
1                 122
1                 123
1                 124
1                 125
1                 126
1                 127
1                 128
1                 129
1                 130
1                 131
1                 132
1                 133
1                 134
1                 135
1                 136
1                 137
1                 138
1                 139
1                 140
1                 141
1                 142
1                 143
POINT_DATA                 144
SCALARS phi float 1
LOOKUP_TABLE default
 -0.309652932651E-04
 -0.102849923532E+01
 -0.121849738383E+01
 -0.190363239012E+01
 -0.293210736846E+01
 -0.312210501414E+01
 -0.402899782453E+01
 -0.434294949868E+01
 -0.541307844568E+01
 -0.593260625477E+01
 -0.624655687735E+01
 -0.644154774471E+01
 -0.663154027331E+01
 -0.915510904458E+01
 -0.943825003095E+01
 -0.944204514716E+01
 -0.975599037794E+01
 -0.110587194214E+02
 -0.113418576803E+02
 -0.112628462243E+02
 -0.122913107039E+02
 -0.124812971159E+02
 -0.143186725557E+02
 -0.144571315649E+02
 -0.145681616686E+02
 -0.148512961204E+02
 -0.152918089055E+02
 -0.156057476357E+02
 -0.162222858820E+02
 -0.163607445493E+02
 -0.174448206202E+02
 -0.174864449873E+02
 -0.188009678774E+02
 -0.193484342087E+02
 -0.193900569035E+02
 -0.195493368650E+02
 -0.197317333437E+02
 -0.198701874495E+02
 -0.204179308810E+02
 -0.207010595171E+02
 -0.205778003913E+02
 -0.207677824753E+02
 -0.207045810385E+02
 -0.228578855433E+02
 -0.228995026532E+02
 -0.235783017363E+02
 -0.238922360418E+02
 -0.242140177900E+02
 -0.255815112267E+02
 -0.257199588966E+02
 -0.287076710051E+02
 -0.287492811487E+02
 -0.287044369533E+02
 -0.289875603356E+02
 -0.289375674735E+02
 -0.299660404073E+02
 -0.301560230702E+02
 -0.300637865357E+02
 -0.329665491100E+02
 -0.332804843683E+02
 -0.338680296765E+02
 -0.340064725597E+02
 -0.369941989544E+02
 -0.370358039456E+02
 -0.372240303312E+02
 -0.380926999409E+02
 -0.383758226047E+02
 -0.382525123732E+02
 -0.384425003660E+02
 -0.383503070643E+02
 -0.412530383336E+02
 -0.415669797159E+02
 -0.430737636766E+02
 -0.432563094053E+02
 -0.433947526668E+02
 -0.441022559278E+02
 -0.442922507628E+02
 -0.463824863746E+02
 -0.464240914795E+02
 -0.463792029486E+02
 -0.466623306332E+02
 -0.465831843304E+02
 -0.471027912421E+02
 -0.474167402794E+02
 -0.476116769436E+02
 -0.478016773178E+02
 -0.477386023642E+02
 -0.484867733951E+02
 -0.495152756688E+02
 -0.497052804943E+02
 -0.500035970356E+02
 -0.501379522960E+02
 -0.502615153439E+02
 -0.506122206419E+02
 -0.509261758293E+02
 -0.515428282304E+02
 -0.516812769012E+02
 -0.522289700782E+02
 -0.525121052582E+02
 -0.525158233788E+02
 -0.528297830452E+02
 -0.533227204232E+02
 -0.535447248237E+02
 -0.537489064849E+02
 -0.546690129393E+02
 -0.547106233750E+02
 -0.557384093853E+02
 -0.560215506150E+02
 -0.560251488823E+02
 -0.573926041733E+02
 -0.575310595104E+02
 -0.576420179113E+02
 -0.579251625919E+02
 -0.583697242354E+02
 -0.585699375687E+02
 -0.587540799805E+02
 -0.605187965565E+02
 -0.605604140041E+02
 -0.609020521397E+02
 -0.610405122175E+02
 -0.618749507338E+02
 -0.628056612979E+02
 -0.629441241283E+02
 -0.631615320467E+02
 -0.632594405324E+02
 -0.633494951978E+02
 -0.640282483269E+02
 -0.640698711795E+02
 -0.653844198428E+02
 -0.659318574607E+02
 -0.659734837446E+02
 -0.660388521797E+02
 -0.660682877786E+02
 -0.660953643402E+02
 -0.672880434647E+02
 -0.653844204089E+02
 -0.300637882866E+02
 -0.242140190032E+02
 -0.477386043128E+02
 -0.383503091357E+02
 -0.207045817736E+02
 -0.188009683554E+02
 -0.618749516894E+02
 -0.560251503625E+02
SCALARS phi_mu float 1
LOOKUP_TABLE default
 -0.309652932651E-04
 -0.102849923532E+01
 -0.121849738383E+01
 -0.190363239012E+01
 -0.293210736846E+01
 -0.312210501414E+01
 -0.402899782453E+01
 -0.434294949868E+01
 -0.541307844568E+01
 -0.593260625477E+01
 -0.624655687735E+01
 -0.644154774471E+01
 -0.663154027331E+01
 -0.915510904458E+01
 -0.943825003095E+01
 -0.944204514716E+01
 -0.975599037794E+01
 -0.110587194214E+02
 -0.113418576803E+02
 -0.112628462243E+02
 -0.122913107039E+02
 -0.124812971159E+02
 -0.143186725557E+02
 -0.144571315649E+02
 -0.145681616686E+02
 -0.148512961204E+02
 -0.152918089055E+02
 -0.156057476357E+02
 -0.162222858820E+02
 -0.163607445493E+02
 -0.174448206202E+02
 -0.174864449873E+02
 -0.188009678774E+02
 -0.193484342087E+02
 -0.193900569035E+02
 -0.195493368650E+02
 -0.197317333437E+02
 -0.198701874495E+02
 -0.204179308810E+02
 -0.207010595171E+02
 -0.205778003913E+02
 -0.207677824753E+02
 -0.207045810385E+02
 -0.228578855433E+02
 -0.228995026532E+02
 -0.235783017363E+02
 -0.238922360418E+02
 -0.242140177900E+02
 -0.255815112267E+02
 -0.257199588966E+02
 -0.287076710051E+02
 -0.287492811487E+02
 -0.287044369533E+02
 -0.289875603356E+02
 -0.289375674735E+02
 -0.299660404073E+02
 -0.301560230702E+02
 -0.300637865357E+02
 -0.329665491100E+02
 -0.332804843683E+02
 -0.338680296765E+02
 -0.340064725597E+02
 -0.369941989544E+02
 -0.370358039456E+02
 -0.372240303312E+02
 -0.380926999409E+02
 -0.383758226047E+02
 -0.382525123732E+02
 -0.384425003660E+02
 -0.383503070643E+02
 -0.412530383336E+02
 -0.415669797159E+02
 -0.430737636766E+02
 -0.432563094053E+02
 -0.433947526668E+02
 -0.441022559278E+02
 -0.442922507628E+02
 -0.463824863746E+02
 -0.464240914795E+02
 -0.463792029486E+02
 -0.466623306332E+02
 -0.465831843304E+02
 -0.471027912421E+02
 -0.474167402794E+02
 -0.476116769436E+02
 -0.478016773178E+02
 -0.477386023642E+02
 -0.484867733951E+02
 -0.495152756688E+02
 -0.497052804943E+02
 -0.500035970356E+02
 -0.501379522960E+02
 -0.502615153439E+02
 -0.506122206419E+02
 -0.509261758293E+02
 -0.515428282304E+02
 -0.516812769012E+02
 -0.522289700782E+02
 -0.525121052582E+02
 -0.525158233788E+02
 -0.528297830452E+02
 -0.533227204232E+02
 -0.535447248237E+02
 -0.537489064849E+02
 -0.546690129393E+02
 -0.547106233750E+02
 -0.557384093853E+02
 -0.560215506150E+02
 -0.560251488823E+02
 -0.573926041733E+02
 -0.575310595104E+02
 -0.576420179113E+02
 -0.579251625919E+02
 -0.583697242354E+02
 -0.585699375687E+02
 -0.587540799805E+02
 -0.605187965565E+02
 -0.605604140041E+02
 -0.609020521397E+02
 -0.610405122175E+02
 -0.618749507338E+02
 -0.628056612979E+02
 -0.629441241283E+02
 -0.631615320467E+02
 -0.632594405324E+02
 -0.633494951978E+02
 -0.640282483269E+02
 -0.640698711795E+02
 -0.653844198428E+02
 -0.659318574607E+02
 -0.659734837446E+02
 -0.660388521797E+02
 -0.660682877786E+02
 -0.660953643402E+02
 -0.672880434647E+02
 -0.653844204089E+02
 -0.300637882866E+02
 -0.242140190032E+02
 -0.477386043128E+02
 -0.383503091357E+02
 -0.207045817736E+02
 -0.188009683554E+02
 -0.618749516894E+02
 -0.560251503625E+02
SCALARS phi_sigma float 1
LOOKUP_TABLE default
  0.000000000000E+00
  0.000000000000E+00
  0.000000000000E+00
  0.000000000000E+00
  0.000000000000E+00
  0.000000000000E+00
  0.000000000000E+00
  0.000000000000E+00
  0.000000000000E+00
  0.000000000000E+00
  0.000000000000E+00
  0.000000000000E+00
  0.000000000000E+00
  0.000000000000E+00
  0.000000000000E+00
  0.000000000000E+00
  0.000000000000E+00
  0.000000000000E+00
  0.000000000000E+00
  0.000000000000E+00
  0.000000000000E+00
  0.000000000000E+00
  0.000000000000E+00
  0.000000000000E+00
  0.000000000000E+00
  0.000000000000E+00
  0.000000000000E+00
  0.000000000000E+00
  0.000000000000E+00
  0.000000000000E+00
  0.000000000000E+00
  0.000000000000E+00
  0.000000000000E+00
  0.000000000000E+00
  0.000000000000E+00
  0.000000000000E+00
  0.000000000000E+00
  0.000000000000E+00
  0.000000000000E+00
  0.000000000000E+00
  0.000000000000E+00
  0.000000000000E+00
  0.000000000000E+00
  0.000000000000E+00
  0.000000000000E+00
  0.000000000000E+00
  0.000000000000E+00
  0.000000000000E+00
  0.000000000000E+00
  0.000000000000E+00
  0.000000000000E+00
  0.000000000000E+00
  0.000000000000E+00
  0.000000000000E+00
  0.000000000000E+00
  0.000000000000E+00
  0.000000000000E+00
  0.000000000000E+00
  0.000000000000E+00
  0.000000000000E+00
  0.000000000000E+00
  0.000000000000E+00
  0.000000000000E+00
  0.000000000000E+00
  0.000000000000E+00
  0.000000000000E+00
  0.000000000000E+00
  0.000000000000E+00
  0.000000000000E+00
  0.000000000000E+00
  0.000000000000E+00
  0.000000000000E+00
  0.000000000000E+00
  0.000000000000E+00
  0.000000000000E+00
  0.000000000000E+00
  0.000000000000E+00
  0.000000000000E+00
  0.000000000000E+00
  0.000000000000E+00
  0.000000000000E+00
  0.000000000000E+00
  0.000000000000E+00
  0.000000000000E+00
  0.000000000000E+00
  0.000000000000E+00
  0.000000000000E+00
  0.000000000000E+00
  0.000000000000E+00
  0.000000000000E+00
  0.000000000000E+00
  0.000000000000E+00
  0.000000000000E+00
  0.000000000000E+00
  0.000000000000E+00
  0.000000000000E+00
  0.000000000000E+00
  0.000000000000E+00
  0.000000000000E+00
  0.000000000000E+00
  0.000000000000E+00
  0.000000000000E+00
  0.000000000000E+00
  0.000000000000E+00
  0.000000000000E+00
  0.000000000000E+00
  0.000000000000E+00
  0.000000000000E+00
  0.000000000000E+00
  0.000000000000E+00
  0.000000000000E+00
  0.000000000000E+00
  0.000000000000E+00
  0.000000000000E+00
  0.000000000000E+00
  0.000000000000E+00
  0.000000000000E+00
  0.000000000000E+00
  0.000000000000E+00
  0.000000000000E+00
  0.000000000000E+00
  0.000000000000E+00
  0.000000000000E+00
  0.000000000000E+00
  0.000000000000E+00
  0.000000000000E+00
  0.000000000000E+00
  0.000000000000E+00
  0.000000000000E+00
  0.000000000000E+00
  0.000000000000E+00
  0.000000000000E+00
  0.000000000000E+00
  0.000000000000E+00
  0.000000000000E+00
  0.000000000000E+00
  0.000000000000E+00
  0.000000000000E+00
  0.000000000000E+00
  0.000000000000E+00
  0.000000000000E+00
  0.000000000000E+00
  0.000000000000E+00
  0.000000000000E+00
