# vtk DataFile Version 3.0
TriPan results file. Generated by TriPan, USU AeroLab (c) 2021.
ASCII
DATASET POLYDATA
POINTS                 144 float
  0.000000000000E+00  0.000000000000E+00  0.000000000000E+00
  0.113538098335E+01  0.000000000000E+00 -0.658124566078E+00
  0.113538098335E+01  0.000000000000E+00  0.658124566078E+00
  0.192375373840E+01  0.192375373840E+01  0.000000000000E+00
  0.305913543701E+01  0.192375373840E+01 -0.658124983311E+00
  0.305913543701E+01  0.192375373840E+01  0.658124983311E+00
  0.423028087616E+01  0.000000000000E+00 -0.108747220039E+01
  0.423028087616E+01  0.000000000000E+00  0.108747220039E+01
  0.547033166885E+01  0.547033166885E+01  0.000000000000E+00
  0.615403699875E+01  0.192375373840E+01 -0.108747279644E+01
  0.615403699875E+01  0.192375373840E+01  0.108747279644E+01
  0.660571479797E+01  0.547033166885E+01 -0.658125698566E+00
  0.660571479797E+01  0.547033166885E+01  0.658125698566E+00
  0.939508819580E+01  0.000000000000E+00 -0.980745851994E+00
  0.939508819580E+01  0.000000000000E+00  0.980745851994E+00
  0.970061969757E+01  0.547033166885E+01 -0.108747410774E+01
  0.970061969757E+01  0.547033166885E+01  0.108747410774E+01
  0.113188476562E+02  0.192375373840E+01 -0.980746448040E+00
  0.113188476562E+02  0.192375373840E+01  0.980746448040E+00
  0.113820018768E+02  0.113820018768E+02  0.000000000000E+00
  0.125173873901E+02  0.113820018768E+02 -0.658127009869E+00
  0.125173873901E+02  0.113820018768E+02  0.658127009869E+00
  0.145402030945E+02  0.000000000000E+00 -0.479613035917E+00
  0.145402030945E+02  0.000000000000E+00  0.479613035917E+00
  0.148654365540E+02  0.547033166885E+01 -0.980747580528E+00
  0.148654365540E+02  0.547033166885E+01  0.980747580528E+00
  0.156122989655E+02  0.113820018768E+02 -0.108747613430E+01
  0.156122989655E+02  0.113820018768E+02  0.108747613430E+01
  0.164639663696E+02  0.192375373840E+01 -0.479613333941E+00
  0.164639663696E+02  0.192375373840E+01  0.479613333941E+00
  0.176505107880E+02  0.000000000000E+00 -0.144198849797E+00
  0.176505107880E+02  0.000000000000E+00  0.144198849797E+00
  0.190000000000E+02  0.000000000000E+00  0.000000000000E+00
  0.195742740631E+02  0.192375373840E+01 -0.144198939204E+00
  0.195742740631E+02  0.192375373840E+01  0.144198939204E+00
  0.197561950684E+02  0.197561950684E+02  0.000000000000E+00
  0.200105609894E+02  0.547033166885E+01 -0.479613870382E+00
  0.200105609894E+02  0.547033166885E+01  0.479613870382E+00
  0.207771244049E+02  0.113820018768E+02 -0.980749428272E+00
  0.207771244049E+02  0.113820018768E+02  0.980749428272E+00
  0.208915824890E+02  0.197561950684E+02 -0.658128738403E+00
  0.208915824890E+02  0.197561950684E+02  0.658128738403E+00
  0.209237651825E+02  0.192375373840E+01  0.000000000000E+00
  0.231208724976E+02  0.547033166885E+01 -0.144199103117E+00
  0.231208724976E+02  0.547033166885E+01  0.144199103117E+00
  0.239865016937E+02  0.197561950684E+02 -0.108747911453E+01
  0.239865016937E+02  0.197561950684E+02  0.108747911453E+01
  0.244703655243E+02  0.547033166885E+01  0.000000000000E+00
  0.259222583771E+02  0.113820018768E+02 -0.479614794254E+00
  0.259222583771E+02  0.113820018768E+02  0.479614794254E+00
  0.290325775146E+02  0.113820018768E+02 -0.144199386239E+00
  0.290325775146E+02  0.113820018768E+02  0.144199386239E+00
  0.291513423920E+02  0.197561950684E+02 -0.980752110481E+00
  0.291513423920E+02  0.197561950684E+02  0.980752110481E+00
  0.292438049316E+02  0.292438049316E+02  0.000000000000E+00
  0.303791980743E+02  0.292438049316E+02 -0.658130764961E+00
  0.303791980743E+02  0.292438049316E+02  0.658130764961E+00
  0.303820724487E+02  0.113820018768E+02  0.000000000000E+00
  0.334741249084E+02  0.292438049316E+02 -0.108748245239E+01
  0.334741249084E+02  0.292438049316E+02  0.108748245239E+01
  0.342964897156E+02  0.197561950684E+02 -0.479616105556E+00
  0.342964897156E+02  0.197561950684E+02  0.479616105556E+00
  0.374068183899E+02  0.197561950684E+02 -0.144199773669E+00
  0.374068183899E+02  0.197561950684E+02  0.144199773669E+00
  0.376179962158E+02  0.376179962158E+02  0.000000000000E+00
  0.386389808655E+02  0.292438049316E+02 -0.980755090714E+00
  0.386389808655E+02  0.292438049316E+02  0.980755090714E+00
  0.387533912659E+02  0.376179962158E+02 -0.658132553101E+00
  0.387533912659E+02  0.376179962158E+02  0.658132553101E+00
  0.387563171387E+02  0.197561950684E+02  0.000000000000E+00
  0.418483314514E+02  0.376179962158E+02 -0.108748543262E+01
  0.418483314514E+02  0.376179962158E+02  0.108748543262E+01
  0.435296669006E+02  0.435296669006E+02  0.000000000000E+00
  0.437841453552E+02  0.292438049316E+02 -0.479617565870E+00
  0.437841453552E+02  0.292438049316E+02  0.479617565870E+00
  0.446650657654E+02  0.435296669006E+02 -0.658133804798E+00
  0.446650657654E+02  0.435296669006E+02  0.658133804798E+00
  0.468944816589E+02  0.292438049316E+02 -0.144200220704E+00
  0.468944816589E+02  0.292438049316E+02  0.144200220704E+00
  0.470131988525E+02  0.376179962158E+02 -0.980757772923E+00
  0.470131988525E+02  0.376179962158E+02  0.980757772923E+00
  0.470762481689E+02  0.470762481689E+02  0.000000000000E+00
  0.477600097656E+02  0.435296669006E+02 -0.108748745918E+01
  0.477600097656E+02  0.435296669006E+02  0.108748745918E+01
  0.482116432190E+02  0.470762481689E+02 -0.658134579659E+00
  0.482116432190E+02  0.470762481689E+02  0.658134579659E+00
  0.482439842224E+02  0.292438049316E+02  0.000000000000E+00
  0.490000000000E+02  0.490000000000E+02  0.000000000000E+00
  0.501353988647E+02  0.490000000000E+02 -0.658134996891E+00
  0.501353988647E+02  0.490000000000E+02  0.658134996891E+00
  0.506007728577E+02  0.494653701782E+02 -0.465371757746E+00
  0.506007728577E+02  0.494653701782E+02  0.465371757746E+00
  0.507935333252E+02  0.496581344604E+02 -0.771266485397E-15
  0.513065910339E+02  0.470762481689E+02 -0.108748877048E+01
  0.513065910339E+02  0.470762481689E+02  0.108748877048E+01
  0.521583786011E+02  0.376179962158E+02 -0.479618877172E+00
  0.521583786011E+02  0.376179962158E+02  0.479618877172E+00
  0.529248886108E+02  0.435296669006E+02 -0.980759620667E+00
  0.529248886108E+02  0.435296669006E+02  0.980759620667E+00
  0.532303466797E+02  0.490000000000E+02 -0.108748936653E+01
  0.532303466797E+02  0.490000000000E+02  0.108748936653E+01
  0.539993209839E+02  0.497689704895E+02 -0.768971264362E+00
  0.539993209839E+02  0.497689704895E+02  0.768971264362E+00
  0.543178405762E+02  0.500874900818E+02 -0.157378642191E-15
  0.552687225342E+02  0.376179962158E+02 -0.144200608134E+00
  0.552687225342E+02  0.376179962158E+02  0.144200608134E+00
  0.564714775085E+02  0.470762481689E+02 -0.980760753155E+00
  0.564714775085E+02  0.470762481689E+02  0.980760753155E+00
  0.566182289124E+02  0.376179962158E+02  0.000000000000E+00
  0.580700759888E+02  0.435296669006E+02 -0.479619771242E+00
  0.580700759888E+02  0.435296669006E+02  0.479619771242E+00
  0.583952369690E+02  0.490000000000E+02 -0.980761349201E+00
  0.583952369690E+02  0.490000000000E+02  0.980761349201E+00
  0.590887413025E+02  0.496935043335E+02 -0.693503141403E+00
  0.590887413025E+02  0.496935043335E+02  0.693503141403E+00
  0.593759994507E+02  0.499807624817E+02  0.000000000000E+00
  0.611804275513E+02  0.435296669006E+02 -0.144200876355E+00
  0.611804275513E+02  0.435296669006E+02  0.144200876355E+00
  0.616166725159E+02  0.470762481689E+02 -0.479620337486E+00
  0.616166725159E+02  0.470762481689E+02  0.479620337486E+00
  0.625299339294E+02  0.435296669006E+02  0.000000000000E+00
  0.635404319763E+02  0.490000000000E+02 -0.479620635509E+00
  0.635404319763E+02  0.490000000000E+02  0.479620635509E+00
  0.638795776367E+02  0.493391418457E+02 -0.339143037796E+00
  0.638795776367E+02  0.493391418457E+02  0.339143037796E+00
  0.640200576782E+02  0.494796218872E+02  0.296956834055E-15
  0.647270278931E+02  0.470762481689E+02 -0.144201040268E+00
  0.647270278931E+02  0.470762481689E+02  0.144201040268E+00
  0.660765380859E+02  0.470762481689E+02  0.000000000000E+00
  0.666507873535E+02  0.490000000000E+02 -0.144201144576E+00
  0.666507873535E+02  0.490000000000E+02  0.144201144576E+00
  0.667527542114E+02  0.491019668579E+02 -0.101965606213E+00
  0.667527542114E+02  0.491019668579E+02  0.101965606213E+00
  0.667949905396E+02  0.491441993713E+02 -0.260488604752E-16
  0.680002975464E+02  0.490000000000E+02  0.000000000000E+00
  0.209237651825E+02  0.192375373840E+01  0.000000000000E+00
  0.190000000000E+02  0.000000000000E+00  0.000000000000E+00
  0.244703655243E+02  0.547033166885E+01  0.000000000000E+00
  0.303820724487E+02  0.113820018768E+02  0.000000000000E+00
  0.387563171387E+02  0.197561950684E+02  0.000000000000E+00
  0.482439842224E+02  0.292438049316E+02  0.000000000000E+00
  0.566182289124E+02  0.376179962158E+02  0.000000000000E+00
  0.625299339294E+02  0.435296669006E+02  0.000000000000E+00
  0.660765380859E+02  0.470762481689E+02  0.000000000000E+00
POLYGONS                 256                1024
3                  32                  33                  42
3                  32                  30                  33
3                  30                  28                  33
3                  30                  22                  28
3                  22                  17                  28
3                  22                  13                  17
3                  13                   6                  17
3                  17                   6                   9
3                   6                   1                   9
3                   9                   1                   4
3                   1                   0                   4
3                   4                   0                   3
3                   0                   5                   3
3                   0                   2                   5
3                   2                  10                   5
3                   2                   7                  10
[...]
CELL_DATA                 256
SCALARS sigma float 1
LOOKUP_TABLE default
  0.433898401077E-01
  0.433897567250E-01
  0.424177729292E-01
  0.424178386047E-01
  0.527328368556E-01
  0.527328229061E-01
  0.129048440363E+00
  0.129048453727E+00
  0.281339673447E+00
  0.281339659232E+00
  0.558885002068E+00
  0.558885002677E+00
  0.327594937813E+00
  0.327594936722E+00
 -0.121363266110E-01
 -0.121363099868E-01
 -0.169894607699E+00
 -0.169894620678E+00
 -0.243540396289E+00
 -0.243540382066E+00
 -0.253234341459E+00
 -0.253234406334E+00
 -0.252323557308E+00
 -0.252323477326E+00
  0.433898690953E-01
  0.433898399793E-01
  0.424177848532E-01
  0.424177725821E-01
  0.527328295493E-01
  0.527328369426E-01
  0.129048453600E+00
  0.129048443805E+00
  0.281339659905E+00
  0.281339696959E+00
  0.558884996453E+00
  0.558884964828E+00
  0.327594883869E+00
  0.327594934164E+00
 -0.121362847466E-01
 -0.121363266400E-01
 -0.169894617118E+00
 -0.169894607532E+00
 -0.243540382468E+00
 -0.243540389744E+00
 -0.253234404262E+00
 -0.253234392428E+00
 -0.252323476580E+00
 -0.252323448943E+00
  0.433898111593E-01
  0.433898690869E-01
  0.424178425101E-01
  0.424177849319E-01
  0.527328305406E-01
  0.527328295813E-01
  0.129048443867E+00
  0.129048443586E+00
  0.281339696376E+00
  0.281339636733E+00
  0.558884962511E+00
  0.558884941347E+00
  0.327594850403E+00
  0.327594882511E+00
 -0.121363511051E-01
 -0.121362847214E-01
 -0.169894617475E+00
 -0.169894617199E+00
 -0.243540389892E+00
 -0.243540388964E+00
 -0.253234392897E+00
 -0.253234338006E+00
 -0.252323448894E+00
 -0.252323503605E+00
  0.433898259494E-01
  0.433898111998E-01
  0.424178757745E-01
  0.424178426668E-01
  0.527328170032E-01
  0.527328305174E-01
  0.129048443567E+00
  0.129048446899E+00
  0.281339637936E+00
  0.281339692975E+00
  0.558884955760E+00
  0.558885148285E+00
  0.327595145333E+00
  0.327594858852E+00
 -0.121362903165E-01
 -0.121363511570E-01
 -0.169894614172E+00
 -0.169894617450E+00
 -0.243540388857E+00
 -0.243540401833E+00
 -0.253234338941E+00
 -0.253234307539E+00
 -0.252323503841E+00
 -0.252323489941E+00
  0.433897971855E-01
  0.433898259880E-01
  0.424178153790E-01
  0.424178757123E-01
  0.527328461296E-01
  0.527328169651E-01
  0.129048446907E+00
  0.129048438754E+00
  0.281339692290E+00
  0.281339764428E+00
  0.558885121935E+00
  0.558884719684E+00
  0.327594534489E+00
  0.327595129888E+00
 -0.121362106963E-01
 -0.121362902869E-01
 -0.169894622207E+00
 -0.169894614183E+00
 -0.243540401657E+00
 -0.243540373713E+00
 -0.253234307168E+00
 -0.253234364310E+00
 -0.252323490166E+00
 -0.252323517292E+00
  0.433898117781E-01
  0.433897970286E-01
  0.424177831728E-01
  0.424178151876E-01
  0.527328682019E-01
  0.527328460942E-01
  0.129048438740E+00
  0.129048426881E+00
  0.281339763420E+00
  0.281339575469E+00
  0.558884735476E+00
  0.558884946402E+00
  0.327594857608E+00
  0.327594543745E+00
 -0.121364184182E-01
 -0.121362106528E-01
 -0.169894633856E+00
 -0.169894622189E+00
 -0.243540373550E+00
 -0.243540352321E+00
 -0.253234363167E+00
 -0.253234393532E+00
 -0.252323516380E+00
 -0.252323502480E+00
  0.433896159304E-01
  0.433898118485E-01
  0.424178456762E-01
  0.424177833808E-01
  0.527328279712E-01
  0.527328682918E-01
  0.129048426919E+00
  0.129048438039E+00
  0.281339574786E+00
  0.281339644272E+00
  0.558884914954E+00
  0.558884627677E+00
  0.327594403360E+00
  0.327594839175E+00
 -0.121363410500E-01
 -0.121364183887E-01
 -0.169894622983E+00
 -0.169894633906E+00
 -0.243540352736E+00
 -0.243540391748E+00
 -0.253234394774E+00
 -0.253234335386E+00
 -0.252323502889E+00
 -0.252323687928E+00
  0.433897938075E-01
  0.433896159290E-01
  0.424178487478E-01
  0.424178458909E-01
  0.527328620496E-01
  0.527328282855E-01
  0.129048438054E+00
  0.129048433968E+00
  0.281339653575E+00
  0.281339655591E+00
  0.558884790810E+00
  0.558885619582E+00
  0.327595817029E+00
  0.327594498982E+00
 -0.121363391722E-01
 -0.121363414513E-01
 -0.169894627002E+00
 -0.169894623003E+00
 -0.243540393199E+00
 -0.243540359970E+00
 -0.253234336668E+00
 -0.253234333913E+00
 -0.252323687920E+00
 -0.252323519076E+00
  0.433897187533E-01
  0.433897947667E-01
  0.424177879594E-01
  0.424178489426E-01
  0.527328049173E-01
  0.527328614578E-01
  0.129048433909E+00
  0.129048449183E+00
  0.281339643078E+00
  0.281339691297E+00
  0.558885438903E+00
  0.558885023685E+00
  0.327594967752E+00
  0.327595711123E+00
 -0.121362822396E-01
 -0.121363386324E-01
 -0.169894612092E+00
 -0.169894626925E+00
 -0.243540357237E+00
 -0.243540414884E+00
 -0.253234335076E+00
 -0.253234395316E+00
 -0.252323524654E+00
 -0.252323597567E+00
  0.417287079744E-01
  0.408101992122E-01
  0.408096144973E-01
  0.505274448354E-01
  0.505276147536E-01
  0.120112827058E+00
  0.120112906128E+00
  0.249072624310E+00
  0.249072748761E+00
  0.474069956171E+00
  0.277879931333E+00
 -0.107440089950E-01
 -0.107443626346E-01
 -0.158130516094E+00
 -0.158130704316E+00
 -0.233355996888E+00
 -0.233356077366E+00
 -0.243633592119E+00
 -0.243633386321E+00
 -0.242664345851E+00
 -0.441447860356E-01
 -0.451661221824E-01
 -0.451594495031E-01
 -0.344371160698E-01
 -0.344388363698E-01
  0.390285361122E-01
  0.390285216163E-01
  0.163251473339E+00
  0.163251435091E+00
  0.366484773257E+00
  0.294996106664E+00
  0.616803922356E-01
  0.616808021768E-01
 -0.774509437323E-01
 -0.774504180523E-01
 -0.158582203113E+00
 -0.158582278382E+00
 -0.170352172109E+00
 -0.170350805159E+00
 -0.169230463156E+00
SCALARS C_p_inc float 1
LOOKUP_TABLE default
  0.135644664854E+00
  0.115658578145E+00
  0.772913663036E-01
  0.590963070092E-01
  0.258101646778E-01
  0.130176338251E-01
  0.552107115570E-01
  0.324699839353E-01
  0.252504773209E+00
  0.187416705468E+00
  0.596751084804E+00
  0.597522273378E+00
 -0.549970608340E+00
  0.813413597207E-02
 -0.663878294623E+00
 -0.466752298626E+00
 -0.469831965457E+00
 -0.481136353341E+00
 -0.338297800538E+00
 -0.276762663454E+00
 -0.151426319619E+00
 -0.723619259206E-01
  0.122849021768E-01
  0.991178436418E-01
  0.130671420033E+00
  0.134323621273E+00
  0.791354977966E-01
  0.771588507078E-01
  0.334414876810E-01
  0.259330791373E-01
  0.331601129727E-01
  0.284111404500E-01
  0.181766088887E+00
  0.184503379997E+00
  0.524513158127E+00
  0.508850760853E+00
 -0.840525161940E+00
 -0.523593916009E+00
 -0.803878239236E+00
 -0.658910594870E+00
 -0.482904589975E+00
 -0.487763430166E+00
 -0.277460453844E+00
 -0.222790535424E+00
 -0.721107215170E-01
 -0.259427390687E-01
  0.959734832989E-01
  0.112361142136E+00
  0.128996753424E+00
  0.129909415907E+00
  0.766221330028E-01
  0.788520360782E-01
  0.352667525039E-01
  0.335636397140E-01
  0.285774691951E-01
  0.384775333477E-01
  0.182987371444E+00
  0.204601295527E+00
  0.512179236603E+00
  0.493979454244E+00
 -0.103603347915E+01
 -0.834614604277E+00
 -0.884390536540E+00
 -0.808229712264E+00
 -0.485760305804E+00
 -0.498925475518E+00
 -0.224227755662E+00
 -0.198344794955E+00
 -0.259398386688E-01
 -0.111323254098E-01
  0.112472896627E+00
  0.119571848280E+00
  0.126000857283E+00
  0.128101371244E+00
  0.729836655097E-01
  0.762384140902E-01
  0.339436705251E-01
  0.352452345488E-01
  0.384707461073E-01
  0.439839710009E-01
  0.205209709583E+00
  0.221941577844E+00
  0.504744274746E+00
  0.490943627177E+00
 -0.113683902239E+01
 -0.103603306315E+01
 -0.922755164490E+00
 -0.891358002830E+00
 -0.491822280872E+00
 -0.494645785253E+00
 -0.199818573771E+00
 -0.191617103435E+00
 -0.110790331540E-01
 -0.321718923283E-02
  0.120732130460E+00
  0.127190993894E+00
  0.115560126743E+00
  0.124547387202E+00
  0.608390251210E-01
  0.723485227779E-01
  0.243576554537E-01
  0.337980250179E-01
  0.438431986988E-01
  0.388016382334E-01
  0.221715996030E+00
  0.223712723260E+00
  0.495096014999E+00
  0.490939841623E+00
 -0.116297857038E+01
 -0.113741656493E+01
 -0.928221622301E+00
 -0.926831842366E+00
 -0.485420828465E+00
 -0.496566177816E+00
 -0.193118259391E+00
 -0.179111638083E+00
 -0.328122914196E-02
  0.132038114589E-01
  0.128811174115E+00
  0.143826633416E+00
  0.938084544494E-01
  0.112348388311E+00
  0.332899821667E-01
  0.594081298769E-01
 -0.212389310717E-02
  0.239900962391E-01
  0.382701308484E-01
  0.153595616462E-01
  0.221815963689E+00
  0.206634589468E+00
  0.488437320276E+00
  0.495342734499E+00
 -0.111724667413E+01
 -0.116392089182E+01
 -0.894722769853E+00
 -0.933148115192E+00
 -0.453119778611E+00
 -0.491962797347E+00
 -0.180950015556E+00
 -0.143528009167E+00
  0.128014062652E-01
  0.542288349802E-01
  0.146387097049E+00
  0.183713022764E+00
  0.590328185653E-01
  0.860410812407E-01
 -0.421193713048E-02
  0.294958172425E-01
 -0.398639278487E-01
 -0.336671277475E-02
  0.135011194296E-01
 -0.308526875112E-01
  0.201121345596E+00
  0.165445837103E+00
  0.483456365216E+00
  0.500419317125E+00
 -0.101341377477E+01
 -0.111902332303E+01
 -0.823936333885E+00
 -0.903951530115E+00
 -0.385074530312E+00
 -0.467447437719E+00
 -0.146417401906E+00
 -0.719693366149E-01
  0.522955039197E-01
  0.128566493217E+00
  0.187197004756E+00
  0.259495948009E+00
 -0.390181953308E-01
  0.401915212081E-01
 -0.588359877339E-01
 -0.137062967019E-01
 -0.729498990401E-01
 -0.446758237495E-01
 -0.369592560947E-01
 -0.714863552062E-01
  0.148868984616E+00
  0.875157099390E-01
  0.465306759707E+00
  0.494666702130E+00
 -0.872850757624E+00
 -0.101552775438E+01
 -0.715900297400E+00
 -0.842323328782E+00
 -0.268408603369E+00
 -0.423910071028E+00
 -0.793590490494E-01
  0.612614170970E-02
  0.118721201018E+00
  0.215156848351E+00
  0.255009964925E+00
  0.363068588905E+00
 -0.116952083538E+03
 -0.319036599068E+00
 -0.613639990278E+00
 -0.885666225153E-01
 -0.124187757252E+00
 -0.932584045448E-01
 -0.960186936572E-01
 -0.972732317942E-01
  0.341554680063E-01
  0.123110654015E-01
  0.334389441226E+00
  0.423010878327E+00
 -0.659108689225E+00
 -0.872230265351E+00
 -0.468978181016E+00
 -0.790693212401E+00
 -0.162879605126E+00
 -0.390452739530E+00
 -0.307298002668E-01
  0.126308003427E-01
  0.155746357919E+00
 -0.418764061497E-01
  0.364152668594E+00
 -0.121926519747E+03
 -0.287455618219E+03
 -0.525076418015E+01
 -0.632954751786E+00
 -0.409283952350E+00
 -0.240915561828E+00
 -0.243957223106E+00
 -0.228498147590E+00
 -0.187297168602E+00
 -0.223370182211E+00
 -0.755422638241E-01
 -0.660018894881E+00
 -0.413036933388E+00
 -0.645762008898E+00
 -0.245276521842E+00
 -0.514178082411E+00
 -0.179090832792E+00
 -0.468635565191E+00
 -0.872053464449E+00
 -0.315325834910E+00
 -0.249799909545E+03
 -0.193141572809E+03
 -0.813092588816E+01
 -0.116345086722E+01
 -0.841863217404E+00
 -0.439604985043E+00
 -0.486076473502E+00
 -0.418550312380E+00
 -0.427168202754E+00
 -0.466297244781E+00
 -0.352227103054E+00
 -0.554815481201E+00
 -0.529018310745E+00
 -0.571301360339E+00
 -0.404774967642E+00
 -0.608481767418E+00
 -0.440343368796E+00
 -0.871460409189E+00
 -0.152597638496E+01
 -0.593152192579E+00
 -0.161675658071E+03
SCALARS inclination float 1
LOOKUP_TABLE default
  0.100000000000E+01
  0.100000000000E+01
  0.100000000000E+01
  0.100000000000E+01
  0.100000000000E+01
  0.100000000000E+01
  0.100000000000E+01
  0.100000000000E+01
  0.100000000000E+01
  0.100000000000E+01
  0.100000000000E+01
  0.100000000000E+01
  0.100000000000E+01
  0.100000000000E+01
  0.100000000000E+01
  0.100000000000E+01
  0.100000000000E+01
  0.100000000000E+01
  0.100000000000E+01
  0.100000000000E+01
  0.100000000000E+01
  0.100000000000E+01
  0.100000000000E+01
  0.100000000000E+01
  0.100000000000E+01
  0.100000000000E+01
  0.100000000000E+01
  0.100000000000E+01
  0.100000000000E+01
  0.100000000000E+01
  0.100000000000E+01
  0.100000000000E+01
  0.100000000000E+01
  0.100000000000E+01
  0.100000000000E+01
  0.100000000000E+01
  0.100000000000E+01
  0.100000000000E+01
  0.100000000000E+01
  0.100000000000E+01
  0.100000000000E+01
  0.100000000000E+01
  0.100000000000E+01
  0.100000000000E+01
  0.100000000000E+01
  0.100000000000E+01
  0.100000000000E+01
  0.100000000000E+01
  0.100000000000E+01
  0.100000000000E+01
  0.100000000000E+01
  0.100000000000E+01
  0.100000000000E+01
  0.100000000000E+01
  0.100000000000E+01
  0.100000000000E+01
  0.100000000000E+01
  0.100000000000E+01
  0.100000000000E+01
  0.100000000000E+01
  0.100000000000E+01
  0.100000000000E+01
  0.100000000000E+01
  0.100000000000E+01
  0.100000000000E+01
  0.100000000000E+01
  0.100000000000E+01
  0.100000000000E+01
  0.100000000000E+01
  0.100000000000E+01
  0.100000000000E+01
  0.100000000000E+01
  0.100000000000E+01
  0.100000000000E+01
  0.100000000000E+01
  0.100000000000E+01
  0.100000000000E+01
  0.100000000000E+01
  0.100000000000E+01
  0.100000000000E+01
  0.100000000000E+01
  0.100000000000E+01
  0.100000000000E+01
  0.100000000000E+01
  0.100000000000E+01
  0.100000000000E+01
  0.100000000000E+01
  0.100000000000E+01
  0.100000000000E+01
  0.100000000000E+01
  0.100000000000E+01
  0.100000000000E+01
  0.100000000000E+01
  0.100000000000E+01
  0.100000000000E+01
  0.100000000000E+01
  0.100000000000E+01
  0.100000000000E+01
  0.100000000000E+01
  0.100000000000E+01
  0.100000000000E+01
  0.100000000000E+01
  0.100000000000E+01
  0.100000000000E+01
  0.100000000000E+01
  0.100000000000E+01
  0.100000000000E+01
  0.100000000000E+01
  0.100000000000E+01
  0.100000000000E+01
  0.100000000000E+01
  0.100000000000E+01
  0.100000000000E+01
  0.100000000000E+01
  0.100000000000E+01
  0.100000000000E+01
  0.100000000000E+01
  0.100000000000E+01
  0.100000000000E+01
  0.100000000000E+01
  0.100000000000E+01
  0.100000000000E+01
  0.100000000000E+01
  0.100000000000E+01
  0.100000000000E+01
  0.100000000000E+01
  0.100000000000E+01
  0.100000000000E+01
  0.100000000000E+01
  0.100000000000E+01
  0.100000000000E+01
  0.100000000000E+01
  0.100000000000E+01
  0.100000000000E+01
  0.100000000000E+01
  0.100000000000E+01
  0.100000000000E+01
  0.100000000000E+01
  0.100000000000E+01
  0.100000000000E+01
  0.100000000000E+01
  0.100000000000E+01
  0.100000000000E+01
  0.100000000000E+01
  0.100000000000E+01
  0.100000000000E+01
  0.100000000000E+01
  0.100000000000E+01
  0.100000000000E+01
  0.100000000000E+01
  0.100000000000E+01
  0.100000000000E+01
  0.100000000000E+01
  0.100000000000E+01
  0.100000000000E+01
  0.100000000000E+01
  0.100000000000E+01
  0.100000000000E+01
  0.100000000000E+01
  0.100000000000E+01
  0.100000000000E+01
  0.100000000000E+01
  0.100000000000E+01
  0.100000000000E+01
  0.100000000000E+01
  0.100000000000E+01
  0.100000000000E+01
  0.100000000000E+01
  0.100000000000E+01
  0.100000000000E+01
  0.100000000000E+01
  0.100000000000E+01
  0.100000000000E+01
  0.100000000000E+01
  0.100000000000E+01
  0.100000000000E+01
  0.100000000000E+01
  0.100000000000E+01
  0.100000000000E+01
  0.100000000000E+01
  0.100000000000E+01
  0.100000000000E+01
  0.100000000000E+01
  0.100000000000E+01
  0.100000000000E+01
  0.100000000000E+01
  0.100000000000E+01
  0.100000000000E+01
  0.100000000000E+01
  0.100000000000E+01
  0.100000000000E+01
  0.100000000000E+01
  0.100000000000E+01
  0.100000000000E+01
  0.100000000000E+01
  0.100000000000E+01
  0.100000000000E+01
  0.100000000000E+01
  0.100000000000E+01
  0.100000000000E+01
  0.100000000000E+01
  0.100000000000E+01
  0.100000000000E+01
  0.100000000000E+01
  0.100000000000E+01
  0.100000000000E+01
  0.100000000000E+01
  0.100000000000E+01
  0.100000000000E+01
  0.100000000000E+01
  0.100000000000E+01
  0.100000000000E+01
  0.100000000000E+01
  0.100000000000E+01
  0.100000000000E+01
  0.100000000000E+01
  0.100000000000E+01
  0.100000000000E+01
  0.100000000000E+01
  0.100000000000E+01
  0.100000000000E+01
  0.100000000000E+01
  0.100000000000E+01
  0.100000000000E+01
  0.100000000000E+01
  0.100000000000E+01
  0.100000000000E+01
  0.100000000000E+01
  0.100000000000E+01
  0.100000000000E+01
  0.100000000000E+01
  0.100000000000E+01
  0.100000000000E+01
  0.100000000000E+01
  0.100000000000E+01
  0.100000000000E+01
  0.100000000000E+01
  0.100000000000E+01
  0.100000000000E+01
  0.100000000000E+01
  0.100000000000E+01
  0.100000000000E+01
  0.100000000000E+01
  0.100000000000E+01
  0.100000000000E+01
  0.100000000000E+01
  0.100000000000E+01
  0.100000000000E+01
  0.100000000000E+01
  0.100000000000E+01
  0.100000000000E+01
  0.100000000000E+01
  0.100000000000E+01
  0.100000000000E+01
  0.100000000000E+01
  0.100000000000E+01
VECTORS v float
  0.150685794962E+03  0.327922328919E+01  0.157510250704E+02
  0.152422644264E+03  0.277866493370E+01  0.159901148864E+02
  0.155665496275E+03 -0.464203114053E+00  0.168369674709E+02
  0.157203805675E+03  0.495482141471E+00  0.168993549556E+02
  0.160084796769E+03 -0.238552340118E+01  0.158245649631E+02
  0.161166232409E+03 -0.592692183059E+00  0.157552763798E+02
  0.158388488776E+03  0.218505583064E+01  0.322781021309E+01
  0.160229419432E+03 -0.460822623669E+01  0.340622902789E+01
  0.138900410795E+03  0.167208025278E+02 -0.169496703363E+02
  0.145510023072E+03 -0.128435166024E+01 -0.203644096125E+02
  0.817937070047E+02  0.624319900796E+02 -0.112230359973E+02
  0.820857387185E+02  0.617805030359E+02 -0.117699474204E+02
  0.167955386309E+03 -0.240891445550E+02  0.111318778368E+03
  0.144819336011E+03  0.275245560310E+02  0.679900204004E+02
  0.205059095410E+03 -0.327152181735E+02  0.329858196720E+02
  0.195321195585E+03 -0.618833904356E+01  0.279549072149E+02
  0.197397080236E+03 -0.826421628933E+01 -0.424981571621E+01
  0.198041549742E+03 -0.106423957819E+02 -0.431228011134E+01
  0.187675338845E+03 -0.276149715575E+00 -0.183064249204E+02
  0.183067282093E+03 -0.791550035533E+01 -0.186016742883E+02
  0.173908002675E+03  0.124382447206E+01 -0.186200266480E+02
  0.167771889441E+03 -0.258423859994E+01 -0.183711413396E+02
  0.161072598629E+03  0.411508534781E+01 -0.167715973431E+02
  0.153779930882E+03  0.621682842380E+01 -0.157677491918E+02
  0.151049480737E+03  0.654361581035E+01  0.154410654539E+02
  0.150724891123E+03  0.674242552056E+01  0.153851421947E+02
  0.155526085360E+03  0.194120358123E+01  0.165625318229E+02
  0.155692934060E+03  0.192257035703E+01  0.165825360747E+02
  0.159468405375E+03 -0.185291885621E+01  0.157126539045E+02
  0.160092489170E+03 -0.156697543937E+01  0.157455873107E+02
  0.160230658554E+03 -0.170514921039E+01  0.334626416322E+01
  0.160610702163E+03 -0.263946128825E+01  0.337342618632E+01
  0.145764755836E+03  0.122064969008E+02 -0.185281994199E+02
  0.145483158278E+03  0.127476462494E+02 -0.184140671614E+02
  0.849723784080E+02  0.732584528706E+02 -0.678998471265E+01
  0.794922628698E+02  0.820254122247E+02  0.146834195966E+01
  0.184309941695E+03 -0.227922666009E+02  0.120046953327E+03
  0.172880145342E+03 -0.450715167807E+01  0.102822700241E+03
  0.211664936318E+03 -0.432919446943E+02  0.353695235548E+02
  0.205097683603E+03 -0.306715611538E+02  0.327076613676E+02
  0.197136713214E+03 -0.227105662887E+02 -0.454296520826E+01
  0.197390647598E+03 -0.233348470691E+02 -0.456111052131E+01
  0.183057078844E+03 -0.900122947380E+01 -0.187064307424E+02
  0.178964034290E+03 -0.108765861514E+02 -0.184904310414E+02
  0.167804846545E+03  0.282654041207E+00 -0.180655291250E+02
  0.164155561813E+03  0.690200346593E+00 -0.176280396964E+02
  0.153834060977E+03  0.110117607461E+02 -0.152611706924E+02
  0.152369934075E+03  0.119085310644E+02 -0.150088937733E+02
  0.151147052461E+03  0.786421114082E+01  0.153103877693E+02
  0.151065098679E+03  0.792707963823E+01  0.152949043206E+02
  0.155731315991E+03  0.326083490597E+01  0.164423454433E+02
  0.155542265909E+03  0.334872680875E+01  0.164124890931E+02
  0.159341046484E+03 -0.450071364832E+00  0.155636112090E+02
  0.159481429929E+03 -0.466976133845E+00  0.155789312033E+02
  0.160611147248E+03 -0.159670064595E+01  0.335188717425E+01
  0.159799157587E+03 -0.744311411366E-01  0.330365117852E+01
  0.145510843923E+03  0.142138970433E+02 -0.182144986126E+02
  0.143230453601E+03  0.177467024162E+02 -0.174080410696E+02
  0.793836491220E+02  0.815935367898E+02  0.128096405130E+01
  0.739589234323E+02  0.888804138062E+02  0.864925237070E+01