# vtk DataFile Version 3.0
MachLine results file. Generated by MachLine, USU AeroLab (c) 2022.
ASCII
DATASET POLYDATA
POINTS                  80 float
  0.287832584381E+02  0.978319931030E+01  0.000000000000E+00
  0.993995615158E+04  0.978319931030E+01  0.109420367426E+04
  0.273264064789E+02  0.832635498047E+01  0.000000000000E+00
  0.993993860873E+04  0.832635498047E+01  0.109436257547E+04
  0.530148696899E+02  0.340146598816E+02  0.000000000000E+00
  0.994024793942E+04  0.340146598816E+02  0.109156069315E+04
  0.510328712463E+02  0.320326728821E+02  0.000000000000E+00
  0.994022407295E+04  0.320326728821E+02  0.109177687293E+04
  0.662720489502E+02  0.472717590332E+02  0.000000000000E+00
  0.994040757732E+04  0.472717590332E+02  0.109011471112E+04
  0.656565246582E+02  0.466562423706E+02  0.000000000000E+00
  0.994040016541E+04  0.466562423706E+02  0.109018184736E+04
  0.303820724487E+02  0.113820018768E+02  0.000000000000E+00
  0.993997540389E+04  0.113820018768E+02  0.109402928903E+04
  0.548812789917E+02  0.358810577393E+02  0.000000000000E+00
  0.994027041401E+04  0.358810577393E+02  0.109135712086E+04
  0.668050155640E+02  0.478047180176E+02  0.000000000000E+00
  0.994041399510E+04  0.478047180176E+02  0.109005657959E+04
  0.321190223694E+02  0.131189413071E+02  0.000000000000E+00
  0.993999631958E+04  0.131189413071E+02  0.109383983709E+04
  0.566182289124E+02  0.376179962158E+02  0.000000000000E+00
  0.994029132969E+04  0.376179962158E+02  0.109116766892E+04
  0.672649307251E+02  0.482646369934E+02  0.000000000000E+00
  0.994041953322E+04  0.482646369934E+02  0.109000641590E+04
  0.339854316711E+02  0.149853391647E+02  0.000000000000E+00
  0.994001879417E+04  0.149853391647E+02  0.109363626480E+04
  0.582170410156E+02  0.392168006897E+02  0.000000000000E+00
  0.994031058198E+04  0.392168006897E+02  0.109099328389E+04
  0.676606597900E+02  0.486603622437E+02  0.000000000000E+00
  0.994042429844E+04  0.486603622437E+02  0.108996325309E+04
  0.359674301147E+02  0.169673271179E+02  0.000000000000E+00
  0.994004266064E+04  0.169673271179E+02  0.109342008502E+04
  0.596738929749E+02  0.406736450195E+02  0.000000000000E+00
  0.994032812484E+04  0.406736450195E+02  0.109083438269E+04
  0.380459861755E+02  0.190458717346E+02  0.000000000000E+00
  0.994006768982E+04  0.190458717346E+02  0.109319337354E+04
  0.680002975464E+02  0.490000000000E+02  0.000000000000E+00
  0.994042838823E+04  0.490000000000E+02  0.108992620825E+04
  0.401973724365E+02  0.211972446442E+02  0.000000000000E+00
  0.994009359600E+04  0.211972446442E+02  0.109295871835E+04
  0.423940925598E+02  0.233939495087E+02  0.000000000000E+00
  0.994012004806E+04  0.233939495087E+02  0.109271911853E+04
  0.446062088013E+02  0.256060504913E+02  0.000000000000E+00
  0.994014668552E+04  0.256060504913E+02  0.109247783942E+04
  0.468029289246E+02  0.278027553558E+02  0.000000000000E+00
  0.994017313759E+04  0.278027553558E+02  0.109223823960E+04
  0.489543113708E+02  0.299541282654E+02  0.000000000000E+00
  0.994019904372E+04  0.299541282654E+02  0.109200358483E+04
  0.193396415710E+02  0.339639574289E+00  0.000000000000E+00
  0.993984243515E+04  0.339639574289E+00  0.109523370486E+04
  0.190000000000E+02  0.000000000000E+00  0.000000000000E+00
  0.993983834531E+04  0.000000000000E+00  0.109527075012E+04
  0.197353687286E+02  0.735364913940E+00  0.000000000000E+00
  0.993984720034E+04  0.735364913940E+00  0.109519054226E+04
  0.201952877045E+02  0.119528055191E+01  0.000000000000E+00
  0.993985273851E+04  0.119528055191E+01  0.109514037815E+04
  0.207282505035E+02  0.172824025154E+01  0.000000000000E+00
  0.993985915625E+04  0.172824025154E+01  0.109508224703E+04
  0.213437728882E+02  0.234375929832E+01  0.000000000000E+00
  0.993986656813E+04  0.234375929832E+01  0.109501511101E+04
  0.220518741608E+02  0.305185556412E+01  0.000000000000E+00
  0.993987509482E+04  0.305185556412E+01  0.109493787726E+04
  0.228628253937E+02  0.386280250549E+01  0.000000000000E+00
  0.993988485999E+04  0.386280250549E+01  0.109484942549E+04
  0.237868041992E+02  0.478677463531E+01  0.000000000000E+00
  0.993989598619E+04  0.478677463531E+01  0.109474864563E+04
  0.248334121704E+02  0.583337688446E+01  0.000000000000E+00
  0.993990858904E+04  0.583337688446E+01  0.109463449040E+04
  0.260110912323E+02  0.701104879379E+01  0.000000000000E+00
  0.993992277020E+04  0.701104879379E+01  0.109450603903E+04
  0.609892082214E+02  0.419889526367E+02  0.000000000000E+00
  0.994034396336E+04  0.419889526367E+02  0.109069091912E+04
  0.621668891907E+02  0.431666221619E+02  0.000000000000E+00
  0.994035814455E+04  0.431666221619E+02  0.109056246755E+04
  0.632134971619E+02  0.442132263184E+02  0.000000000000E+00
  0.994037074740E+04  0.442132263184E+02  0.109044831232E+04
  0.641374740601E+02  0.451371994019E+02  0.000000000000E+00
  0.994038187358E+04  0.451371994019E+02  0.109034753267E+04
  0.649484252930E+02  0.459481430054E+02  0.000000000000E+00
  0.994039163875E+04  0.459481430054E+02  0.109025908090E+04
POLYGONS                  78                 312
3                  48                  49                  51
3                  48                  51                  50
3                  52                  53                  49
3                  52                  49                  48
3                  54                  55                  53
3                  54                  53                  52
3                  56                  57                  55
3                  56                  55                  54
3                  58                  59                  57
3                  58                  57                  56
3                  60                  61                  59
3                  60                  59                  58
3                  62                  63                  61
3                  62                  61                  60
3                  64                  65                  63
3                  64                  63                  62
3                  66                  67                  65
3                  66                  65                  64
3                  68                  69                  67
3                  68                  67                  66
3                   2                   3                  69
3                   2                  69                  68
3                   0                   1                   3
3                   0                   3                   2
3                  12                  13                   1
3                  12                   1                   0
3                  18                  19                  13
3                  18                  13                  12
3                  24                  25                  19
3                  24                  19                  18
3                  30                  31                  25
3                  30                  25                  24
3                  34                  35                  31
3                  34                  31                  30
3                  38                  39                  35
3                  38                  35                  34
3                  40                  41                  39
3                  40                  39                  38
3                  42                  43                  41
3                  42                  41                  40
3                  44                  45                  43
3                  44                  43                  42
3                  46                  47                  45
3                  46                  45                  44
3                   6                   7                  47
3                   6                  47                  46
3                   4                   5                   7
3                   4                   7                   6
3                  14                  15                   5
3                  14                   5                   4
3                  20                  21                  15
3                  20                  15                  14
3                  26                  27                  21
3                  26                  21                  20
3                  32                  33                  27
3                  32                  27                  26
3                  70                  71                  33
3                  70                  33                  32
3                  72                  73                  71
3                  72                  71                  70
3                  74                  75                  73
3                  74                  73                  72
3                  76                  77                  75
3                  76                  75                  74
3                  78                  79                  77
3                  78                  77                  76
3                  10                  11                  79
3                  10                  79                  78
3                   8                   9                  11
3                   8                  11                  10
3                  16                  17                   9
3                  16                   9                   8
3                  22                  23                  17
3                  22                  17                  16
3                  28                  29                  23
3                  28                  23                  22
3                  36                  37                  29
3                  36                  29                  28
CELL_DATA                  78
NORMALS normals float
  0.109079521653E+00 -0.109080162922E+00 -0.988029946921E+00
  0.109079521653E+00 -0.109080162922E+00 -0.988029946921E+00
  0.109079523321E+00 -0.109080024428E+00 -0.988029962027E+00
  0.109079523321E+00 -0.109080024428E+00 -0.988029962027E+00
  0.109079519863E+00 -0.109080311530E+00 -0.988029930712E+00
  0.109079519863E+00 -0.109080311530E+00 -0.988029930712E+00
  0.109079521735E+00 -0.109080156076E+00 -0.988029947668E+00
  0.109079521735E+00 -0.109080156076E+00 -0.988029947668E+00
  0.109079522245E+00 -0.109080113776E+00 -0.988029952282E+00
  0.109079522245E+00 -0.109080113776E+00 -0.988029952282E+00
  0.109079520106E+00 -0.109080291384E+00 -0.988029932909E+00
  0.109079520106E+00 -0.109080291384E+00 -0.988029932909E+00
  0.109079522415E+00 -0.109080099664E+00 -0.988029953821E+00
  0.109079522415E+00 -0.109080099663E+00 -0.988029953821E+00
  0.109079519906E+00 -0.109080308003E+00 -0.988029931097E+00
  0.109079519906E+00 -0.109080308003E+00 -0.988029931097E+00
  0.109079522187E+00 -0.109080118554E+00 -0.988029951760E+00
  0.109079522187E+00 -0.109080118553E+00 -0.988029951760E+00
  0.109079521400E+00 -0.109080183893E+00 -0.988029944634E+00
  0.109079521400E+00 -0.109080183893E+00 -0.988029944634E+00
  0.109079520343E+00 -0.109080271691E+00 -0.988029935057E+00
  0.109079520343E+00 -0.109080271690E+00 -0.988029935057E+00
  0.109079522486E+00 -0.109080093726E+00 -0.988029954468E+00
  0.109079522486E+00 -0.109080093726E+00 -0.988029954468E+00
  0.109079519993E+00 -0.109080300775E+00 -0.988029931885E+00
  0.109079519993E+00 -0.109080300775E+00 -0.988029931885E+00
  0.109079521444E+00 -0.109080180240E+00 -0.988029945032E+00
  0.109079521444E+00 -0.109080180240E+00 -0.988029945032E+00
  0.109079521325E+00 -0.109080190163E+00 -0.988029943950E+00
  0.109079521325E+00 -0.109080190162E+00 -0.988029943950E+00
  0.109079522414E+00 -0.109080099757E+00 -0.988029953811E+00
  0.109079522414E+00 -0.109080099757E+00 -0.988029953811E+00
  0.109079522137E+00 -0.109080122710E+00 -0.988029951307E+00
  0.109079522137E+00 -0.109080122710E+00 -0.988029951307E+00
  0.109079521228E+00 -0.109080198175E+00 -0.988029943076E+00
  0.109079521228E+00 -0.109080198175E+00 -0.988029943076E+00
  0.109079520268E+00 -0.109080277958E+00 -0.988029934374E+00
  0.109079520268E+00 -0.109080277958E+00 -0.988029934374E+00
  0.109079520330E+00 -0.109080272752E+00 -0.988029934942E+00
  0.109079520330E+00 -0.109080272752E+00 -0.988029934942E+00
  0.109079520268E+00 -0.109080277958E+00 -0.988029934374E+00
  0.109079520268E+00 -0.109080277958E+00 -0.988029934374E+00
  0.109079523530E+00 -0.109080007057E+00 -0.988029963922E+00
  0.109079523530E+00 -0.109080007057E+00 -0.988029963922E+00
  0.109079519755E+00 -0.109080320519E+00 -0.988029929732E+00
  0.109079519755E+00 -0.109080320519E+00 -0.988029929732E+00
  0.109079521789E+00 -0.109080151620E+00 -0.988029948154E+00
  0.109079521789E+00 -0.109080151620E+00 -0.988029948154E+00
  0.109079521325E+00 -0.109080190162E+00 -0.988029943950E+00
  0.109079521325E+00 -0.109080190162E+00 -0.988029943950E+00
  0.109079520732E+00 -0.109080239426E+00 -0.988029938577E+00
  0.109079520732E+00 -0.109080239426E+00 -0.988029938577E+00
  0.109079523090E+00 -0.109080043604E+00 -0.988029959935E+00
  0.109079523090E+00 -0.109080043604E+00 -0.988029959935E+00
  0.109079522486E+00 -0.109080093736E+00 -0.988029954467E+00
  0.109079522486E+00 -0.109080093736E+00 -0.988029954467E+00
  0.109079521755E+00 -0.109080154459E+00 -0.988029947844E+00
  0.109079521755E+00 -0.109080154459E+00 -0.988029947844E+00
  0.109079516671E+00 -0.109080576660E+00 -0.988029901794E+00
  0.109079516671E+00 -0.109080576660E+00 -0.988029901794E+00
  0.109079524552E+00 -0.109079922129E+00 -0.988029973185E+00
  0.109079524552E+00 -0.109079922129E+00 -0.988029973185E+00
  0.109079523925E+00 -0.109079974269E+00 -0.988029967498E+00
  0.109079523925E+00 -0.109079974269E+00 -0.988029967498E+00
  0.109079517073E+00 -0.109080543298E+00 -0.988029905433E+00
  0.109079517073E+00 -0.109080543298E+00 -0.988029905433E+00
  0.109079529283E+00 -0.109079529283E+00 -0.988030016033E+00
  0.109079529283E+00 -0.109079529283E+00 -0.988030016033E+00
  0.109079513196E+00 -0.109080865249E+00 -0.988029870316E+00
  0.109079513196E+00 -0.109080865249E+00 -0.988029870316E+00
  0.109079510704E+00 -0.109081072195E+00 -0.988029847744E+00
  0.109079510704E+00 -0.109081072195E+00 -0.988029847744E+00
  0.109079540048E+00 -0.109078635311E+00 -0.988030113540E+00
  0.109079540048E+00 -0.109078635311E+00 -0.988030113540E+00
  0.109079516772E+00 -0.109080568246E+00 -0.988029902711E+00
  0.109079516772E+00 -0.109080568246E+00 -0.988029902711E+00
  0.109079529283E+00 -0.109079529314E+00 -0.988030016030E+00
  0.109079529283E+00 -0.109079529314E+00 -0.988030016030E+00
POINT_DATA                  80
SCALARS mu float 1
LOOKUP_TABLE default
 -0.383969425100E+01
 -0.383969425100E+01
 -0.379702107329E+01
 -0.379702107329E+01
 -0.394897077529E+01
 -0.394897077529E+01
 -0.400136079511E+01
 -0.400136079511E+01
 -0.200461166598E+01
 -0.200461166598E+01
 -0.228558366616E+01
 -0.228558366616E+01
 -0.388202386603E+01
 -0.388202386603E+01
 -0.387750010353E+01
 -0.387750010353E+01
 -0.168739151578E+01
 -0.168739151578E+01
 -0.392244575964E+01
 -0.392244575964E+01
 -0.378480087161E+01
 -0.378480087161E+01
 -0.130769301417E+01
 -0.130769301417E+01
 -0.396015873445E+01
 -0.396015873445E+01
 -0.367030414215E+01
 -0.367030414215E+01
 -0.800914377695E+00
 -0.800914377695E+00
 -0.399420393405E+01
 -0.399420393405E+01
 -0.353335687797E+01
 -0.353335687797E+01
 -0.402281122671E+01
 -0.402281122671E+01
  0.000000000000E+00
  0.000000000000E+00
 -0.404469374142E+01
 -0.404469374142E+01
 -0.405881676051E+01
 -0.405881676051E+01
 -0.406324922822E+01
 -0.406324922822E+01
 -0.405635760578E+01
 -0.405635760578E+01
 -0.403645396111E+01
 -0.403645396111E+01
 -0.350235200609E+01
 -0.350235200609E+01
 -0.349421270219E+01
 -0.349421270219E+01
 -0.351454545148E+01
 -0.351454545148E+01
 -0.353049507606E+01
 -0.353049507606E+01
 -0.355190716407E+01
 -0.355190716407E+01
 -0.357693040337E+01
 -0.357693040337E+01
 -0.360647794872E+01
 -0.360647794872E+01
 -0.363846550410E+01
 -0.363846550410E+01
 -0.367462500277E+01
 -0.367462500277E+01
 -0.371366037451E+01
 -0.371366037451E+01
 -0.375486954565E+01
 -0.375486954565E+01
 -0.337437297816E+01
 -0.337437297816E+01
 -0.319479497187E+01
 -0.319479497187E+01
 -0.299556369918E+01
 -0.299556369918E+01
 -0.277853630412E+01
 -0.277853630412E+01
 -0.254192169571E+01
 -0.254192169571E+01
