# vtk DataFile Version 3.0
MachLine results file. Generated by MachLine, USU AeroLab (c) 2022.
ASCII
DATASET POLYDATA
POINTS                 144 float
  0.312930634121E-04  0.000000000000E+00  0.387506237003E-20
  0.113539063053E+01  0.000000000000E+00 -0.658087935210E+00
  0.113539063053E+01  0.000000000000E+00  0.658087935210E+00
  0.192378249374E+01  0.192372498306E+01  0.118693775247E-20
  0.305914835645E+01  0.192374081896E+01 -0.658086193634E+00
  0.305914835645E+01  0.192374081896E+01  0.658086193634E+00
  0.423028253315E+01  0.000000000000E+00 -0.108742011765E+01
  0.423028253315E+01  0.000000000000E+00  0.108742011765E+01
  0.547037632114E+01  0.547028701656E+01  0.184311801238E-20
  0.615404028205E+01  0.192375045511E+01 -0.108741647537E+01
  0.615404028205E+01  0.192375045511E+01  0.108741647537E+01
  0.660573385881E+01  0.547031260802E+01 -0.658068469811E+00
  0.660573385881E+01  0.547031260802E+01  0.658068469811E+00
  0.939508564654E+01  0.000000000000E+00 -0.980702541365E+00
  0.939508564654E+01  0.000000000000E+00  0.980702541365E+00
  0.970062414602E+01  0.547032722042E+01 -0.108739780002E+01
  0.970062414602E+01  0.547032722042E+01  0.108739780002E+01
  0.113188445158E+02  0.192375687882E+01 -0.980693094219E+00
  0.113188445158E+02  0.192375687882E+01  0.980693094219E+00
  0.113820643673E+02  0.113819393863E+02  0.103177094566E-19
  0.125174139439E+02  0.113819753230E+02 -0.658047284009E+00
  0.125174139439E+02  0.113819753230E+02  0.658047284009E+00
  0.145401991734E+02  0.000000000000E+00 -0.479574165270E+00
  0.145401991734E+02  0.000000000000E+00  0.479574165270E+00
  0.148654325708E+02  0.547033565208E+01 -0.980679907908E+00
  0.148654325708E+02  0.547033565208E+01  0.980679907908E+00
  0.156123048447E+02  0.113819959977E+02 -0.108737528443E+01
  0.156123048447E+02  0.113819959977E+02  0.108737528443E+01
  0.164639622288E+02  0.192375787923E+01 -0.479572980793E+00
  0.164639622288E+02  0.192375787923E+01  0.479572980793E+00
  0.176505079470E+02  0.000000000000E+00 -0.144172424756E+00
  0.176505079470E+02  0.000000000000E+00  0.144172424756E+00
  0.189999778925E+02  0.000000000000E+00 -0.165542730925E-05
  0.195742705951E+02  0.192375720641E+01 -0.144166632792E+00
  0.195742705951E+02  0.192375720641E+01  0.144166632792E+00
  0.197562681851E+02  0.197561219516E+02  0.150902427192E-19
  0.200105551723E+02  0.547033748596E+01 -0.479557181615E+00
  0.200105551723E+02  0.547033748596E+01  0.479557181615E+00
  0.207771191273E+02  0.113820071544E+02 -0.980659764437E+00
  0.207771191273E+02  0.113820071544E+02  0.980659764437E+00
  0.208916146114E+02  0.197561629460E+02 -0.658032293233E+00
  0.208916146114E+02  0.197561629460E+02  0.658032293233E+00
  0.209237410836E+02  0.192377783745E+01 -0.254601661134E-05
  0.231208669354E+02  0.547033723104E+01 -0.144147288307E+00
  0.231208669354E+02  0.547033723104E+01  0.144147288307E+00
  0.239865086400E+02  0.197561881221E+02 -0.108735995859E+01
  0.239865086400E+02  0.197561881221E+02  0.108735995859E+01
  0.244703257500E+02  0.547037144337E+01 -0.420209809024E-05
  0.259222501778E+02  0.113820100762E+02 -0.479534889879E+00
  0.259222501778E+02  0.113820100762E+02  0.479534889879E+00
  0.290325693319E+02  0.113820100595E+02 -0.144123159709E+00
  0.290325693319E+02  0.113820100595E+02  0.144123159709E+00
  0.291513358854E+02  0.197562015750E+02 -0.980641566995E+00
  0.291513358854E+02  0.197562015750E+02  0.980641566995E+00
  0.292438739780E+02  0.292437358852E+02  0.570007673422E-20
  0.303792302038E+02  0.292437728021E+02 -0.658034298375E+00
  0.303792302038E+02  0.292437728021E+02  0.658034298375E+00
  0.303820150452E+02  0.113820592806E+02 -0.606459828689E-05
  0.334741318570E+02  0.292437979831E+02 -0.108736325854E+01
  0.334741318570E+02  0.292437979831E+02  0.108736325854E+01
  0.342964796805E+02  0.197562051036E+02 -0.479518310694E+00
  0.342964796805E+02  0.197562051036E+02  0.479518310694E+00
  0.374068082499E+02  0.197562052085E+02 -0.144105313513E+00
  0.374068082499E+02  0.197562052085E+02  0.144105313513E+00
  0.376180497188E+02  0.376179427128E+02  0.220844969606E-20
  0.386389740370E+02  0.292438117601E+02 -0.980639078250E+00
  0.386389740370E+02  0.292438117601E+02  0.980639078250E+00
  0.387534178424E+02  0.376179696393E+02 -0.658052759190E+00
  0.387534178424E+02  0.376179696393E+02  0.658052759190E+00
  0.387562492294E+02  0.197562629782E+02 -0.717453034836E-05
  0.418483373371E+02  0.376179903301E+02 -0.108738447037E+01
  0.418483373371E+02  0.376179903301E+02  0.108738447037E+01
  0.435297029672E+02  0.435296308340E+02 -0.148872652358E-20
  0.437841353047E+02  0.292438149822E+02 -0.479519620832E+00
  0.437841353047E+02  0.292438149822E+02  0.479519620832E+00
  0.446650848654E+02  0.435296478006E+02 -0.658076458324E+00
  0.446650848654E+02  0.435296478006E+02  0.658076458324E+00
  0.468944715132E+02  0.292438150774E+02 -0.144105707172E+00
  0.468944715132E+02  0.292438150774E+02  0.144105707172E+00
  0.470131928898E+02  0.376180021786E+02 -0.980656468792E+00
  0.470131928898E+02  0.376180021786E+02  0.980656468792E+00
  0.470762711240E+02  0.470762252138E+02 -0.189503762973E-20
  0.477600142238E+02  0.435296624425E+02 -0.108741098466E+01
  0.477600142238E+02  0.435296624425E+02  0.108741098466E+01
  0.482116561869E+02  0.470762352010E+02 -0.658095644386E+00
  0.482116561869E+02  0.470762352010E+02  0.658095644386E+00
  0.482439203362E+02  0.292438688182E+02 -0.674948747450E-05
  0.490000098337E+02  0.489999829894E+02  0.328552793022E-20
  0.501354069086E+02  0.489999871344E+02 -0.658111061843E+00
  0.501354069086E+02  0.489999871344E+02  0.658111061843E+00
  0.506007778866E+02  0.494653516704E+02 -0.465360197472E+00
  0.506007778866E+02  0.494653516704E+02  0.465360197472E+00
  0.507935375703E+02  0.496581169850E+02 -0.771259651005E-15
  0.513065943267E+02  0.470762448761E+02 -0.108743228644E+01
  0.513065943267E+02  0.470762448761E+02  0.108743228644E+01
  0.521583703386E+02  0.376180044784E+02 -0.479538356774E+00
  0.521583703386E+02  0.376180044784E+02  0.479538356774E+00
  0.529248840674E+02  0.435296714441E+02 -0.980682430110E+00
  0.529248840674E+02  0.435296714441E+02  0.980682430110E+00
  0.532303491166E+02  0.489999893063E+02 -0.108744779990E+01
  0.532303491166E+02  0.489999893063E+02  0.108744779990E+01
  0.539993229218E+02  0.497689436952E+02 -0.768946532731E+00
  0.539993229218E+02  0.497689436952E+02  0.768946532731E+00
  0.543178430301E+02  0.500874571974E+02 -0.157374059169E-15
  0.552687143289E+02  0.376180044211E+02 -0.144124171041E+00
  0.552687143289E+02  0.376180044211E+02  0.144124171041E+00
  0.564714741318E+02  0.470762515457E+02 -0.980703384050E+00
  0.564714741318E+02  0.470762515457E+02  0.980703384050E+00
  0.566181803863E+02  0.376180447422E+02 -0.512671807591E-05
  0.580700700039E+02  0.435296728856E+02 -0.479561446547E+00
  0.580700700039E+02  0.435296728856E+02  0.479561446547E+00
  0.583952342525E+02  0.489999966035E+02 -0.980715337112E+00
  0.583952342525E+02  0.489999966035E+02  0.980715337112E+00
  0.590887388161E+02  0.496934812578E+02 -0.693469805575E+00
  0.590887388161E+02  0.496934812578E+02  0.693469805575E+00
  0.593759966941E+02  0.499807194883E+02 -0.424930093259E-20
  0.611804219244E+02  0.435296725276E+02 -0.144148458102E+00
  0.611804219244E+02  0.435296725276E+02  0.144148458102E+00
  0.616166681578E+02  0.470762525270E+02 -0.479577866536E+00
  0.616166681578E+02  0.470762525270E+02  0.479577866536E+00
  0.625299026009E+02  0.435296982293E+02 -0.330981405380E-05
  0.635404285646E+02  0.489999966685E+02 -0.479587400581E+00
  0.635404285646E+02  0.489999966685E+02  0.479587400581E+00
  0.638795744263E+02  0.493391226712E+02 -0.339121163529E+00
  0.638795744263E+02  0.493391226712E+02  0.339121163529E+00
  0.640200547551E+02  0.494795968058E+02  0.296949892487E-15
  0.647270242582E+02  0.470762518038E+02 -0.144167179154E+00
  0.647270242582E+02  0.470762518038E+02  0.144167179154E+00
  0.660765195290E+02  0.470762667259E+02 -0.196051129310E-05
  0.666507849833E+02  0.489999978860E+02 -0.144179063945E+00
  0.666507849833E+02  0.489999978860E+02  0.144179063945E+00
  0.667527523879E+02  0.491019555434E+02 -0.101954743525E+00
  0.667527523879E+02  0.491019555434E+02  0.101954743525E+00
  0.667949891457E+02  0.491441877800E+02 -0.260490388611E-16
  0.680002928756E+02  0.489999838682E+02  0.822676812894E-21
  0.482439203362E+02  0.292438688182E+02  0.674948747450E-05
  0.387562492294E+02  0.197562629782E+02  0.717453034836E-05
  0.303820150452E+02  0.113820592806E+02  0.606459828689E-05
  0.244703257500E+02  0.547037144337E+01  0.420209809024E-05
  0.660765195290E+02  0.470762667259E+02  0.196051129310E-05
  0.625299026009E+02  0.435296982293E+02  0.330981405380E-05
  0.566181803863E+02  0.376180447422E+02  0.512671807591E-05
  0.209237410836E+02  0.192377783745E+01  0.254601661134E-05
  0.189999778925E+02  0.000000000000E+00  0.165542730925E-05
VERTICES                 144                 288
1                   0
1                   1
1                   2
1                   3
1                   4
1                   5
1                   6
1                   7
1                   8
1                   9
1                  10
1                  11
1                  12
1                  13
1                  14
1                  15
1                  16
1                  17
1                  18
1                  19
1                  20
1                  21
1                  22
1                  23
1                  24
1                  25
1                  26
1                  27
1                  28
1                  29
1                  30
1                  31
1                  32
1                  33
1                  34
1                  35
1                  36
1                  37
1                  38
1                  39
1                  40
1                  41
1                  42
1                  43
1                  44
1                  45
1                  46
1                  47
1                  48
1                  49
1                  50
1                  51
1                  52
1                  53
1                  54
1                  55
1                  56
1                  57
1                  58
1                  59
1                  60
1                  61
1                  62
1                  63
1                  64
1                  65
1                  66
1                  67
1                  68
1                  69
1                  70
1                  71
1                  72
1                  73
1                  74
1                  75
1                  76
1                  77
1                  78
1                  79
1                  80
1                  81
1                  82
1                  83
1                  84
1                  85
1                  86
1                  87
1                  88
1                  89
1                  90
1                  91
1                  92
1                  93
1                  94
1                  95
1                  96
1                  97
1                  98
1                  99
1                 100
1                 101
1                 102
1                 103
1                 104
1                 105
1                 106
1                 107
1                 108
1                 109
1                 110
1                 111
1                 112
1                 113
1                 114
1                 115
1                 116
1                 117
1                 118
1                 119
1                 120
1                 121
1                 122
1                 123
1                 124
1                 125
1                 126
1                 127
1                 128
1                 129
1                 130
1                 131
1                 132
1                 133
1                 134
1                 135
1                 136
1                 137
1                 138
1                 139
1                 140
1                 141
1                 142
1                 143
POINT_DATA                 144
SCALARS phi float 1
LOOKUP_TABLE default
  0.000000000000E+00
  0.888178419700E-15
  0.111022302463E-15
 -0.888178419700E-15
 -0.111022302463E-15
  0.222044604925E-15
 -0.111022302463E-15
  0.444089209850E-15
  0.444089209850E-15
  0.777156117238E-15
 -0.555111512313E-16
 -0.777156117238E-15
  0.000000000000E+00
 -0.333066907388E-15
 -0.222044604925E-15
  0.999200722163E-15
 -0.555111512313E-16
  0.249800180541E-15
 -0.395516952523E-15
  0.222044604925E-15
  0.111022302463E-15
  0.222044604925E-15
  0.832667268469E-16
  0.166533453694E-15
  0.364291929955E-15
 -0.388578058619E-15
  0.111022302463E-15
 -0.111022302463E-15
  0.555111512313E-16
  0.222044604925E-15
 -0.166533453694E-15
  0.111022302463E-15
  0.666133814775E-15
  0.555111512313E-16
  0.388578058619E-15
  0.111022302463E-15
 -0.111022302463E-15
  0.222044604925E-15
  0.138777878078E-16
 -0.138777878078E-15
 -0.333066907388E-15
 -0.111022302463E-15
  0.222044604925E-15
  0.166533453694E-15
 -0.222044604925E-15
  0.943689570931E-15
 -0.610622663544E-15
  0.166533453694E-15
 -0.166533453694E-15
 -0.138777878078E-14
  0.333066907388E-15
  0.888178419700E-15
  0.208166817117E-15
 -0.166533453694E-15
  0.444089209850E-15
  0.111022302463E-15
 -0.333066907388E-15
  0.721644966006E-15
 -0.499600361081E-15
 -0.277555756156E-15
 -0.610622663544E-15
 -0.388578058619E-15
  0.555111512313E-16
  0.111022302463E-15
  0.444089209850E-15
 -0.235922392733E-15
  0.388578058619E-15
  0.222044604925E-15
 -0.166533453694E-15
  0.333066907388E-15
 -0.777156117238E-15
 -0.277555756156E-15
 -0.666133814775E-15
  0.277555756156E-15
 -0.555111512313E-16
  0.111022302463E-15
 -0.111022302463E-15
  0.388578058619E-15
 -0.555111512313E-16
  0.555111512313E-16
  0.721644966006E-15
 -0.111022302463E-15
 -0.721644966006E-15
 -0.430211422042E-15
  0.555111512313E-16
  0.555111512313E-16
  0.277555756156E-15
  0.333066907388E-15
  0.610622663544E-15
  0.138777878078E-15
  0.166533453694E-15
  0.138777878078E-15
  0.555111512313E-16
  0.138777878078E-15
  0.117961196366E-15
  0.499600361081E-15
 -0.133226762955E-14
  0.277555756156E-15
 -0.388578058619E-15
  0.166533453694E-15
  0.180411241502E-15
  0.425007251614E-16
  0.416333634234E-16
 -0.485722573274E-16
  0.499600361081E-15
  0.333066907388E-15
  0.138777878078E-15
  0.832667268469E-15
 -0.166533453694E-15
  0.111022302463E-15
  0.777156117238E-15
 -0.555111512313E-16
 -0.222044604925E-15
  0.000000000000E+00
  0.333066907388E-15
 -0.555111512313E-16
 -0.555111512313E-16
  0.333066907388E-15
  0.166533453694E-15
  0.832667268469E-15
 -0.222044604925E-15
  0.000000000000E+00
  0.721644966006E-15
 -0.610622663544E-15
  0.166533453694E-15
  0.555111512313E-15
 -0.277555756156E-15
  0.277555756156E-15
  0.610622663544E-15
  0.721644966006E-15
 -0.832667268469E-15
 -0.116573417586E-14
 -0.111022302463E-15
  0.000000000000E+00
 -0.138777878078E-15
  0.222044604925E-15
 -0.499600361081E-15
  0.832667268469E-15
  0.111022302463E-15
  0.222044604925E-15
 -0.222044604925E-15
 -0.555111512313E-16
  0.555111512313E-15
  0.000000000000E+00
SCALARS phi_mu float 1
LOOKUP_TABLE default
  0.620026054839E+00
  0.799638626283E+00
  0.721056492406E+00
  0.787714174823E+00
  0.819590887123E+00
  0.716318890532E+00
  0.706132359292E+00
  0.533687174023E+00
  0.755232102844E+00
  0.599678415221E+00
  0.414843676250E+00
  0.757625598752E+00
  0.650047489953E+00
  0.272269289231E+00
  0.822210723940E-01
  0.487737257088E+00
  0.300172839293E+00
  0.135081046340E+00
 -0.517271821004E-01
  0.680638688705E+00
  0.676777481851E+00
  0.568729695907E+00
 -0.190941542478E+00
 -0.302528169342E+00
  0.205183562544E-01
 -0.163242607054E+00
  0.401899382538E+00
  0.214625007837E+00
 -0.272198425918E+00
 -0.375478694197E+00
 -0.376725291249E+00
 -0.414961360111E+00
 -0.395395291985E+00
 -0.385244594967E+00
 -0.418832276333E+00
  0.632304506714E+00
 -0.319513156536E+00
 -0.420132395632E+00
 -0.409770812839E-01
 -0.223423344901E+00
  0.629616042769E+00
  0.521687797086E+00
 -0.357061383309E+00
 -0.391778072573E+00
 -0.424769773305E+00
  0.360333281560E+00
  0.173404119074E+00
 -0.355546304011E+00
 -0.345980490435E+00
 -0.445942785305E+00
 -0.405024233281E+00
 -0.437851461516E+00
 -0.701297660885E-01
 -0.252170057566E+00
  0.605792919508E+00
  0.603673539610E+00
  0.495849091804E+00
 -0.365055099186E+00
  0.336126186657E+00
  0.149398446184E+00
 -0.364621261098E+00
 -0.464390081137E+00
 -0.419065783009E+00
 -0.451836015130E+00
  0.580915744105E+00
 -0.913799978994E-01
 -0.273199834707E+00
  0.578146104122E+00
  0.470478186315E+00
 -0.377459850985E+00
  0.308865671516E+00
  0.122475262825E+00
  0.544923840501E+00
 -0.382859144602E+00
 -0.482502747805E+00
  0.538986514697E+00
  0.431747918025E+00
 -0.435187692333E+00
 -0.467916953724E+00
 -0.120392406192E+00
 -0.301731264094E+00
  0.487777242990E+00
  0.261068729360E+00
  0.758750579821E-01
  0.470563117511E+00
  0.364862338386E+00
 -0.392529969857E+00
  0.377141049947E+00
  0.330955777016E+00
  0.239276354062E+00
  0.261813400671E+00
  0.202163007061E+00
  0.212860776131E+00
  0.172975129724E+00
 -0.575907509898E-02
 -0.408162295764E+00
 -0.507459306072E+00
 -0.168920495182E+00
 -0.347962399412E+00
  0.722621513409E-01
 -0.763643045514E-01
  0.735139943777E-02
 -0.856190140215E-01
 -0.541283481165E-01
 -0.453889648458E+00
 -0.486499419760E+00
 -0.209596950264E+00
 -0.378212408784E+00
 -0.407404771222E+00
 -0.424489187072E+00
 -0.522231526097E+00
 -0.220289915983E+00
 -0.356688762228E+00
 -0.240546595166E+00
 -0.324775903947E+00
 -0.282615788678E+00
 -0.443659109729E+00
 -0.475808307202E+00
 -0.388604611522E+00
 -0.481001681347E+00
 -0.386538734672E+00
 -0.318427757443E+00
 -0.388925952832E+00
 -0.310939629366E+00
 -0.354533406312E+00
 -0.325428816869E+00
 -0.373145666988E+00
 -0.404019183271E+00
 -0.308507205480E+00
 -0.263838073176E+00
 -0.285689672349E+00
 -0.257747145316E+00
 -0.271297622745E+00
 -0.260718471688E+00
 -0.195146330882E+00
 -0.392532161278E+00
 -0.377462178001E+00
 -0.365057078867E+00
 -0.355547695782E+00
 -0.308507845109E+00
 -0.386539820464E+00
 -0.407406445705E+00
 -0.357062247917E+00
 -0.395396052104E+00
SCALARS phi_sigma float 1
LOOKUP_TABLE default
 -0.620026054839E+00
 -0.799638626283E+00
 -0.721056492406E+00
 -0.787714174823E+00
 -0.819590887123E+00
 -0.716318890532E+00
 -0.706132359292E+00
 -0.533687174023E+00
 -0.755232102844E+00
 -0.599678415221E+00
 -0.414843676250E+00
 -0.757625598752E+00
 -0.650047489953E+00
 -0.272269289231E+00
 -0.822210723940E-01
 -0.487737257088E+00
 -0.300172839293E+00
 -0.135081046340E+00
  0.517271821004E-01
 -0.680638688705E+00
 -0.676777481851E+00
 -0.568729695907E+00
  0.190941542478E+00
  0.302528169342E+00
 -0.205183562544E-01
  0.163242607054E+00
 -0.401899382538E+00
 -0.214625007837E+00
  0.272198425918E+00
  0.375478694197E+00
  0.376725291249E+00
  0.414961360111E+00
  0.395395291985E+00
  0.385244594967E+00
  0.418832276333E+00
 -0.632304506714E+00
  0.319513156536E+00
  0.420132395632E+00
  0.409770812839E-01
  0.223423344901E+00
 -0.629616042769E+00
 -0.521687797086E+00
  0.357061383309E+00
  0.391778072573E+00
  0.424769773305E+00
 -0.360333281560E+00
 -0.173404119074E+00
  0.355546304011E+00
  0.345980490435E+00
  0.445942785305E+00
  0.405024233281E+00
  0.437851461516E+00
  0.701297660885E-01
  0.252170057566E+00
 -0.605792919508E+00
 -0.603673539610E+00
 -0.495849091804E+00
  0.365055099186E+00
 -0.336126186657E+00
 -0.149398446184E+00
  0.364621261098E+00
  0.464390081137E+00
  0.419065783009E+00
  0.451836015130E+00
 -0.580915744105E+00
  0.913799978994E-01
  0.273199834707E+00
 -0.578146104122E+00
 -0.470478186315E+00
  0.377459850985E+00
 -0.308865671516E+00
 -0.122475262825E+00
 -0.544923840501E+00
  0.382859144602E+00
  0.482502747805E+00
 -0.538986514697E+00
 -0.431747918025E+00
  0.435187692333E+00
  0.467916953724E+00
  0.120392406192E+00
  0.301731264094E+00
 -0.487777242990E+00
 -0.261068729360E+00
 -0.758750579821E-01
 -0.470563117511E+00
 -0.364862338386E+00
  0.392529969857E+00
 -0.377141049947E+00
 -0.330955777016E+00
 -0.239276354062E+00
 -0.261813400671E+00
 -0.202163007061E+00
 -0.212860776131E+00
 -0.172975129724E+00
  0.575907509898E-02
  0.408162295764E+00
  0.507459306072E+00
  0.168920495182E+00
  0.347962399412E+00
 -0.722621513409E-01
  0.763643045514E-01
 -0.735139943777E-02
  0.856190140215E-01
  0.541283481165E-01
  0.453889648458E+00
  0.486499419760E+00
  0.209596950264E+00
  0.378212408784E+00
  0.407404771222E+00
  0.424489187072E+00
  0.522231526097E+00
  0.220289915983E+00
  0.356688762228E+00
  0.240546595166E+00
  0.324775903947E+00
  0.282615788678E+00
  0.443659109729E+00
  0.475808307202E+00
  0.388604611522E+00
  0.481001681347E+00
  0.386538734672E+00
  0.318427757443E+00
  0.388925952832E+00
  0.310939629366E+00
  0.354533406312E+00
  0.325428816869E+00
  0.373145666988E+00
  0.404019183271E+00
  0.308507205480E+00
  0.263838073176E+00
  0.285689672349E+00
  0.257747145316E+00
  0.271297622745E+00
  0.260718471688E+00
  0.195146330882E+00
  0.392532161278E+00
  0.377462178001E+00
  0.365057078867E+00
  0.355547695782E+00
  0.308507845109E+00
  0.386539820464E+00
  0.407406445705E+00
  0.357062247917E+00
  0.395396052104E+00
