# vtk DataFile Version 3.0
MachLine results file. Generated by MachLine, USU AeroLab (c) 2022.
ASCII
DATASET POLYDATA
POINTS                  20 float
  0.482439842224E+02  0.292438049316E+02  0.000000000000E+00
  0.994019049023E+04  0.292438049316E+02  0.109208106136E+04
  0.387563171387E+02  0.197561950684E+02  0.000000000000E+00
  0.994007624336E+04  0.197561950684E+02  0.109311589659E+04
  0.566182289124E+02  0.376179962158E+02  0.000000000000E+00
  0.994029132969E+04  0.376179962158E+02  0.109116766892E+04
  0.625299339294E+02  0.435296669006E+02  0.000000000000E+00
  0.994036251619E+04  0.435296669006E+02  0.109052286967E+04
  0.303820724487E+02  0.113820018768E+02  0.000000000000E+00
  0.993997540389E+04  0.113820018768E+02  0.109402928903E+04
  0.244703655243E+02  0.547033166885E+01  0.000000000000E+00
  0.993990421737E+04  0.547033166885E+01  0.109467408848E+04
  0.680002975464E+02  0.490000000000E+02  0.000000000000E+00
  0.994042838823E+04  0.490000000000E+02  0.108992620825E+04
  0.660765380859E+02  0.470762481689E+02  0.000000000000E+00
  0.994040522305E+04  0.470762481689E+02  0.109013603581E+04
  0.209237651825E+02  0.192375373840E+01  0.000000000000E+00
  0.993986151056E+04  0.192375373840E+01  0.109506092193E+04
  0.190000000000E+02  0.000000000000E+00  0.000000000000E+00
  0.993983834531E+04  0.000000000000E+00  0.109527075012E+04
POLYGONS                  18                  72
3                  16                  17                  19
3                  16                  19                  18
3                  10                  11                  17
3                  10                  17                  16
3                   8                   9                  11
3                   8                  11                  10
3                   2                   3                   9
3                   2                   9                   8
3                   0                   1                   3
3                   0                   3                   2
3                   4                   5                   1
3                   4                   1                   0
3                   6                   7                   5
3                   6                   5                   4
3                  14                  15                   7
3                  14                   7                   6
3                  12                  13                  15
3                  12                  15                  14
CELL_DATA                  18
NORMALS normals float
  0.109079521562E+00 -0.109080170459E+00 -0.988029946099E+00
  0.109079521562E+00 -0.109080170459E+00 -0.988029946099E+00
  0.109079521082E+00 -0.109080210371E+00 -0.988029941746E+00
  0.109079521082E+00 -0.109080210371E+00 -0.988029941746E+00
  0.109079521222E+00 -0.109080198698E+00 -0.988029943019E+00
  0.109079521222E+00 -0.109080198698E+00 -0.988029943019E+00
  0.109079521302E+00 -0.109080192103E+00 -0.988029943738E+00
  0.109079521302E+00 -0.109080192103E+00 -0.988029943738E+00
  0.109079521455E+00 -0.109080179322E+00 -0.988029945132E+00
  0.109079521455E+00 -0.109080179322E+00 -0.988029945132E+00
  0.109079521006E+00 -0.109080216653E+00 -0.988029941061E+00
  0.109079521006E+00 -0.109080216653E+00 -0.988029941061E+00
  0.109079521746E+00 -0.109080155228E+00 -0.988029947760E+00
  0.109079521746E+00 -0.109080155228E+00 -0.988029947760E+00
  0.109079520907E+00 -0.109080224862E+00 -0.988029940165E+00
  0.109079520907E+00 -0.109080224862E+00 -0.988029940165E+00
  0.109079524136E+00 -0.109079956734E+00 -0.988029969410E+00
  0.109079524136E+00 -0.109079956734E+00 -0.988029969410E+00
POINT_DATA                  20
SCALARS mu float 1
LOOKUP_TABLE default
 -0.341002316490E+01
 -0.341002316490E+01
 -0.350073826030E+01
 -0.350073826030E+01
 -0.301764432575E+01
 -0.301764432575E+01
 -0.227146199460E+01
 -0.227146199460E+01
 -0.341940220500E+01
 -0.341940220500E+01
 -0.328671964381E+01
 -0.328671964381E+01
  0.000000000000E+00
  0.000000000000E+00
 -0.124338189459E+01
 -0.124338189459E+01
 -0.318023683141E+01
 -0.318023683141E+01
 -0.312815720232E+01
 -0.312815720232E+01
