# vtk DataFile Version 3.0
MachLine results file. Generated by MachLine, USU AeroLab (c) 2022.
ASCII
DATASET POLYDATA
POINTS                1848 float
  0.000000000000E+00  0.000000000000E+00  0.000000000000E+00
  0.147665724158E+00  0.000000000000E+00 -0.234920635819E+00
  0.147665724158E+00  0.000000000000E+00  0.234920635819E+00
  0.339639574289E+00  0.339639574289E+00  0.000000000000E+00
  0.473465979099E+00  0.000000000000E+00 -0.436293870211E+00
  0.473465979099E+00  0.000000000000E+00  0.436293870211E+00
  0.487305283546E+00  0.339639574289E+00 -0.234920650721E+00
  0.487305283546E+00  0.339639574289E+00  0.234920650721E+00
  0.735364913940E+00  0.735364913940E+00  0.000000000000E+00
  0.813105583191E+00  0.339639574289E+00 -0.436293929815E+00
  0.813105583191E+00  0.339639574289E+00  0.436293929815E+00
  0.883030653000E+00  0.735364913940E+00 -0.234920680523E+00
  0.883030653000E+00  0.735364913940E+00  0.234920680523E+00
  0.944064557552E+00  0.000000000000E+00 -0.604293465614E+00
  0.944064557552E+00  0.000000000000E+00  0.604293465614E+00
  0.119528055191E+01  0.119528055191E+01  0.000000000000E+00
  0.120883107185E+01  0.735364913940E+00 -0.436293989420E+00
  0.120883107185E+01  0.735364913940E+00  0.436293989420E+00
  0.128370416164E+01  0.339639574289E+00 -0.604293525219E+00
  0.128370416164E+01  0.339639574289E+00  0.604293525219E+00
  0.134294629097E+01  0.119528055191E+01 -0.234920725226E+00
  0.134294629097E+01  0.119528055191E+01  0.234920725226E+00
  0.157641971111E+01  0.000000000000E+00 -0.760520398617E+00
  0.157641971111E+01  0.000000000000E+00  0.760520398617E+00
  0.166874670982E+01  0.119528055191E+01 -0.436294049025E+00
  0.166874670982E+01  0.119528055191E+01  0.436294049025E+00
  0.167942965031E+01  0.735364913940E+00 -0.604293584824E+00
  0.167942965031E+01  0.735364913940E+00  0.604293584824E+00
  0.172824025154E+01  0.172824025154E+01  0.000000000000E+00
  0.187590610981E+01  0.172824025154E+01 -0.234920769930E+00
  0.187590610981E+01  0.172824025154E+01  0.234920769930E+00
  0.191605937481E+01  0.339639574289E+00 -0.760520458221E+00
  0.191605937481E+01  0.339639574289E+00  0.760520458221E+00
  0.213934540749E+01  0.119528055191E+01 -0.604293704033E+00
  0.213934540749E+01  0.119528055191E+01  0.604293704033E+00
  0.220170640945E+01  0.172824025154E+01 -0.436294138432E+00
  0.220170640945E+01  0.172824025154E+01  0.436294138432E+00
  0.231178498268E+01  0.735364913940E+00 -0.760520577431E+00
  0.231178498268E+01  0.735364913940E+00  0.760520577431E+00
  0.234375929832E+01  0.234375929832E+01  0.000000000000E+00
  0.239635515213E+01  0.000000000000E+00 -0.902061045170E+00
  0.239635515213E+01  0.000000000000E+00  0.902061045170E+00
  0.249142503738E+01  0.234375929832E+01 -0.234920814633E+00
  0.249142503738E+01  0.234375929832E+01  0.234920814633E+00
  0.267230534554E+01  0.172824025154E+01 -0.604293823242E+00
  0.267230534554E+01  0.172824025154E+01  0.604293823242E+00
  0.273599505424E+01  0.339639574289E+00 -0.902061164379E+00
  0.273599505424E+01  0.339639574289E+00  0.902061164379E+00
  0.277170085907E+01  0.119528055191E+01 -0.760520696640E+00
  0.277170085907E+01  0.119528055191E+01  0.760520696640E+00
  0.281722569466E+01  0.234375929832E+01 -0.436294227839E+00
  0.281722569466E+01  0.234375929832E+01  0.436294227839E+00
  0.305185556412E+01  0.305185556412E+01  0.000000000000E+00
  0.313172078133E+01  0.735364913940E+00 -0.902061283588E+00
  0.313172078133E+01  0.735364913940E+00  0.902061283588E+00
  0.319952154160E+01  0.305185556412E+01 -0.234920859337E+00
  0.319952154160E+01  0.305185556412E+01  0.234920859337E+00
  0.328782463074E+01  0.234375929832E+01 -0.604293942451E+00
  0.328782463074E+01  0.234375929832E+01  0.604293942451E+00
  0.330466079712E+01  0.172824025154E+01 -0.760520815849E+00
  0.330466079712E+01  0.172824025154E+01  0.760520815849E+00
  0.342464399338E+01  0.000000000000E+00 -0.102348911762E+01
  0.342464399338E+01  0.000000000000E+00  0.102348911762E+01
  0.352532196045E+01  0.305185556412E+01 -0.436294317245E+00
  0.352532196045E+01  0.305185556412E+01  0.436294317245E+00
  0.359163665771E+01  0.119528055191E+01 -0.902061402798E+00
  0.359163665771E+01  0.119528055191E+01  0.902061402798E+00
  0.376428389549E+01  0.339639574289E+00 -0.102348923683E+01
  0.376428389549E+01  0.339639574289E+00  0.102348923683E+01
  0.386280250549E+01  0.386280250549E+01  0.000000000000E+00
  0.392018008232E+01  0.234375929832E+01 -0.760520994663E+00
  0.392018008232E+01  0.234375929832E+01  0.760520994663E+00
  0.399592113495E+01  0.305185556412E+01 -0.604294061661E+00
  0.399592113495E+01  0.305185556412E+01  0.604294061661E+00
  0.401046848297E+01  0.386280250549E+01 -0.234920918941E+00
  0.401046848297E+01  0.386280250549E+01  0.234920918941E+00
  0.412459707260E+01  0.172824025154E+01 -0.902061522007E+00
  0.412459707260E+01  0.172824025154E+01  0.902061522007E+00
  0.416000986099E+01  0.735364913940E+00 -0.102348935604E+01
  0.416000986099E+01  0.735364913940E+00  0.102348935604E+01
  0.433626890182E+01  0.386280250549E+01 -0.436294436455E+00
  0.433626890182E+01  0.386280250549E+01  0.436294436455E+00
  0.461992597580E+01  0.119528055191E+01 -0.102348947525E+01
  0.461992597580E+01  0.119528055191E+01  0.102348947525E+01
  0.462827682495E+01  0.305185556412E+01 -0.760521173477E+00
  0.462827682495E+01  0.305185556412E+01  0.760521173477E+00
  0.466872262955E+01  0.000000000000E+00 -0.111146688461E+01
  0.466872262955E+01  0.000000000000E+00  0.111146688461E+01
  0.474011659622E+01  0.234375929832E+01 -0.902061700821E+00
  0.474011659622E+01  0.234375929832E+01  0.902061700821E+00
  0.478677463531E+01  0.478677463531E+01  0.000000000000E+00
  0.480686807632E+01  0.386280250549E+01 -0.604294240475E+00
  0.480686807632E+01  0.386280250549E+01  0.604294240475E+00
  0.493444061279E+01  0.478677463531E+01 -0.234920993447E+00
  0.493444061279E+01  0.478677463531E+01  0.234920993447E+00
  0.500836277008E+01  0.339639574289E+00 -0.111146700382E+01
  0.500836277008E+01  0.339639574289E+00  0.111146700382E+01
  0.515288639069E+01  0.172824025154E+01 -0.102348971367E+01
  0.515288639069E+01  0.172824025154E+01  0.102348971367E+01
  0.526024150848E+01  0.478677463531E+01 -0.436294555664E+00
  0.526024150848E+01  0.478677463531E+01  0.436294555664E+00
  0.540408849716E+01  0.735364913940E+00 -0.111146712303E+01
  0.540408849716E+01  0.735364913940E+00  0.111146712303E+01
  0.543922424316E+01  0.386280250549E+01 -0.760521352291E+00
  0.543922424316E+01  0.386280250549E+01  0.760521352291E+00
  0.544821310043E+01  0.305185556412E+01 -0.902061939240E+00
  0.544821310043E+01  0.305185556412E+01  0.902061939240E+00
  0.573084068298E+01  0.478677463531E+01 -0.604294419289E+00
  0.573084068298E+01  0.478677463531E+01  0.604294419289E+00
  0.576840591431E+01  0.234375929832E+01 -0.102348983288E+01
  0.576840591431E+01  0.234375929832E+01  0.102348983288E+01
  0.583337688446E+01  0.583337688446E+01  0.000000000000E+00
  0.586400508881E+01  0.119528055191E+01 -0.111146736145E+01
  0.586400508881E+01  0.119528055191E+01  0.111146736145E+01
  0.598104286194E+01  0.583337688446E+01 -0.234921067953E+00
  0.598104286194E+01  0.583337688446E+01  0.234921067953E+00
  0.611307668686E+01  0.000000000000E+00 -0.114008128643E+01
  0.611307668686E+01  0.000000000000E+00  0.114008128643E+01
  0.625916051865E+01  0.386280250549E+01 -0.902062177658E+00
  0.625916051865E+01  0.386280250549E+01  0.902062177658E+00
  0.630684375763E+01  0.583337688446E+01 -0.436294704676E+00
  0.630684375763E+01  0.583337688446E+01  0.436294704676E+00
  0.636319684982E+01  0.478677463531E+01 -0.760521590710E+00
  0.636319684982E+01  0.478677463531E+01  0.760521590710E+00
  0.639696550369E+01  0.172824025154E+01 -0.111146748066E+01
  0.639696550369E+01  0.172824025154E+01  0.111146748066E+01
  0.645271682739E+01  0.339639574289E+00 -0.114008140564E+01
  0.645271682739E+01  0.339639574289E+00  0.114008140564E+01
  0.647650289536E+01  0.305185556412E+01 -0.102349007130E+01
  0.647650289536E+01  0.305185556412E+01  0.102349007130E+01
  0.677744340897E+01  0.583337688446E+01 -0.604294598103E+00
  0.677744340897E+01  0.583337688446E+01  0.604294598103E+00
  0.684844303131E+01  0.735364913940E+00 -0.114008152485E+01
  0.684844303131E+01  0.735364913940E+00  0.114008152485E+01
  0.701104879379E+01  0.701104879379E+01  0.000000000000E+00
  0.701248550415E+01  0.234375929832E+01 -0.111146771908E+01
  0.701248550415E+01  0.234375929832E+01  0.111146771908E+01
  0.715871477127E+01  0.701104879379E+01 -0.234921157360E+00
  0.715871477127E+01  0.701104879379E+01  0.234921157360E+00
  0.718313360214E+01  0.478677463531E+01 -0.902062416077E+00
  0.718313360214E+01  0.478677463531E+01  0.902062416077E+00
  0.728745079041E+01  0.386280250549E+01 -0.102349042892E+01
  0.728745079041E+01  0.386280250549E+01  0.102349042892E+01
  0.730835962296E+01  0.119528055191E+01 -0.114008176327E+01
  0.730835962296E+01  0.119528055191E+01  0.114008176327E+01
  0.740979957581E+01  0.583337688446E+01 -0.760521829128E+00
  0.740979957581E+01  0.583337688446E+01  0.760521829128E+00
  0.748451566696E+01  0.701104879379E+01 -0.436294883490E+00
  0.748451566696E+01  0.701104879379E+01  0.436294883490E+00
  0.771254587173E+01  0.000000000000E+00 -0.108925735950E+01
  0.771254587173E+01  0.000000000000E+00  0.108925735950E+01
  0.772058296204E+01  0.305185556412E+01 -0.111146795750E+01
  0.772058296204E+01  0.305185556412E+01  0.111146795750E+01
  0.784132003784E+01  0.172824025154E+01 -0.114008188248E+01
  0.784132003784E+01  0.172824025154E+01  0.114008188248E+01
  0.795511531830E+01  0.701104879379E+01 -0.604294836521E+00
  0.795511531830E+01  0.701104879379E+01  0.604294836521E+00
  0.805218601227E+01  0.339639574289E+00 -0.108925747871E+01
  0.805218601227E+01  0.339639574289E+00  0.108925747871E+01
  0.821142387390E+01  0.478677463531E+01 -0.102349066734E+01
  0.821142387390E+01  0.478677463531E+01  0.102349066734E+01
[...]
CELL_DATA                3576
SCALARS C_p_inc float 1
LOOKUP_TABLE default
  0.188359682501E+00
  0.155968509740E+00
  0.125701826127E+00
  0.101157775982E+00
  0.916681960585E-01
  0.775386144045E-01
  0.685565450667E-01
  0.599376647486E-01
  0.503081677082E-01
  0.440909083999E-01
  0.335247053722E-01
  0.285463058790E-01
  0.165767904946E-01
  0.120960167643E-01
 -0.146573347178E-02
 -0.574519215602E-02
 -0.201446580632E-01
 -0.241549866335E-01
 -0.350174015389E-01
 -0.375825594195E-01
 -0.420987198323E-01
 -0.416741553247E-01
 -0.313163630532E-01
 -0.353741171428E-01
  0.153463432770E-01
  0.902353943534E-03
  0.848701275422E-01
  0.645106587855E-01
  0.159672469363E+00
  0.135311716039E+00
  0.241607252956E+00
  0.210187737486E+00
  0.342159101953E+00
  0.300934349581E+00
  0.471448652109E+00
  0.423691538988E+00
  0.651679330097E+00
  0.627944877628E+00
  0.768198425642E+00
  0.760873449645E+00
  0.248513295347E+00
  0.418058982888E+00
 -0.236189706521E+00
  0.129559540489E-01
 -0.356945744368E+00
 -0.211898194217E+00
 -0.380026961939E+00
 -0.303634976689E+00
 -0.402660583746E+00
 -0.361654298347E+00
 -0.424323694848E+00
 -0.400000930079E+00
 -0.451513983919E+00
 -0.434519960893E+00
 -0.473059659577E+00
 -0.465087035959E+00
 -0.460235012108E+00
 -0.466318810188E+00
 -0.413795991351E+00
 -0.424190033404E+00
 -0.369814138245E+00
 -0.358325143598E+00
 -0.311476965367E+00
 -0.298871563579E+00
 -0.253224818622E+00
 -0.240641366531E+00
 -0.200954513972E+00
 -0.188045756360E+00
 -0.154436973174E+00
 -0.140399388949E+00
 -0.112050186079E+00
 -0.954897078379E-01
 -0.714839452767E-01
 -0.503379518980E-01
 -0.301407362318E-01
  0.200616275435E-03
  0.181677349204E-01
  0.643928520128E-01
  0.104898610042E+00
  0.160136192533E+00
  0.183853530884E+00
  0.186360172207E+00
  0.130828735516E+00
  0.125359888627E+00
  0.103192409342E+00
  0.915948607027E-01
  0.782958937590E-01
  0.685340786241E-01
  0.573951755677E-01
  0.503020591630E-01
  0.390043667061E-01
  0.335287604995E-01
  0.211699409520E-01
  0.165904456535E-01
  0.254091914974E-02
 -0.144431558012E-02
 -0.168953699046E-01
 -0.201324966188E-01
 -0.334001093936E-01
 -0.350788873155E-01
 -0.418653346667E-01
 -0.426728661117E-01
 -0.354745468134E-01
 -0.410339338887E-01
  0.135945138511E-02
 -0.116208430965E-01
  0.651463952011E-01
  0.476873559280E-01
  0.135508585002E+00
  0.116074278751E+00
  0.209044350564E+00
  0.188592419205E+00
  0.295144475045E+00
  0.276181866784E+00
  0.403019494956E+00
  0.391220186016E+00
  0.554879812423E+00
  0.554672403530E+00
  0.620873827903E+00
  0.589859022393E+00
  0.632061008216E-01
  0.148624753367E+00
 -0.356447555830E+00
 -0.226550783367E+00
 -0.451067640727E+00
 -0.344634850023E+00
 -0.447913711029E+00
 -0.375789757250E+00
 -0.449151915231E+00
 -0.401961972095E+00
 -0.455693114232E+00
 -0.424805347177E+00
 -0.472667317028E+00
 -0.452472367880E+00
 -0.484137448266E+00
 -0.474763379538E+00
 -0.459584826275E+00
 -0.462304692665E+00
 -0.406436857808E+00
 -0.415241336795E+00
 -0.358273190681E+00
 -0.348298282584E+00
 -0.298702242026E+00
 -0.286945786567E+00
 -0.240501795219E+00
 -0.227770730086E+00
 -0.187956720348E+00
 -0.174117887014E+00
 -0.140354170171E+00
 -0.124633938599E+00
 -0.954836413150E-01
 -0.765436219775E-01
 -0.503838464789E-01
 -0.265745046134E-01
  0.217935698636E-04
  0.274567679938E-01
  0.636090205644E-01
  0.835162257290E-01
  0.156288669428E+00
  0.163508622127E+00
  0.179563512460E+00
  0.182899840514E+00
  0.130055674519E+00
  0.130369153184E+00
  0.107064047258E+00
  0.102978408016E+00
  0.856710212196E-01
  0.782222036939E-01
  0.646405561360E-01
  0.573722337355E-01
  0.449249579287E-01
  0.390045256759E-01
  0.260293248570E-01
  0.211865666054E-01
  0.660715342305E-02
  0.257069455146E-02
 -0.137505311431E-01
 -0.168726114844E-01
 -0.318790506145E-01
 -0.334598129885E-01
 -0.428309978946E-01
 -0.437255946555E-01
 -0.408291488885E-01
 -0.459876020397E-01
 -0.107299680294E-01
 -0.215490274483E-01
  0.485130953665E-01
  0.339273601455E-01
  0.115911284204E+00
  0.100373849416E+00
  0.186360763740E+00
  0.171981218838E+00
  0.269482328239E+00
  0.258827346908E+00
  0.375879372640E+00
  0.371974601917E+00
  0.524407562316E+00
  0.525069056625E+00
  0.555610695686E+00
  0.523434142710E+00
 -0.524731154737E-01
  0.203425366965E-01
 -0.458051056232E+00
 -0.353294815474E+00
 -0.530311460125E+00
 -0.440231496050E+00
 -0.507294944171E+00
 -0.440769602001E+00
 -0.492944325768E+00
 -0.445334588164E+00
 -0.487156503469E+00
 -0.454077976891E+00
 -0.493972049169E+00
 -0.472582752544E+00
 -0.495180141823E+00
 -0.485718252665E+00
 -0.460558940763E+00
 -0.462291716665E+00
 -0.400484214208E+00
 -0.408851000091E+00
 -0.348246416192E+00
 -0.338636598930E+00
 -0.286718253404E+00
 -0.274947777722E+00
 -0.227570406766E+00
 -0.214291166134E+00
 -0.173985034028E+00
 -0.159074667437E+00
 -0.124568372860E+00
 -0.107391377570E+00
 -0.765564207268E-01
 -0.566436018681E-01
 -0.267316068586E-01
 -0.598577672235E-02
  0.269350377226E-01
  0.428519267245E-01
  0.823234649570E-01
  0.909749638360E-01
  0.161120323832E+00
  0.165316696279E+00
  0.179514982654E+00
  0.179005293148E+00
  0.129418166570E+00
  0.129698236419E+00
  0.107828511359E+00
  0.106821307257E+00
  0.892299757025E-01
  0.855404047599E-01
  0.703615489802E-01
  0.645903257974E-01
  0.507670836217E-01
  0.449175385134E-01
  0.310817811715E-01
  0.260471160087E-01
  0.107966831940E-01
  0.664149115761E-02
 -0.105603468949E-01
 -0.137231635980E-01
 -0.302435318729E-01
 -0.319317549156E-01
 -0.438698704804E-01
 -0.444749786695E-01
 -0.457471694116E-01
 -0.500440256996E-01
 -0.207582960049E-01
 -0.294443886943E-01
  0.345622713436E-01
  0.228746818775E-01
  0.999419779886E-01
  0.878904045784E-01
  0.169608436144E+00
  0.159489782297E+00
  0.253109606939E+00
  0.247093803598E+00
  0.361112546399E+00
  0.360691998806E+00
  0.507546279458E+00
  0.508184258722E+00
  0.508268287876E+00
  0.476590522220E+00
 -0.147471555331E+00
 -0.795776392976E-01
 -0.546811943728E+00
 -0.454973554958E+00
 -0.601130242998E+00
 -0.521201580112E+00
 -0.561868958028E+00
 -0.500347412161E+00
 -0.534722658069E+00
 -0.488573964279E+00
 -0.518035932077E+00
 -0.485023268002E+00
 -0.515020255029E+00
 -0.493790305151E+00
 -0.506250990868E+00
 -0.497030368604E+00
 -0.462306804501E+00
 -0.463675314315E+00
 -0.395242717386E+00
 -0.403492339297E+00
 -0.338692118917E+00
 -0.329151366781E+00
 -0.274731541662E+00
 -0.262748328741E+00
 -0.214062603564E+00
 -0.200184563284E+00
 -0.158910394906E+00
 -0.143143393842E+00
 -0.107315693156E+00
 -0.897335930941E-01
 -0.567013562965E-01
 -0.389065028287E-01
 -0.627980207173E-02
  0.810894051347E-02
  0.422141883154E-01
  0.512783532837E-01
  0.899376279887E-01
  0.944713026125E-01
  0.163494388305E+00
  0.163420972053E+00
  0.178270293783E+00
  0.178958268807E+00
  0.128969854351E+00
  0.129120745148E+00
  0.107955773331E+00
  0.107614594155E+00
  0.906644241797E-01
  0.890842859598E-01
  0.737877328690E-01
  0.702838529926E-01
  0.556028435723E-01
  0.507456256978E-01
  0.359908238157E-01
  0.310970454774E-01
  0.150619526883E-01
  0.108338313360E-01
 -0.725949157765E-02
 -0.105269198515E-01
 -0.283810742398E-01
 -0.302794056246E-01
 -0.446288887747E-01
 -0.447225058252E-01
 -0.498569952297E-01
 -0.530538833010E-01
 -0.288327173592E-01
 -0.354024434922E-01
  0.233219748615E-01
  0.145762521499E-01
  0.873870990428E-01
  0.785827438191E-01
  0.157376428953E+00
  0.150604820743E+00
  0.242573355369E+00
  0.239606988757E+00
  0.353025437790E+00
  0.354532502086E+00
  0.497460124610E+00
  0.497985105024E+00
  0.469817095743E+00
  0.438864580043E+00
 -0.231587698961E+00
 -0.166134643032E+00
 -0.627569282085E+00
 -0.543773182379E+00
 -0.666186871007E+00
 -0.593511555260E+00
 -0.612600584113E+00
 -0.555705410110E+00
 -0.574130332760E+00
 -0.530605999132E+00
 -0.547391033365E+00
 -0.516033510917E+00
 -0.535021146516E+00
 -0.515110979181E+00
 -0.517023510057E+00
 -0.508453305179E+00
 -0.464344821298E+00
 -0.465778153779E+00
 -0.390357127403E+00
 -0.398696442893E+00
 -0.329348721892E+00
 -0.319731520717E+00
 -0.262580562841E+00
 -0.250329987899E+00
 -0.199955034859E+00
 -0.185649841842E+00
 -0.142968379931E+00
 -0.127096553554E+00
 -0.896714526084E-01
 -0.735896560262E-01
 -0.390210500981E-01
 -0.253556918627E-01
  0.777429550255E-02
  0.172993637636E-01
  0.507243066664E-01
  0.565023567744E-01
  0.937003484973E-01
  0.968298703129E-01
  0.162351890279E+00
  0.163931081177E+00
  0.178871612217E+00
  0.177865296705E+00
  0.128908201582E+00
  0.128713787294E+00
  0.107967288084E+00
  0.107766022302E+00
  0.912672233276E-01
  0.905261878658E-01
  0.755713283660E-01
  0.736983671758E-01
  0.588923264574E-01
  0.555652780026E-01
  0.401946647496E-01
  0.359987059896E-01
  0.191918684043E-01
  0.150999785704E-01
 -0.385993905558E-02
 -0.721757884586E-02
 -0.262199214975E-01
 -0.283911005185E-01
 -0.448919556955E-01
 -0.443326977259E-01
 -0.529471997875E-01
 -0.548921397755E-01
 -0.349727828998E-01
 -0.394562004658E-01
  0.148672679585E-01
  0.889238676656E-02
  0.781224762069E-01
  0.723040886511E-01
  0.148914407322E+00
  0.144974852740E+00
  0.236235911150E+00
  0.235560323564E+00
  0.349245566707E+00
  0.352021499605E+00
  0.491509697679E+00
  0.491926745981E+00
  0.436699188409E+00
  0.406446136554E+00
 -0.308715800565E+00
 -0.244882126427E+00
 -0.702498932071E+00
 -0.624682649282E+00
 -0.726580151554E+00
 -0.659928889287E+00
 -0.659707578829E+00
 -0.607482675656E+00
 -0.610765418619E+00
 -0.570728657447E+00
 -0.574632534197E+00
 -0.545930839539E+00
 -0.553527553316E+00
 -0.535588280819E+00
 -0.527054128540E+00
 -0.519585677158E+00
 -0.466215914834E+00
 -0.468106760266E+00
 -0.385530199979E+00
 -0.394127288881E+00
 -0.320063512917E+00
 -0.310296170938E+00
 -0.250224045367E+00
 -0.237817452243E+00
 -0.185438362464E+00
 -0.171242529008E+00
 -0.126934350034E+00
 -0.112239235755E+00
 -0.735592384275E-01
 -0.604546796311E-01
 -0.254918584094E-01
 -0.156202074289E-01
  0.170136087673E-01
  0.236365084595E-01
  0.560926268735E-01
  0.602428214338E-01
  0.962976589414E-01
  0.985486690593E-01
  0.163134537517E+00
  0.163142562724E+00
  0.177093203099E+00
  0.178432753411E+00
  0.128414307167E+00
  0.128669954660E+00
  0.107861046707E+00
  0.107794559136E+00
  0.915298723715E-01
  0.911386630681E-01
  0.764862931009E-01
  0.754813285392E-01
  0.608618739564E-01
  0.588438359921E-01
  0.432937052881E-01
  0.401914783313E-01
  0.228282879106E-01
  0.192272088650E-01
 -0.495070539356E-03
 -0.380909459408E-02
 -0.237629180907E-01
 -0.261997903495E-01
 -0.445148054304E-01
 -0.432585508410E-01
 -0.548706540869E-01
 -0.555202946928E-01
 -0.391929362684E-01
 -0.416871160301E-01
  0.906473929041E-02
  0.560267060779E-02
  0.719421300268E-01
  0.688007187905E-01
  0.143748364870E+00
  0.142264780705E+00
  0.233226481071E+00
  0.234423113535E+00
  0.348600979699E+00
  0.352328789415E+00
  0.488421505077E+00
  0.488734262359E+00
  0.407212797543E+00
  0.377617473507E+00
 -0.380486980790E+00
 -0.318248696627E+00
 -0.772384523814E+00
 -0.699887318183E+00
 -0.782578397670E+00
 -0.721619115721E+00
 -0.703067610665E+00
 -0.655755955468E+00
 -0.644266917854E+00
 -0.608306071129E+00
 -0.599363839607E+00
 -0.573911573206E+00
 -0.570215159201E+00
 -0.554654616862E+00
 -0.535972292704E+00
 -0.529977584257E+00
 -0.467569602138E+00
 -0.470205808632E+00
 -0.380567281878E+00
 -0.389489102625E+00
 -0.310730291699E+00
 -0.300875952648E+00
 -0.237771205024E+00
 -0.225590365695E+00
 -0.171065579576E+00
 -0.157882819494E+00
 -0.112112592983E+00
 -0.997373330099E-01
 -0.604519316320E-01
 -0.504866817217E-01
 -0.157367970896E-01
 -0.856439740233E-02
  0.234332531981E-01
  0.283427885551E-01
  0.599759780309E-01
  0.633295404696E-01
  0.982333019373E-01
  0.100735538880E+00
  0.162792433563E+00
  0.165525555897E+00
  0.177688686870E+00
  0.176818631344E+00
  0.128479755575E+00
  0.128214938650E+00
  0.107846655944E+00
  0.107704077286E+00
  0.916597872381E-01
  0.914093710315E-01
  0.769755835783E-01
  0.763985037232E-01
  0.619964512249E-01
  0.608081130507E-01
  0.453339686873E-01
  0.432796691345E-01
  0.256755341665E-01
  0.228565614665E-01
  0.258851951768E-02
 -0.438260376180E-03
 -0.211229917462E-01
 -0.237139445176E-01
 -0.434415890508E-01
 -0.415545396363E-01
 -0.555708619260E-01
 -0.549992233100E-01
 -0.415609600493E-01
 -0.422386793707E-01
  0.569136140384E-02
  0.444246826475E-02
  0.685536207230E-01
  0.677294077857E-01
  0.141473314629E+00
  0.142089569868E+00
  0.232982909369E+00
  0.235740705477E+00
  0.350405884694E+00
  0.354882330169E+00
  0.487453706418E+00
  0.487652244377E+00
  0.380437380697E+00
  0.351524828978E+00
 -0.447471572448E+00
 -0.387238300326E+00
 -0.837303946370E+00
 -0.770154430791E+00
 -0.834063370151E+00
 -0.778857852015E+00
 -0.742460813059E+00
 -0.700295421040E+00
 -0.674368275200E+00
 -0.642805920757E+00
 -0.621330923094E+00
 -0.599420631413E+00
 -0.584822061950E+00
 -0.571893271373E+00
 -0.543497963005E+00
 -0.539213595011E+00
 -0.468191448043E+00
 -0.471693509393E+00
 -0.375431628680E+00
 -0.384564061825E+00
 -0.301368221245E+00
 -0.291710721504E+00
 -0.225597433864E+00
 -0.214301402639E+00
 -0.157757296270E+00
 -0.146477340905E+00
 -0.996564536879E-01
 -0.899640179712E-01
 -0.504950725451E-01
 -0.430831643432E-01
 -0.864208225640E-02
 -0.329592962660E-02
  0.282225514344E-01
  0.320245457028E-01
  0.631796692996E-01
  0.658578929233E-01
  0.100546897567E+00
  0.102273479688E+00
  0.165199841061E+00
  0.165617531336E+00
  0.178048528619E+00
  0.177379188417E+00
  0.128743307733E+00
  0.128291733204E+00
  0.108020599758E+00
  0.107701617821E+00
  0.918403520139E-01
  0.915462124070E-01
  0.773047850211E-01
  0.768900445999E-01
  0.626820004522E-01
  0.619400207198E-01
  0.466228085177E-01
  0.453116095559E-01
  0.277054173727E-01
  0.256941777613E-01
  0.516033220210E-02
  0.264564166946E-02
 -0.185116839954E-01
 -0.210517542246E-01
 -0.417205636870E-01
 -0.393842828276E-01
 -0.550964786493E-01
 -0.534954654337E-01
 -0.422131777860E-01
 -0.413351395454E-01
  0.447702581237E-02
  0.509715339202E-02
  0.675919909119E-01
  0.686959336952E-01
  0.141667797294E+00
  0.144011358327E+00
  0.235029991970E+00
  0.239045355361E+00
  0.354141698687E+00
  0.359177901313E+00
  0.488057149004E+00
  0.488122387686E+00
  0.355806174147E+00
  0.327701945971E+00
 -0.509733340964E+00
 -0.452129910556E+00
 -0.897037346177E+00
 -0.835525355112E+00
 -0.880802647227E+00
 -0.831491113058E+00
 -0.777697405617E+00
 -0.740787225582E+00
 -0.700904918290E+00
 -0.673839451626E+00
 -0.640385125827E+00
 -0.622097689123E+00
 -0.597194550780E+00
 -0.586970571213E+00
 -0.549498393807E+00
 -0.546954640074E+00
 -0.468052451179E+00
 -0.472307098039E+00
 -0.370302976899E+00
 -0.379280776732E+00
 -0.292220757420E+00
 -0.283266565567E+00
 -0.214359776988E+00
 -0.204640780967E+00
 -0.146413824847E+00
 -0.137446734860E+00
 -0.899242022737E-01
 -0.826348536170E-01
 -0.430904481184E-01
 -0.375951611988E-01
 -0.333339524214E-02
  0.679404742792E-03
  0.319727504832E-01
  0.348613649465E-01
  0.657989876943E-01
  0.678374765287E-01
  0.102211856608E+00
  0.103569097491E+00
  0.165567724506E+00
  0.166267321001E+00
  0.178442237374E+00
  0.177752168136E+00
  0.129023706474E+00
  0.128557074539E+00
  0.108236556103E+00
  0.107877506469E+00
  0.920519347590E-01
  0.917287419382E-01
  0.775874925442E-01
  0.772198408334E-01
  0.631578846603E-01
  0.626234329664E-01
  0.474697730220E-01
  0.465942655719E-01
  0.291054711615E-01
  0.277145075759E-01
  0.715372472974E-02
  0.521230079297E-02
 -0.161444287055E-01
 -0.184282152322E-01
 -0.395153000266E-01
 -0.369932408777E-01
 -0.536090584057E-01
 -0.512738191774E-01
 -0.413720144726E-01
 -0.392853485475E-01
  0.510148148341E-02
  0.719606914048E-02
  0.686517493318E-01
  0.712688161714E-01
  0.143879668395E+00
  0.147557928846E+00
  0.238893533419E+00
  0.243844053209E+00
  0.359325686040E+00
  0.364716665676E+00
  0.489748553702E+00
  0.489661163696E+00
  0.332942901256E+00
  0.305872690407E+00
 -0.567120981405E+00
 -0.512833876827E+00
 -0.951300608178E+00
 -0.895731125449E+00
 -0.922595057848E+00
 -0.879236799753E+00
 -0.808678868846E+00
 -0.776968806348E+00
 -0.723830551431E+00
 -0.701160369415E+00
 -0.656509500905E+00
 -0.641719829380E+00
 -0.607340157118E+00
 -0.599667525495E+00
 -0.554041414104E+00
 -0.553007611048E+00
 -0.467347812571E+00
 -0.471972404458E+00
 -0.365560487396E+00
 -0.373802390214E+00
 -0.283769571958E+00
 -0.276069734265E+00
 -0.204751110536E+00
 -0.196992609199E+00
 -0.137443096708E+00
 -0.130679148697E+00
 -0.826258702641E-01
 -0.772599244317E-01
 -0.375968732010E-01
 -0.335393332550E-01
  0.676265162796E-03
  0.369273890797E-02
  0.348666298892E-01
  0.371046653570E-01
  0.678583627390E-01
  0.695126437546E-01
  0.103612727583E+00
  0.104793136180E+00
  0.166354357993E+00
  0.167020793508E+00
  0.178220094300E+00
  0.178143222462E+00
  0.129095783331E+00
  0.128836982170E+00
  0.108382614150E+00
  0.108092987257E+00
  0.922378223836E-01
  0.919394987006E-01
  0.778350170893E-01
  0.775011368153E-01
  0.635312625920E-01
  0.630966594192E-01
  0.480812674396E-01
  0.474361474166E-01
  0.301050307223E-01
  0.291062653781E-01
  0.866524067979E-02
  0.719753653817E-02
 -0.141281470845E-01
 -0.160588289096E-01
 -0.370791926866E-01
 -0.346240130131E-01
 -0.513764611104E-01
 -0.486548834663E-01
 -0.393496845279E-01
 -0.364629712017E-01
  0.718817300485E-02
  0.103191549965E-01
  0.712956167578E-01
  0.749865326272E-01
  0.147634309626E+00
  0.152237839673E+00
  0.244086169495E+00
  0.249633817038E+00
  0.365478306155E+00
  0.371005838908E+00
  0.492084668778E+00
  0.491834191321E+00
  0.311609477913E+00
  0.285869144948E+00
 -0.619430500850E+00
 -0.569096840779E+00
 -0.999884171567E+00
 -0.950437316633E+00
 -0.959359693602E+00
 -0.921849170731E+00
 -0.835445523868E+00
 -0.808690392855E+00
 -0.743255701539E+00
 -0.724667401457E+00
 -0.669860590843E+00
 -0.658215767479E+00
 -0.615465823076E+00
 -0.609939818414E+00
 -0.557408796451E+00
 -0.557398506874E+00
 -0.466451970657E+00
 -0.470871793560E+00
 -0.361620258056E+00
 -0.368544748064E+00
 -0.276557343005E+00
 -0.270445330326E+00
 -0.197150806703E+00
 -0.191326588566E+00
 -0.130724305430E+00
 -0.125795348166E+00
 -0.772729500348E-01
 -0.733747653751E-01
 -0.335358038010E-01
 -0.305383272037E-01
  0.371571417412E-02
  0.601799113973E-02
  0.371524648863E-01
  0.389508353918E-01
  0.695912167100E-01
  0.710435760728E-01
  0.104912084872E+00
  0.106162441071E+00
  0.167221913131E+00
  0.168483389312E+00
  0.178308202928E+00
  0.177952001326E+00
  0.129244691344E+00
  0.128916897535E+00
  0.108541440915E+00
  0.108240711077E+00
  0.924140552793E-01
  0.921245465220E-01
  0.780552821194E-01
  0.777465881100E-01
  0.638441596747E-01
  0.634669547203E-01
  0.485643742882E-01
  0.480430349416E-01
  0.308710823372E-01
  0.300987687671E-01
  0.984399227828E-02
  0.870019084261E-02
 -0.124459914883E-01
 -0.140476073326E-01
 -0.346669959882E-01
 -0.324298073867E-01
 -0.487298113581E-01
 -0.459344991741E-01
 -0.365282921492E-01
 -0.332534587120E-01
  0.103106587705E-01
  0.140294273399E-01
  0.750595644655E-01
  0.793790395674E-01
  0.152444243940E+00
  0.157561650180E+00
  0.250118508753E+00
  0.255925295990E+00
  0.372132359262E+00
  0.377580586468E+00
  0.494672883029E+00
  0.494263930848E+00
  0.291679680447E+00
  0.267587569609E+00
 -0.666515721188E+00
 -0.620631823136E+00
 -0.104275076740E+01
 -0.999391869260E+00
 -0.991206782468E+00
 -0.959216776823E+00
 -0.858218972666E+00
 -0.835962064502E+00
 -0.759476371812E+00
 -0.744440026909E+00
 -0.680781601340E+00
 -0.671713210388E+00
 -0.621958570455E+00
 -0.617974604330E+00
 -0.560021962712E+00
 -0.560413135684E+00
 -0.465761158621E+00
 -0.469427197243E+00
 -0.358727721851E+00
 -0.364017448353E+00
 -0.270916650814E+00
 -0.266402188401E+00
 -0.191522256051E+00
 -0.187346982530E+00
 -0.125876217436E+00
 -0.122366076320E+00
 -0.734036864023E-01
 -0.705902177653E-01