# vtk DataFile Version 3.0
MachLine results file. Generated by MachLine, USU AeroLab (c) 2022.
ASCII
DATASET POLYDATA
POINTS                 144 float
  0.000000000000E+00  0.000000000000E+00  0.000000000000E+00
  0.113538098335E+01  0.000000000000E+00 -0.658124566078E+00
  0.113538098335E+01  0.000000000000E+00  0.658124566078E+00
  0.192375373840E+01  0.192375373840E+01  0.000000000000E+00
  0.305913543701E+01  0.192375373840E+01 -0.658124983311E+00
  0.305913543701E+01  0.192375373840E+01  0.658124983311E+00
  0.423028087616E+01  0.000000000000E+00 -0.108747220039E+01
  0.423028087616E+01  0.000000000000E+00  0.108747220039E+01
  0.547033166885E+01  0.547033166885E+01  0.000000000000E+00
  0.615403699875E+01  0.192375373840E+01 -0.108747279644E+01
  0.615403699875E+01  0.192375373840E+01  0.108747279644E+01
  0.660571479797E+01  0.547033166885E+01 -0.658125698566E+00
  0.660571479797E+01  0.547033166885E+01  0.658125698566E+00
  0.939508819580E+01  0.000000000000E+00 -0.980745851994E+00
  0.939508819580E+01  0.000000000000E+00  0.980745851994E+00
  0.970061969757E+01  0.547033166885E+01 -0.108747410774E+01
  0.970061969757E+01  0.547033166885E+01  0.108747410774E+01
  0.113188476562E+02  0.192375373840E+01 -0.980746448040E+00
  0.113188476562E+02  0.192375373840E+01  0.980746448040E+00
  0.113820018768E+02  0.113820018768E+02  0.000000000000E+00
  0.125173873901E+02  0.113820018768E+02 -0.658127009869E+00
  0.125173873901E+02  0.113820018768E+02  0.658127009869E+00
  0.145402030945E+02  0.000000000000E+00 -0.479613035917E+00
  0.145402030945E+02  0.000000000000E+00  0.479613035917E+00
  0.148654365540E+02  0.547033166885E+01 -0.980747580528E+00
  0.148654365540E+02  0.547033166885E+01  0.980747580528E+00
  0.156122989655E+02  0.113820018768E+02 -0.108747613430E+01
  0.156122989655E+02  0.113820018768E+02  0.108747613430E+01
  0.164639663696E+02  0.192375373840E+01 -0.479613333941E+00
  0.164639663696E+02  0.192375373840E+01  0.479613333941E+00
  0.176505107880E+02  0.000000000000E+00 -0.144198849797E+00
  0.176505107880E+02  0.000000000000E+00  0.144198849797E+00
  0.190000000000E+02  0.000000000000E+00  0.000000000000E+00
  0.195742740631E+02  0.192375373840E+01 -0.144198939204E+00
  0.195742740631E+02  0.192375373840E+01  0.144198939204E+00
  0.197561950684E+02  0.197561950684E+02  0.000000000000E+00
  0.200105609894E+02  0.547033166885E+01 -0.479613870382E+00
  0.200105609894E+02  0.547033166885E+01  0.479613870382E+00
  0.207771244049E+02  0.113820018768E+02 -0.980749428272E+00
  0.207771244049E+02  0.113820018768E+02  0.980749428272E+00
  0.208915824890E+02  0.197561950684E+02 -0.658128738403E+00
  0.208915824890E+02  0.197561950684E+02  0.658128738403E+00
  0.209237651825E+02  0.192375373840E+01  0.000000000000E+00
  0.231208724976E+02  0.547033166885E+01 -0.144199103117E+00
  0.231208724976E+02  0.547033166885E+01  0.144199103117E+00
  0.239865016937E+02  0.197561950684E+02 -0.108747911453E+01
  0.239865016937E+02  0.197561950684E+02  0.108747911453E+01
  0.244703655243E+02  0.547033166885E+01  0.000000000000E+00
  0.259222583771E+02  0.113820018768E+02 -0.479614794254E+00
  0.259222583771E+02  0.113820018768E+02  0.479614794254E+00
  0.290325775146E+02  0.113820018768E+02 -0.144199386239E+00
  0.290325775146E+02  0.113820018768E+02  0.144199386239E+00
  0.291513423920E+02  0.197561950684E+02 -0.980752110481E+00
  0.291513423920E+02  0.197561950684E+02  0.980752110481E+00
  0.292438049316E+02  0.292438049316E+02  0.000000000000E+00
  0.303791980743E+02  0.292438049316E+02 -0.658130764961E+00
  0.303791980743E+02  0.292438049316E+02  0.658130764961E+00
  0.303820724487E+02  0.113820018768E+02  0.000000000000E+00
  0.334741249084E+02  0.292438049316E+02 -0.108748245239E+01
  0.334741249084E+02  0.292438049316E+02  0.108748245239E+01
  0.342964897156E+02  0.197561950684E+02 -0.479616105556E+00
  0.342964897156E+02  0.197561950684E+02  0.479616105556E+00
  0.374068183899E+02  0.197561950684E+02 -0.144199773669E+00
  0.374068183899E+02  0.197561950684E+02  0.144199773669E+00
  0.376179962158E+02  0.376179962158E+02  0.000000000000E+00
  0.386389808655E+02  0.292438049316E+02 -0.980755090714E+00
  0.386389808655E+02  0.292438049316E+02  0.980755090714E+00
  0.387533912659E+02  0.376179962158E+02 -0.658132553101E+00
  0.387533912659E+02  0.376179962158E+02  0.658132553101E+00
  0.387563171387E+02  0.197561950684E+02  0.000000000000E+00
  0.418483314514E+02  0.376179962158E+02 -0.108748543262E+01
  0.418483314514E+02  0.376179962158E+02  0.108748543262E+01
  0.435296669006E+02  0.435296669006E+02  0.000000000000E+00
  0.437841453552E+02  0.292438049316E+02 -0.479617565870E+00
  0.437841453552E+02  0.292438049316E+02  0.479617565870E+00
  0.446650657654E+02  0.435296669006E+02 -0.658133804798E+00
  0.446650657654E+02  0.435296669006E+02  0.658133804798E+00
  0.468944816589E+02  0.292438049316E+02 -0.144200220704E+00
  0.468944816589E+02  0.292438049316E+02  0.144200220704E+00
  0.470131988525E+02  0.376179962158E+02 -0.980757772923E+00
  0.470131988525E+02  0.376179962158E+02  0.980757772923E+00
  0.470762481689E+02  0.470762481689E+02  0.000000000000E+00
  0.477600097656E+02  0.435296669006E+02 -0.108748745918E+01
  0.477600097656E+02  0.435296669006E+02  0.108748745918E+01
  0.482116432190E+02  0.470762481689E+02 -0.658134579659E+00
  0.482116432190E+02  0.470762481689E+02  0.658134579659E+00
  0.482439842224E+02  0.292438049316E+02  0.000000000000E+00
  0.490000000000E+02  0.490000000000E+02  0.000000000000E+00
  0.501353988647E+02  0.490000000000E+02 -0.658134996891E+00
  0.501353988647E+02  0.490000000000E+02  0.658134996891E+00
  0.506007728577E+02  0.494653701782E+02 -0.465371757746E+00
  0.506007728577E+02  0.494653701782E+02  0.465371757746E+00
  0.507935333252E+02  0.496581344604E+02 -0.771266485397E-15
  0.513065910339E+02  0.470762481689E+02 -0.108748877048E+01
  0.513065910339E+02  0.470762481689E+02  0.108748877048E+01
  0.521583786011E+02  0.376179962158E+02 -0.479618877172E+00
  0.521583786011E+02  0.376179962158E+02  0.479618877172E+00
  0.529248886108E+02  0.435296669006E+02 -0.980759620667E+00
  0.529248886108E+02  0.435296669006E+02  0.980759620667E+00
  0.532303466797E+02  0.490000000000E+02 -0.108748936653E+01
  0.532303466797E+02  0.490000000000E+02  0.108748936653E+01
  0.539993209839E+02  0.497689704895E+02 -0.768971264362E+00
  0.539993209839E+02  0.497689704895E+02  0.768971264362E+00
  0.543178405762E+02  0.500874900818E+02 -0.157378642191E-15
  0.552687225342E+02  0.376179962158E+02 -0.144200608134E+00
  0.552687225342E+02  0.376179962158E+02  0.144200608134E+00
  0.564714775085E+02  0.470762481689E+02 -0.980760753155E+00
  0.564714775085E+02  0.470762481689E+02  0.980760753155E+00
  0.566182289124E+02  0.376179962158E+02  0.000000000000E+00
  0.580700759888E+02  0.435296669006E+02 -0.479619771242E+00
  0.580700759888E+02  0.435296669006E+02  0.479619771242E+00
  0.583952369690E+02  0.490000000000E+02 -0.980761349201E+00
  0.583952369690E+02  0.490000000000E+02  0.980761349201E+00
  0.590887413025E+02  0.496935043335E+02 -0.693503141403E+00
  0.590887413025E+02  0.496935043335E+02  0.693503141403E+00
  0.593759994507E+02  0.499807624817E+02  0.000000000000E+00
  0.611804275513E+02  0.435296669006E+02 -0.144200876355E+00
  0.611804275513E+02  0.435296669006E+02  0.144200876355E+00
  0.616166725159E+02  0.470762481689E+02 -0.479620337486E+00
  0.616166725159E+02  0.470762481689E+02  0.479620337486E+00
  0.625299339294E+02  0.435296669006E+02  0.000000000000E+00
  0.635404319763E+02  0.490000000000E+02 -0.479620635509E+00
  0.635404319763E+02  0.490000000000E+02  0.479620635509E+00
  0.638795776367E+02  0.493391418457E+02 -0.339143037796E+00
  0.638795776367E+02  0.493391418457E+02  0.339143037796E+00
  0.640200576782E+02  0.494796218872E+02  0.296956834055E-15
  0.647270278931E+02  0.470762481689E+02 -0.144201040268E+00
  0.647270278931E+02  0.470762481689E+02  0.144201040268E+00
  0.660765380859E+02  0.470762481689E+02  0.000000000000E+00
  0.666507873535E+02  0.490000000000E+02 -0.144201144576E+00
  0.666507873535E+02  0.490000000000E+02  0.144201144576E+00
  0.667527542114E+02  0.491019668579E+02 -0.101965606213E+00
  0.667527542114E+02  0.491019668579E+02  0.101965606213E+00
  0.667949905396E+02  0.491441993713E+02 -0.260488604752E-16
  0.680002975464E+02  0.490000000000E+02  0.000000000000E+00
  0.190000000000E+02  0.000000000000E+00  0.000000000000E+00
  0.209237651825E+02  0.192375373840E+01  0.000000000000E+00
  0.244703655243E+02  0.547033166885E+01  0.000000000000E+00
  0.303820724487E+02  0.113820018768E+02  0.000000000000E+00
  0.387563171387E+02  0.197561950684E+02  0.000000000000E+00
  0.482439842224E+02  0.292438049316E+02  0.000000000000E+00
  0.566182289124E+02  0.376179962158E+02  0.000000000000E+00
  0.625299339294E+02  0.435296669006E+02  0.000000000000E+00
  0.660765380859E+02  0.470762481689E+02  0.000000000000E+00
POLYGONS                 256                1024
3                  32                  33                  42
3                  32                  30                  33
3                  30                  28                  33
3                  30                  22                  28
3                  22                  17                  28
3                  22                  13                  17
3                  13                   6                  17
3                  17                   6                   9
3                   6                   1                   9
3                   9                   1                   4
3                   1                   0                   4
3                   4                   0                   3
3                   0                   5                   3
3                   0                   2                   5
3                   2                  10                   5
3                   2                   7                  10
[...]
CELL_DATA                 256
SCALARS C_p_inc float 1
LOOKUP_TABLE default
  0.122215634913E+00
  0.922745681861E-01
  0.480273146920E-01
  0.219693106095E-01
 -0.228236944123E-01
 -0.417355009852E-01
 -0.197700675069E-01
 -0.396113682124E-01
  0.163849157043E+00
  0.839432314367E-01
  0.549745515612E+00
  0.546432324636E+00
 -0.299765633116E+00
  0.115669813950E+00
 -0.543792517178E+00
 -0.366544784288E+00
 -0.409949324299E+00
 -0.415235615057E+00
 -0.300696777174E+00
 -0.245817296673E+00
 -0.133076277184E+00
 -0.620742303712E-01
  0.166680346729E-01
  0.957360513249E-01
  0.120762871927E+00
  0.120687651594E+00
  0.561634037234E-01
  0.479418394022E-01
 -0.913575346681E-02
 -0.227022065803E-01
 -0.394362152606E-01
 -0.433922421413E-01
  0.835300519600E-01
  0.761542124192E-01
  0.478868656933E+00
  0.482972728339E+00
 -0.512048192899E+00
 -0.294041338653E+00
 -0.652624654316E+00
 -0.536383466712E+00
 -0.420336716449E+00
 -0.423511673343E+00
 -0.246300403792E+00
 -0.197913940692E+00
 -0.618795368860E-01
 -0.210141869137E-01
  0.928595438818E-01
  0.107709037019E+00
  0.120659249992E+00
  0.120040173495E+00
  0.565074273811E-01
  0.559435555391E-01
 -0.380514366379E-02
 -0.894154490045E-02
 -0.434715763566E-01
 -0.327231399740E-01
  0.756711362211E-01
  0.929625862834E-01
  0.482832338701E+00
  0.486828487737E+00
 -0.641281547565E+00
 -0.510299118048E+00
 -0.709902763267E+00
 -0.655222076139E+00
 -0.419105554994E+00
 -0.432382378585E+00
 -0.198869203635E+00
 -0.175840170307E+00
 -0.210248285929E-01
 -0.790976383345E-02
  0.107623049032E+00
  0.113997278546E+00
  0.118855626620E+00
  0.119936184757E+00
  0.546373026888E-01
  0.562466926406E-01
 -0.347485033159E-02
 -0.368887636429E-02
 -0.327536561178E-01
 -0.269292130526E-01
  0.933785736752E-01
  0.109023674079E+00
  0.494576389212E+00
  0.496266273478E+00
 -0.703696077471E+00
 -0.641508013889E+00
 -0.734724560745E+00
 -0.715121855915E+00
 -0.421743501600E+00
 -0.425724865998E+00
 -0.176776324265E+00
 -0.169579519430E+00
 -0.784047515390E-02
 -0.139463895009E-02
  0.114791997320E+00
  0.119812714136E+00
  0.111290846572E+00
  0.117743154672E+00
  0.460154191004E-01
  0.542211537504E-01
 -0.101150091778E-01
 -0.343037124177E-02
 -0.267692842544E-01
 -0.303225854431E-01
  0.109026149466E+00
  0.111212101352E+00
  0.499373776126E+00
  0.499617149715E+00
 -0.719432861707E+00
 -0.704038967112E+00
 -0.737781247844E+00
 -0.737543658468E+00
 -0.416635540899E+00
 -0.424950213020E+00
 -0.170489686236E+00
 -0.160077867180E+00
 -0.136213180034E-02
  0.107674579571E-01
  0.120981840853E+00
  0.131867679565E+00
  0.961494752981E-01
  0.108946865685E+00
  0.266306110018E-01
  0.450935533860E-01
 -0.292172723407E-01
 -0.101525059527E-01
 -0.300116775655E-01
 -0.482641761737E-01
  0.110467758905E+00
  0.968929052170E-01
  0.497943394849E+00
  0.497698958467E+00
 -0.690936472580E+00
 -0.719739351963E+00
 -0.714933612134E+00
 -0.740588357268E+00
 -0.393677272761E+00
 -0.420601464959E+00
 -0.161123653278E+00
 -0.133690453470E+00
  0.106776601739E-01
  0.415349194369E-01
  0.133841536199E+00
  0.161701380925E+00
  0.732009464638E-01
  0.910336777038E-01
  0.293888890362E-02
  0.243259930836E-01
 -0.531491613945E-01
 -0.296321786397E-01
 -0.478317660418E-01
 -0.829481695253E-01
  0.946018340325E-01
  0.618442471390E-01
  0.489489753946E+00
  0.489023605668E+00
 -0.627013570019E+00
 -0.691346316766E+00
 -0.667656925572E+00
 -0.719649292049E+00
 -0.344348767818E+00
 -0.402108008875E+00
 -0.135207419532E+00
 -0.772087171408E-01
  0.407823357857E-01
  0.100009382854E+00
  0.165087342428E+00
  0.219802486383E+00
  0.104270115982E-01
  0.619617370720E-01
 -0.354355049156E-01
 -0.207731025736E-02
 -0.677821627447E-01
 -0.554132286938E-01
 -0.834180625527E-01
 -0.105042989973E+00
  0.544922902155E-01
 -0.353873485216E-02
  0.464250714607E+00
  0.465101140479E+00
 -0.543248569023E+00
 -0.627088787475E+00
 -0.596079607332E+00
 -0.675909837190E+00
 -0.250500754480E+00
 -0.368372697067E+00
 -0.812536948203E-01
 -0.956029064063E-02
  0.949015333381E-01
  0.166762589628E+00
  0.220175334928E+00
  0.306374782707E+00
 -0.150888679959E+00
 -0.178493242196E-01
 -0.100709932794E+00
 -0.490230069851E-01
 -0.912597219494E-01
 -0.773856913126E-01
 -0.112838070418E+00
 -0.104917104281E+00
 -0.284989701444E-01
 -0.434990830275E-01
  0.347764134184E+00
  0.367376041195E+00
 -0.430701151044E+00
 -0.541460205519E+00
 -0.398427433972E+00
 -0.636066099231E+00
 -0.153195704730E+00
 -0.329205531590E+00
 -0.312225452573E-01
  0.123612016014E-01
  0.131483004784E+00
  0.186161500146E+00
  0.273503524656E+00
  0.395721168485E+00
 -0.434568266352E+00
 -0.439466996801E+00
 -0.212991787747E+00
 -0.236393444435E+00
 -0.146358268817E+00
 -0.169386048965E+00
 -0.169966910208E+00
 -0.154090030002E+00
 -0.180383980488E+00
 -0.437794106398E-02
 -0.434639854867E+00
 -0.319524730398E+00
 -0.490860809399E+00
 -0.181355742393E+00
 -0.366729338174E+00
 -0.101166505463E+00
 -0.253864791776E+00
 -0.994086137988E-01
 -0.426567161404E+00
 -0.171730586652E+00
 -0.905117566423E+00
 -0.959813560071E+00
 -0.413586137171E+00
 -0.479324481166E+00
 -0.244781127454E+00
 -0.299161439437E+00
 -0.271718573448E+00
 -0.295118648559E+00
 -0.317808835293E+00
 -0.210234884129E+00
 -0.359185906843E+00
 -0.363476561771E+00
 -0.400630013330E+00
 -0.260730223356E+00
 -0.388420731238E+00
 -0.246549280752E+00
 -0.461657256633E+00
 -0.398541548814E+00
 -0.931491652752E+00
 -0.818879323294E+00
SCALARS sigma float 1
LOOKUP_TABLE default
  0.348572633760E-02
  0.348564297752E-02
  0.251683975288E-02
  0.251690566539E-02
  0.128019157568E-01
  0.128019016968E-01
  0.891568905524E-01
  0.891569039349E-01
  0.242991708117E+00
  0.242991693500E+00
  0.530437482666E+00
  0.530437483343E+00
  0.360708673113E+00
  0.360708672082E+00
  0.276286603430E-01
  0.276286767277E-01
 -0.130218062181E+00
 -0.130218075280E+00
 -0.204613839989E+00
 -0.204613825729E+00
 -0.214443095594E+00
 -0.214443160919E+00
 -0.213519220545E+00
 -0.213519139681E+00
  0.348575539579E-02
  0.348572632728E-02
  0.251685200867E-02
  0.251683973229E-02
  0.128019083616E-01
  0.128019157779E-01
  0.891569038470E-01
  0.891568940286E-01
  0.242991694082E+00
  0.242991731988E+00
  0.530437477435E+00
  0.530437443111E+00
  0.360708621070E+00
  0.360708669095E+00
  0.276287018663E-01
  0.276286604091E-01
 -0.130218071717E+00
 -0.130218062052E+00
 -0.204613826066E+00
 -0.204613833397E+00
 -0.214443159164E+00
 -0.214443147208E+00
 -0.213519139049E+00
 -0.213519111066E+00
  0.348569759910E-02
  0.348575539512E-02
  0.251690952999E-02
  0.251685201334E-02
  0.128019093294E-01
  0.128019083694E-01
  0.891568940714E-01
  0.891568937898E-01
  0.242991731484E+00
  0.242991670612E+00
  0.530437440912E+00
  0.530437418150E+00
  0.360708588782E+00
  0.360708619574E+00
  0.276286359907E-01
  0.276287018090E-01
 -0.130218072058E+00
 -0.130218071780E+00
 -0.204613833521E+00
 -0.204613832584E+00
 -0.214443147606E+00
 -0.214443092061E+00
 -0.213519111025E+00
 -0.213519166461E+00
  0.348571231418E-02
  0.348569760236E-02
  0.251694258974E-02
  0.251690953928E-02
  0.128018958115E-01
  0.128019093238E-01
  0.891568937769E-01
  0.891568971193E-01
  0.242991671651E+00
  0.242991727767E+00
  0.530437431830E+00
  0.530437638119E+00
  0.360708873323E+00
  0.360708598085E+00
  0.276286964823E-01
  0.276286361089E-01
 -0.130218068736E+00
 -0.130218072039E+00
 -0.204613832494E+00
 -0.204613845612E+00
 -0.214443092853E+00
 -0.214443061055E+00
 -0.213519166660E+00
 -0.213519152572E+00
  0.348568359069E-02
  0.348571231728E-02
  0.251688236830E-02
  0.251694258605E-02
  0.128019249547E-01
  0.128018958023E-01
  0.891568971248E-01
  0.891568889461E-01
  0.242991727175E+00
  0.242991800705E+00
  0.530437613111E+00
  0.530437182530E+00
  0.360708283996E+00
  0.360708856316E+00
  0.276287754132E-01
  0.276286964150E-01
 -0.130218076828E+00
 -0.130218068744E+00
 -0.204613845464E+00
 -0.204613817207E+00
 -0.214443060740E+00
 -0.214443118616E+00
 -0.213519152762E+00
 -0.213519180258E+00
  0.348569828988E-02
  0.348568357810E-02
  0.251685039749E-02
  0.251688235694E-02
  0.128019470508E-01
  0.128019249461E-01
  0.891568889363E-01
  0.891568770408E-01
  0.242991799834E+00
  0.242991608205E+00
  0.530437197518E+00
  0.530437423524E+00
  0.360708595734E+00
  0.360708294188E+00
  0.276285691443E-01
  0.276287753142E-01
 -0.130218088569E+00
 -0.130218076814E+00
 -0.204613817069E+00
 -0.204613795610E+00
 -0.214443117648E+00
 -0.214443148397E+00
 -0.213519179487E+00
 -0.213519165398E+00
  0.348550282266E-02
  0.348569829553E-02
  0.251691263858E-02
  0.251685040984E-02
  0.128019067175E-01
  0.128019470726E-01
  0.891568770671E-01
  0.891568882192E-01
  0.242991607615E+00
  0.242991678532E+00
  0.530437393677E+00
  0.530437084729E+00
  0.360708157487E+00
  0.360708575437E+00
  0.276286457573E-01
  0.276285690772E-01
 -0.130218077600E+00
 -0.130218088607E+00
 -0.204613795959E+00
 -0.204613835353E+00
 -0.214443149449E+00
 -0.214443089354E+00
 -0.213519165745E+00
 -0.213519353234E+00
  0.348568041116E-02
  0.348550282255E-02
  0.251691550946E-02
  0.251691265132E-02
  0.128019406630E-01
  0.128019067938E-01
  0.891568882297E-01
  0.891568841338E-01
  0.242991686567E+00
  0.242991688629E+00
  0.530437239559E+00
  0.530438139095E+00
  0.360709521358E+00
  0.360708262774E+00
  0.276286489263E-01
  0.276286466708E-01
 -0.130218081647E+00
 -0.130218077616E+00
 -0.204613836572E+00
 -0.204613803096E+00
 -0.214443090439E+00
 -0.214443087655E+00
 -0.213519353227E+00
 -0.213519182268E+00
  0.348560449546E-02
  0.348568048822E-02
  0.251685431774E-02
  0.251691552102E-02
  0.128018835311E-01
  0.128019405194E-01
  0.891568840932E-01
  0.891568993876E-01
  0.242991677822E+00
  0.242991727404E+00
  0.530437967612E+00
  0.530437505674E+00
  0.360708701998E+00
  0.360709404746E+00
  0.276287032777E-01
  0.276286476974E-01
 -0.130218066618E+00
 -0.130218081588E+00
 -0.204613800799E+00
 -0.204613858600E+00
 -0.214443088640E+00
 -0.214443149298E+00
 -0.213519186989E+00
 -0.213519260706E+00
  0.335217135037E-02
  0.242196990810E-02
  0.242143353989E-02
  0.122663733297E-01
  0.122665320040E-01
  0.829834632257E-01
  0.829835575261E-01
  0.215122818082E+00
  0.215122974292E+00
  0.449939566118E+00
  0.305968403697E+00
  0.244602703077E-01
  0.244599459108E-01
 -0.121201282994E+00
 -0.121201457394E+00
 -0.196057278516E+00
 -0.196057371556E+00
 -0.206313027516E+00
 -0.206312769211E+00
 -0.205345485818E+00
 -0.613530608024E-01
 -0.623932095199E-01
 -0.623875928094E-01
 -0.514666507602E-01
 -0.514681364311E-01
  0.234261204367E-01
  0.234260364896E-01
  0.150326203416E+00
  0.150326114522E+00
  0.358711830574E+00
  0.306250924686E+00
  0.757896995323E-01
  0.757900611874E-01
 -0.620507049411E-01
 -0.620502458690E-01
 -0.142568919111E+00
 -0.142568751093E+00
 -0.154258429846E+00
 -0.154258146793E+00
 -0.153145344085E+00
SCALARS inclination float 1
LOOKUP_TABLE default
  0.100000000000E+01
  0.100000000000E+01
  0.100000000000E+01
  0.100000000000E+01
  0.100000000000E+01
  0.100000000000E+01
  0.100000000000E+01
  0.100000000000E+01
  0.100000000000E+01
  0.100000000000E+01
  0.100000000000E+01
  0.100000000000E+01
  0.100000000000E+01
  0.100000000000E+01
  0.100000000000E+01
  0.100000000000E+01
  0.100000000000E+01
  0.100000000000E+01
  0.100000000000E+01
  0.100000000000E+01
  0.100000000000E+01
  0.100000000000E+01
  0.100000000000E+01
  0.100000000000E+01
  0.100000000000E+01
  0.100000000000E+01
  0.100000000000E+01
  0.100000000000E+01
  0.100000000000E+01
  0.100000000000E+01
  0.100000000000E+01
  0.100000000000E+01
  0.100000000000E+01
  0.100000000000E+01
  0.100000000000E+01
  0.100000000000E+01
  0.100000000000E+01
  0.100000000000E+01
  0.100000000000E+01
  0.100000000000E+01
  0.100000000000E+01
  0.100000000000E+01
  0.100000000000E+01
  0.100000000000E+01
  0.100000000000E+01
  0.100000000000E+01
  0.100000000000E+01
  0.100000000000E+01
  0.100000000000E+01
  0.100000000000E+01
  0.100000000000E+01
  0.100000000000E+01
  0.100000000000E+01
  0.100000000000E+01
  0.100000000000E+01
  0.100000000000E+01
  0.100000000000E+01
  0.100000000000E+01
  0.100000000000E+01
  0.100000000000E+01
  0.100000000000E+01
  0.100000000000E+01
  0.100000000000E+01
  0.100000000000E+01
  0.100000000000E+01
  0.100000000000E+01
  0.100000000000E+01
  0.100000000000E+01
  0.100000000000E+01
  0.100000000000E+01
  0.100000000000E+01
  0.100000000000E+01
  0.100000000000E+01
  0.100000000000E+01
  0.100000000000E+01
  0.100000000000E+01
  0.100000000000E+01
  0.100000000000E+01
  0.100000000000E+01
  0.100000000000E+01
  0.100000000000E+01
  0.100000000000E+01
  0.100000000000E+01
  0.100000000000E+01
  0.100000000000E+01
  0.100000000000E+01
  0.100000000000E+01
  0.100000000000E+01
  0.100000000000E+01
  0.100000000000E+01
  0.100000000000E+01
  0.100000000000E+01
  0.100000000000E+01
  0.100000000000E+01
  0.100000000000E+01
  0.100000000000E+01
  0.100000000000E+01
  0.100000000000E+01
  0.100000000000E+01
  0.100000000000E+01
  0.100000000000E+01
  0.100000000000E+01
  0.100000000000E+01
  0.100000000000E+01
  0.100000000000E+01
  0.100000000000E+01
  0.100000000000E+01
  0.100000000000E+01
  0.100000000000E+01
  0.100000000000E+01
  0.100000000000E+01
  0.100000000000E+01
  0.100000000000E+01
  0.100000000000E+01
  0.100000000000E+01
  0.100000000000E+01
  0.100000000000E+01
  0.100000000000E+01
  0.100000000000E+01
  0.100000000000E+01
  0.100000000000E+01
  0.100000000000E+01
  0.100000000000E+01
  0.100000000000E+01
  0.100000000000E+01
  0.100000000000E+01
  0.100000000000E+01
  0.100000000000E+01
  0.100000000000E+01
  0.100000000000E+01
  0.100000000000E+01
  0.100000000000E+01
  0.100000000000E+01
  0.100000000000E+01
  0.100000000000E+01
  0.100000000000E+01
  0.100000000000E+01
  0.100000000000E+01
  0.100000000000E+01
  0.100000000000E+01
  0.100000000000E+01
  0.100000000000E+01
  0.100000000000E+01
  0.100000000000E+01
  0.100000000000E+01
  0.100000000000E+01
  0.100000000000E+01
  0.100000000000E+01
  0.100000000000E+01
  0.100000000000E+01
  0.100000000000E+01
  0.100000000000E+01
  0.100000000000E+01
  0.100000000000E+01
  0.100000000000E+01
  0.100000000000E+01
  0.100000000000E+01
  0.100000000000E+01
  0.100000000000E+01
  0.100000000000E+01
  0.100000000000E+01
  0.100000000000E+01
  0.100000000000E+01
  0.100000000000E+01
  0.100000000000E+01
  0.100000000000E+01
  0.100000000000E+01
  0.100000000000E+01
  0.100000000000E+01
  0.100000000000E+01
  0.100000000000E+01
  0.100000000000E+01
  0.100000000000E+01
  0.100000000000E+01
  0.100000000000E+01
  0.100000000000E+01
  0.100000000000E+01
  0.100000000000E+01
  0.100000000000E+01
  0.100000000000E+01
  0.100000000000E+01
  0.100000000000E+01
  0.100000000000E+01
  0.100000000000E+01
  0.100000000000E+01
  0.100000000000E+01
  0.100000000000E+01
  0.100000000000E+01
  0.100000000000E+01
  0.100000000000E+01
  0.100000000000E+01
  0.100000000000E+01
  0.100000000000E+01
  0.100000000000E+01
  0.100000000000E+01
  0.100000000000E+01
  0.100000000000E+01
  0.100000000000E+01
  0.100000000000E+01
  0.100000000000E+01
  0.100000000000E+01
  0.100000000000E+01
  0.100000000000E+01
  0.100000000000E+01
  0.100000000000E+01
  0.100000000000E+01
  0.100000000000E+01
  0.100000000000E+01
  0.100000000000E+01
  0.100000000000E+01
  0.100000000000E+01
  0.100000000000E+01
  0.100000000000E+01
  0.100000000000E+01
  0.100000000000E+01
  0.100000000000E+01
  0.100000000000E+01
  0.100000000000E+01
  0.100000000000E+01
  0.100000000000E+01
  0.100000000000E+01
  0.100000000000E+01
  0.100000000000E+01
  0.100000000000E+01
  0.100000000000E+01
  0.100000000000E+01
  0.100000000000E+01
  0.100000000000E+01
  0.100000000000E+01
  0.100000000000E+01
  0.100000000000E+01
  0.100000000000E+01
  0.100000000000E+01
  0.100000000000E+01
  0.100000000000E+01
  0.100000000000E+01
  0.100000000000E+01
  0.100000000000E+01
  0.100000000000E+01
  0.100000000000E+01
  0.100000000000E+01
  0.100000000000E+01
  0.100000000000E+01
  0.100000000000E+01
  0.100000000000E+01
  0.100000000000E+01
  0.100000000000E+01
  0.100000000000E+01
  0.100000000000E+01
  0.100000000000E+01
  0.100000000000E+01
  0.100000000000E+01
  0.100000000000E+01
  0.100000000000E+01
  0.100000000000E+01
  0.100000000000E+01
VECTORS v float
  0.151847588035E+03  0.366923966051E+01  0.158334924875E+02
  0.154423882526E+03  0.292675353143E+01  0.161881319826E+02
  0.158110288825E+03 -0.759670998124E+00  0.171324762821E+02
  0.160276037998E+03  0.591447721950E+00  0.172203141595E+02
  0.164013489769E+03 -0.314602272275E+01  0.162812914601E+02
  0.165576976173E+03 -0.554035862311E+00  0.161811165051E+02
  0.164567807336E+03  0.455132013997E+00  0.339124861893E+01
  0.166080231206E+03 -0.512591574053E+01  0.353782877628E+01
  0.147257538229E+03  0.136967937274E+02 -0.185285461632E+02
  0.154324164040E+03 -0.555330472492E+01 -0.221793932286E+02
  0.907583092376E+02  0.580125744051E+02 -0.189810935128E+02
  0.941507756706E+02  0.504443964278E+02 -0.253344405190E+02
  0.157155565541E+03 -0.125603934425E+02  0.983760023702E+02
  0.137002399234E+03  0.323988575157E+02  0.606335332048E+02
  0.198014757471E+03 -0.286135170736E+02  0.314395587352E+02
  0.188653890793E+03 -0.311370873396E+01  0.266034336221E+02
  0.193346147931E+03 -0.780596215759E+01 -0.415663712198E+01
  0.193658486736E+03 -0.895853460194E+01 -0.418691166033E+01
  0.185019557038E+03 -0.319574912046E+00 -0.180519821108E+02
  0.180866411923E+03 -0.720476182782E+01 -0.183180839677E+02
  0.172516262314E+03  0.114542920162E+01 -0.184805529616E+02
  0.166971939724E+03 -0.231344039084E+01 -0.182556721346E+02
  0.160717071295E+03  0.394145897589E+01 -0.167521605263E+02
  0.154078739326E+03  0.585462273010E+01 -0.158383816301E+02
  0.151882162018E+03  0.732576660830E+01  0.154464643241E+02
  0.151888820605E+03  0.732168843311E+01  0.154476159515E+02
  0.157454097495E+03  0.175637942973E+01  0.167903793792E+02
  0.158138334304E+03  0.167996510088E+01  0.168724097218E+02
  0.162913191772E+03 -0.309491494287E+01  0.161691459913E+02
  0.164018730305E+03 -0.258837792614E+01  0.162274870403E+02
  0.166080434298E+03 -0.465009234995E+01  0.352800055641E+01
  0.166374358797E+03 -0.537268630743E+01  0.354900807195E+01
  0.154550825299E+03  0.645085417787E+01 -0.205455330694E+02
  0.155195259970E+03  0.521243423061E+01 -0.208067427188E+02
  0.973283895478E+02  0.630793281855E+02 -0.198524960056E+02
  0.941143545820E+02  0.682210658197E+02 -0.150090646213E+02
  0.171019687208E+03 -0.868426680659E+01  0.104165534292E+03
  0.161828372492E+03  0.601977850437E+01  0.903145860318E+02
  0.203750527476E+03 -0.359023818799E+02  0.332464429546E+02
  0.198082787351E+03 -0.250106044615E+02  0.309491736023E+02
  0.193167503288E+03 -0.200953007174E+02 -0.440690160865E+01
  0.193340720675E+03 -0.205211441132E+02 -0.441927846369E+01
  0.180858572530E+03 -0.803895290502E+01 -0.183985707824E+02
  0.177204920046E+03 -0.971298831276E+01 -0.182057589760E+02
  0.167004142535E+03  0.487837162536E+00 -0.179570545055E+02
  0.163761888854E+03  0.849926867713E+00 -0.175683612075E+02
  0.154130965535E+03  0.104809057635E+02 -0.153496207175E+02
  0.152810819521E+03  0.112894884988E+02 -0.151221520337E+02
  0.151840193237E+03  0.856629469038E+01  0.153094317293E+02
  0.151895685785E+03  0.852372482304E+01  0.153199016117E+02
  0.157420920208E+03  0.299845793079E+01  0.166528463907E+02
  0.157468123857E+03  0.297651296684E+01  0.166603124921E+02
  0.162508166053E+03 -0.206355250000E+01  0.160292413776E+02
  0.162922415335E+03 -0.211343581737E+01  0.160744479542E+02
  0.166374276581E+03 -0.556531127891E+01  0.355298675043E+01
  0.165559173993E+03 -0.403720584696E+01  0.350456583583E+01
  0.155215909837E+03  0.630606587750E+01 -0.206578907041E+02
  0.153685072332E+03  0.867765622380E+01 -0.201165073961E+02
  0.941198476347E+02  0.682429060788E+02 -0.149995881346E+02
  0.903351115062E+02  0.733268327694E+02 -0.985886071023E+01