# vtk DataFile Version 3.0
MachLine results file. Generated by MachLine, USU AeroLab (c) 2022.
ASCII
DATASET POLYDATA
POINTS                 482 float
  0.000000000000E+00  0.000000000000E+00  0.000000000000E+00
  0.473465979099E+00  0.000000000000E+00 -0.436293870211E+00
  0.473465979099E+00  0.000000000000E+00  0.436293870211E+00
  0.757896304131E+00  0.757896304131E+00  0.000000000000E+00
  0.123136246204E+01  0.757896304131E+00 -0.436293989420E+00
  0.123136246204E+01  0.757896304131E+00  0.436293989420E+00
  0.157641971111E+01  0.000000000000E+00 -0.760520398617E+00
  0.157641971111E+01  0.000000000000E+00  0.760520398617E+00
  0.178897356987E+01  0.178897356987E+01  0.000000000000E+00
  0.226243972778E+01  0.178897356987E+01 -0.436294138432E+00
  0.226243972778E+01  0.178897356987E+01  0.436294138432E+00
  0.233431649208E+01  0.757896304131E+00 -0.760520577431E+00
  0.233431649208E+01  0.757896304131E+00  0.760520577431E+00
  0.317279767990E+01  0.317279767990E+01  0.000000000000E+00
  0.336539411545E+01  0.178897356987E+01 -0.760520815849E+00
  0.336539411545E+01  0.178897356987E+01  0.760520815849E+00
  0.342464399338E+01  0.000000000000E+00 -0.102348911762E+01
  0.342464399338E+01  0.000000000000E+00  0.102348911762E+01
  0.364626431465E+01  0.317279767990E+01 -0.436294317245E+00
  0.364626431465E+01  0.317279767990E+01  0.436294317245E+00
  0.418254137039E+01  0.757896304131E+00 -0.102348935604E+01
  0.418254137039E+01  0.757896304131E+00  0.102348935604E+01
  0.474921894073E+01  0.317279767990E+01 -0.760521173477E+00
  0.474921894073E+01  0.317279767990E+01  0.760521173477E+00
  0.499661636353E+01  0.499661636353E+01  0.000000000000E+00
  0.521361970901E+01  0.178897356987E+01 -0.102348971367E+01
  0.521361970901E+01  0.178897356987E+01  0.102348971367E+01
  0.547008323669E+01  0.499661636353E+01 -0.436294585466E+00
  0.547008323669E+01  0.499661636353E+01  0.436294585466E+00
  0.611307668686E+01  0.000000000000E+00 -0.114008128643E+01
  0.611307668686E+01  0.000000000000E+00  0.114008128643E+01
  0.657303857803E+01  0.499661636353E+01 -0.760521650314E+00
  0.657303857803E+01  0.499661636353E+01  0.760521650314E+00
  0.659744548798E+01  0.317279767990E+01 -0.102349019051E+01
  0.659744548798E+01  0.317279767990E+01  0.102349019051E+01
  0.687097454071E+01  0.757896304131E+00 -0.114008152485E+01
  0.687097454071E+01  0.757896304131E+00  0.114008152485E+01
  0.734362459183E+01  0.734362459183E+01  0.000000000000E+00
  0.781709194183E+01  0.734362459183E+01 -0.436294913292E+00
  0.781709194183E+01  0.734362459183E+01  0.436294913292E+00
  0.790205335617E+01  0.178897356987E+01 -0.114008200169E+01
  0.790205335617E+01  0.178897356987E+01  0.114008200169E+01
  0.842126560211E+01  0.499661636353E+01 -0.102349078655E+01
  0.842126560211E+01  0.499661636353E+01  0.102349078655E+01
  0.892004776001E+01  0.734362459183E+01 -0.760522186756E+00
  0.892004776001E+01  0.734362459183E+01  0.760522186756E+00
  0.928588008881E+01  0.317279767990E+01 -0.114008247852E+01
  0.928588008881E+01  0.317279767990E+01  0.114008247852E+01
  0.939508819580E+01  0.000000000000E+00 -0.980745851994E+00
  0.939508819580E+01  0.000000000000E+00  0.980745851994E+00
  0.101529865265E+02  0.757896304131E+00 -0.980746090412E+00
  0.101529865265E+02  0.757896304131E+00  0.980746090412E+00
  0.102728376389E+02  0.102728376389E+02  0.000000000000E+00
  0.107463054657E+02  0.102728376389E+02 -0.436295330524E+00
  0.107463054657E+02  0.102728376389E+02  0.436295330524E+00
  0.107682771683E+02  0.734362459183E+01 -0.102349150181E+01
  0.107682771683E+02  0.734362459183E+01  0.102349150181E+01
  0.111097030640E+02  0.499661636353E+01 -0.114008307457E+01
  0.111097030640E+02  0.499661636353E+01  0.114008307457E+01
  0.111840667725E+02  0.178897356987E+01 -0.980746388435E+00
  0.111840667725E+02  0.178897356987E+01  0.980746388435E+00
  0.118492631912E+02  0.102728376389E+02 -0.760522902012E+00
  0.118492631912E+02  0.102728376389E+02  0.760522902012E+00
  0.125678949356E+02  0.317279767990E+01 -0.980746865273E+00
  0.125678949356E+02  0.317279767990E+01  0.980746865273E+00
  0.126670312881E+02  0.000000000000E+00 -0.678052663803E+00
  0.126670312881E+02  0.000000000000E+00  0.678052663803E+00
  0.134249305725E+02  0.757896304131E+00 -0.678052842617E+00
  0.134249305725E+02  0.757896304131E+00  0.678052842617E+00
  0.134567155838E+02  0.734362459183E+01 -0.114008402824E+01
  0.134567155838E+02  0.734362459183E+01  0.114008402824E+01
  0.136974935532E+02  0.102728376389E+02 -0.102349245548E+01
  0.136974935532E+02  0.102728376389E+02  0.102349245548E+01
  0.137921218872E+02  0.137921218872E+02  0.000000000000E+00
  0.142655897141E+02  0.137921218872E+02 -0.436295837164E+00
  0.142655897141E+02  0.137921218872E+02  0.436295837164E+00
  0.143917188644E+02  0.499661636353E+01 -0.980747401714E+00
  0.143917188644E+02  0.499661636353E+01  0.980747401714E+00
  0.144560117722E+02  0.178897356987E+01 -0.678053081036E+00
  0.144560117722E+02  0.178897356987E+01  0.678053081036E+00
  0.153437566757E+02  0.000000000000E+00 -0.393031150103E+00
  0.153437566757E+02  0.000000000000E+00  0.393031150103E+00
  0.153685483932E+02  0.137921218872E+02 -0.760523796082E+00
  0.153685483932E+02  0.137921218872E+02  0.760523796082E+00
  0.158398418427E+02  0.317279767990E+01 -0.678053379059E+00
  0.158398418427E+02  0.317279767990E+01  0.678053379059E+00
  0.161016559601E+02  0.757896304131E+00 -0.393031239510E+00
  0.161016559601E+02  0.757896304131E+00  0.393031239510E+00
  0.163859348297E+02  0.102728376389E+02 -0.114008510113E+01
  0.163859348297E+02  0.102728376389E+02  0.114008510113E+01
  0.167387351990E+02  0.734362459183E+01 -0.980748176575E+00
  0.167387351990E+02  0.734362459183E+01  0.980748176575E+00
  0.171327381134E+02  0.178897356987E+01 -0.393031388521E+00
  0.171327381134E+02  0.178897356987E+01  0.393031388521E+00
  0.172004318237E+02  0.000000000000E+00 -0.192506864667E+00
  0.172004318237E+02  0.000000000000E+00  0.192506864667E+00
  0.172167816162E+02  0.137921218872E+02 -0.102349364758E+01
  0.172167816162E+02  0.137921218872E+02  0.102349364758E+01
  0.176636676788E+02  0.499661636353E+01 -0.678053736687E+00
  0.176636676788E+02  0.499661636353E+01  0.678053736687E+00
  0.178320064545E+02  0.178320064545E+02  0.000000000000E+00
  0.179583320618E+02  0.757896304131E+00 -0.192506924272E+00
  0.179583320618E+02  0.757896304131E+00  0.192506924272E+00
  0.183054752350E+02  0.178320064545E+02 -0.436296403408E+00
  0.183054752350E+02  0.178320064545E+02  0.436296403408E+00
  0.183450412750E+02  0.000000000000E+00 -0.698660761118E-01
  0.183450412750E+02  0.000000000000E+00  0.698660761118E-01
  0.185165691376E+02  0.317279767990E+01 -0.393031567335E+00
  0.185165691376E+02  0.317279767990E+01  0.393031567335E+00
  0.189894161224E+02  0.178897356987E+01 -0.192506983876E+00
  0.189894161224E+02  0.178897356987E+01  0.192506983876E+00
  0.190000000000E+02  0.000000000000E+00  0.000000000000E+00
  0.191029415131E+02  0.757896304131E+00 -0.698660910130E-01
  0.191029415131E+02  0.757896304131E+00  0.698660910130E-01
  0.194084339142E+02  0.178320064545E+02 -0.760524809361E+00
  0.194084339142E+02  0.178320064545E+02  0.760524809361E+00
  0.196679573059E+02  0.102728376389E+02 -0.980749070644E+00
  0.196679573059E+02  0.102728376389E+02  0.980749070644E+00
  0.197579002380E+02  0.757896304131E+00  0.000000000000E+00
  0.199052257538E+02  0.137921218872E+02 -0.114008641243E+01
  0.199052257538E+02  0.137921218872E+02  0.114008641243E+01
  0.200106849670E+02  0.734362459183E+01 -0.678054273129E+00
  0.200106849670E+02  0.734362459183E+01  0.678054273129E+00
  0.201340255737E+02  0.178897356987E+01 -0.698661133647E-01
  0.201340255737E+02  0.178897356987E+01  0.698661133647E-01
  0.203403968811E+02  0.499661636353E+01 -0.393031775951E+00
  0.203403968811E+02  0.499661636353E+01  0.393031775951E+00
  0.203732471466E+02  0.317279767990E+01 -0.192507073283E+00
  0.203732471466E+02  0.317279767990E+01  0.192507073283E+00
  0.207889842987E+02  0.178897356987E+01  0.000000000000E+00
  0.212566699982E+02  0.178320064545E+02 -0.102349495888E+01
  0.212566699982E+02  0.178320064545E+02  0.102349495888E+01
  0.215178565979E+02  0.317279767990E+01 -0.698661431670E-01
  0.215178565979E+02  0.317279767990E+01  0.698661431670E-01
  0.221728172302E+02  0.317279767990E+01  0.000000000000E+00
  0.221970767975E+02  0.499661636353E+01 -0.192507177591E+00
  0.221970767975E+02  0.499661636353E+01  0.192507177591E+00
  0.222339305878E+02  0.222339305878E+02  0.000000000000E+00
  0.226874179840E+02  0.734362459183E+01 -0.393032073975E+00
  0.226874179840E+02  0.734362459183E+01  0.393032073975E+00
  0.227074012756E+02  0.222339305878E+02 -0.436297029257E+00
  0.227074012756E+02  0.222339305878E+02  0.436297029257E+00
  0.229399108887E+02  0.102728376389E+02 -0.678054928780E+00
  0.229399108887E+02  0.102728376389E+02  0.678054928780E+00
  0.231872520447E+02  0.137921218872E+02 -0.980750203133E+00
  0.231872520447E+02  0.137921218872E+02  0.980750203133E+00
  0.233416862488E+02  0.499661636353E+01 -0.698661878705E-01
  0.233416862488E+02  0.499661636353E+01  0.698661878705E-01
  0.238103618622E+02  0.222339305878E+02 -0.760525882244E+00
  0.238103618622E+02  0.222339305878E+02  0.760525882244E+00
  0.239451179504E+02  0.178320064545E+02 -0.114008784294E+01
  0.239451179504E+02  0.178320064545E+02  0.114008784294E+01
  0.239966468811E+02  0.499661636353E+01  0.000000000000E+00
  0.245440979004E+02  0.734362459183E+01 -0.192507326603E+00
  0.245440979004E+02  0.734362459183E+01  0.192507326603E+00
  0.256166458130E+02  0.102728376389E+02 -0.393032461405E+00
  0.256166458130E+02  0.102728376389E+02  0.393032461405E+00
  0.256585998535E+02  0.222339305878E+02 -0.102349650860E+01
  0.256585998535E+02  0.222339305878E+02  0.102349650860E+01
  0.256887092590E+02  0.734362459183E+01 -0.698662400246E-01
  0.256887092590E+02  0.734362459183E+01  0.698662400246E-01
[...]
CELL_DATA                 904
SCALARS C_p_inc float 1
LOOKUP_TABLE default
  0.179969141317E+00
  0.164212907275E+00
  0.134005755124E+00
  0.121405436050E+00
  0.109274481426E+00
  0.103431014813E+00
  0.910130171802E-01
  0.867974401450E-01
  0.778832264060E-01
  0.757007222220E-01
  0.974798768041E-01
  0.894549546146E-01
  0.203137519635E+00
  0.171386082250E+00
  0.356135853871E+00
  0.316630356774E+00
  0.556365363168E+00
  0.527965068936E+00
  0.716102802587E+00
  0.672122123518E+00
 -0.538929054868E+00
  0.601366201726E-02
 -0.783592309402E+00
 -0.494003639928E+00
 -0.657171133627E+00
 -0.575765900042E+00
 -0.613666872338E+00
 -0.592083641770E+00
 -0.529926733355E+00
 -0.554080754159E+00
 -0.419553382921E+00
 -0.388396157536E+00
 -0.280958851011E+00
 -0.247856261569E+00
 -0.166020957302E+00
 -0.126119389593E+00
 -0.676295278870E-01
 -0.712775084775E-02
  0.563792109554E-01
  0.132609892472E+00
  0.172009465816E+00
  0.178844051997E+00
  0.133695543542E+00
  0.133839705090E+00
  0.114565079730E+00
  0.109256493192E+00
  0.942487792136E-01
  0.910350641707E-01
  0.776421479192E-01
  0.778320725955E-01
  0.896404202890E-01
  0.810520749393E-01
  0.171983355205E+00
  0.152442392275E+00
  0.309385652849E+00
  0.295895990604E+00
  0.485135710263E+00
  0.487999939113E+00
  0.556388724069E+00
  0.464962264631E+00
 -0.855674025916E+00
 -0.534800308494E+00
 -0.980399124536E+00
 -0.751988667993E+00
 -0.760909006698E+00
 -0.658643963383E+00
 -0.653454061162E+00
 -0.621311264432E+00
 -0.521641832095E+00
 -0.537947516105E+00
 -0.387929143194E+00
 -0.360658936351E+00
 -0.247241113005E+00
 -0.211099204652E+00
 -0.125918065435E+00
 -0.813427390264E-01
 -0.776204476324E-02
  0.292762600312E-01
  0.127824446821E+00
  0.139847522221E+00
  0.167947546502E+00
  0.171498624317E+00
  0.129460219120E+00
  0.133462952462E+00
  0.114579954016E+00
  0.114473551669E+00
  0.967792058859E-01
  0.942547472713E-01
  0.779774078074E-01
  0.776544276343E-01
  0.815155859818E-01
  0.767418099846E-01
  0.152105562282E+00
  0.143609467768E+00
  0.288396506686E+00
  0.286055487374E+00
  0.469722696343E+00
  0.475066130231E+00
  0.456809418747E+00
  0.363110393798E+00
 -0.113347277124E+01
 -0.853061169541E+00
 -0.115754520129E+01
 -0.955293346141E+00
 -0.854698953879E+00
 -0.755335293449E+00
 -0.690764489874E+00
 -0.660007214557E+00
 -0.517177401897E+00
 -0.532783234952E+00
 -0.360767230956E+00
 -0.333029359632E+00
 -0.210485078788E+00
 -0.173782760453E+00
 -0.812792827068E-01
 -0.488108311786E-01
  0.282484989060E-01
  0.446642642160E-01
  0.137501543061E+00
  0.142331040516E+00
  0.166318545259E+00
  0.167492538752E+00
  0.126398417927E+00
  0.129233994480E+00
  0.111922972502E+00
  0.114439845076E+00
  0.969020301523E-01
  0.967426980050E-01
  0.790657095880E-01
  0.780249931328E-01
  0.769652766386E-01
  0.764981574851E-01
  0.142951438362E+00
  0.142606359942E+00
  0.281602416735E+00
  0.286717168884E+00
  0.467785242090E+00
  0.473712718096E+00
  0.370875607990E+00
  0.278534885190E+00
 -0.138269889218E+01
 -0.112884456855E+01
 -0.131440937114E+01
 -0.114088214226E+01
 -0.936094186233E+00
 -0.852075486462E+00
 -0.723622030843E+00
 -0.699062531433E+00
 -0.512717571568E+00
 -0.529668885301E+00
 -0.333771809736E+00
 -0.307069213525E+00
 -0.173368936163E+00
 -0.145018200157E+00
 -0.488857324608E-01
 -0.307955402505E-01
  0.441678781709E-01
  0.527283393387E-01
  0.141527759276E+00
  0.144349187520E+00
  0.165525255268E+00
  0.165829152628E+00
  0.124562549373E+00
  0.126143053778E+00
  0.109586848106E+00
  0.111749025129E+00
  0.954798303314E-01
  0.968073388088E-01
  0.798139774280E-01
  0.790831385931E-01
  0.765562763086E-01
  0.791410203486E-01
  0.142151744992E+00
  0.147364373559E+00
  0.285002687918E+00
  0.294473632066E+00
  0.473125850252E+00
  0.478816948956E+00
  0.292923036063E+00
  0.204646493753E+00
 -0.160096732803E+01
 -0.137856218997E+01
 -0.144677234734E+01
 -0.130612644947E+01
 -0.100202844421E+01
 -0.937769804477E+00
 -0.748873430716E+00
 -0.733267582667E+00
 -0.508328164144E+00
 -0.524781291916E+00
 -0.308157992297E+00
 -0.287851460463E+00
 -0.144963883997E+00
 -0.128285580925E+00
 -0.308099550814E-01
 -0.211745388114E-01
  0.527427864491E-01
  0.577918462633E-01
  0.144519633196E+00
  0.146978480304E+00
  0.165104815666E+00
  0.164992798921E+00
  0.123514597861E+00
  0.124263782756E+00
  0.108119973356E+00
  0.109369735497E+00
  0.942249771196E-01
  0.953327119907E-01
  0.801280831166E-01
  0.797595190849E-01
  0.791234137799E-01
  0.826983321704E-01
  0.147162271452E+00
  0.154837079893E+00
  0.294423996527E+00
  0.305394915971E+00
  0.481683144629E+00
  0.486432464127E+00
  0.220959121550E+00
  0.141147859824E+00
 -0.178210562751E+01
 -0.159829568788E+01
 -0.155153152859E+01
 -0.144462315053E+01
 -0.105196650206E+01
 -0.100646670281E+01
 -0.767508672640E+00
 -0.758129989227E+00
 -0.506901501399E+00
 -0.517820908220E+00
 -0.289120770651E+00
 -0.277758494705E+00
 -0.128514580209E+00
 -0.120100732528E+00
 -0.211245989718E-01
 -0.159717770482E-01
  0.580946817228E-01
  0.613099032886E-01
  0.147649885343E+00
  0.149925953024E+00
  0.165127918340E+00
  0.164525804245E+00
  0.122912167094E+00
  0.123169405808E+00
  0.107218361874E+00
  0.107857929479E+00
  0.934826754939E-01
  0.940313362090E-01
  0.805261635043E-01
  0.800070900016E-01
  0.826282406617E-01
  0.859787752623E-01
  0.154737897034E+00
  0.162181645531E+00
  0.305949821490E+00
  0.316021371250E+00
  0.490177630239E+00
  0.493600614436E+00
  0.155720650808E+00
  0.887631583083E-01
 -0.192386052223E+01
 -0.178071984727E+01
 -0.163024992165E+01
 -0.155230659122E+01
 -0.108891542509E+01
 -0.105663212627E+01
 -0.782612756393E+00
 -0.774467639278E+00
 -0.509212342284E+00
 -0.513042465361E+00
 -0.279113301462E+00
 -0.274217000889E+00
 -0.120490501537E+00
 -0.116490309355E+00
 -0.159178441466E-01
 -0.130103707419E-01
  0.617207782884E-01
  0.639159423508E-01
  0.150807512939E+00
  0.152628092228E+00
  0.164710136962E+00
  0.164466760267E+00
  0.122045352299E+00
  0.122507376536E+00
  0.106184706379E+00
  0.106908120963E+00
  0.926922679638E-01
  0.932481835941E-01
  0.807515953129E-01
  0.803585700973E-01
  0.858659561080E-01
  0.884672501827E-01
  0.162057991257E+00
  0.167908016314E+00
  0.316497931354E+00
  0.324329149746E+00
  0.496638894022E+00
  0.498786488017E+00
  0.995383574803E-01
  0.476591364912E-01
 -0.202943074276E+01
 -0.192311316991E+01
 -0.168765623058E+01
 -0.163141585702E+01
 -0.111625220917E+01
 -0.109224154229E+01
 -0.795099899151E+00
 -0.786970488184E+00
 -0.513019255066E+00
 -0.512910999474E+00
 -0.275557006338E+00
 -0.273573392326E+00
 -0.116967278560E+00
 -0.114591588470E+00
 -0.129909052450E-01
 -0.106595895428E-01
  0.643473736877E-01
  0.665832528524E-01
  0.153611242695E+00
  0.155904208497E+00
  0.163752061868E+00
  0.163923978207E+00
  0.120292531771E+00
  0.121551686560E+00
  0.104165059344E+00
  0.105809227377E+00
  0.909112037918E-01
  0.924139167325E-01
  0.799185372910E-01
  0.805509439070E-01
  0.883083773986E-01
  0.894417194882E-01
  0.167698919596E+00
  0.171315470007E+00
  0.324479135071E+00
  0.329664218951E+00
  0.500635463979E+00
  0.501810597626E+00
  0.545543548678E-01
  0.178900023680E-01
 -0.210290676078E+01
 -0.202891475230E+01
 -0.172711378081E+01
 -0.168843028379E+01
 -0.113506973326E+01
 -0.111837747339E+01
 -0.803851500292E+00
 -0.797910668608E+00
 -0.515700147512E+00
 -0.515592650647E+00
 -0.274854272749E+00
 -0.272884923379E+00
 -0.115129478231E+00
 -0.112237753415E+00
 -0.106910007113E-01
 -0.747771977057E-02
  0.670081367773E-01
  0.701981830010E-01
  0.156955523902E+00
  0.159947869938E+00
  0.161371930832E+00
  0.162696512600E+00
  0.116688997351E+00
  0.119625259517E+00
  0.100074017033E+00
  0.103671021886E+00
  0.869675614741E-01
  0.905636105964E-01
  0.768605887546E-01
  0.796828185883E-01
  0.891964126694E-01
  0.878996723990E-01
  0.170944323047E+00
  0.171720574963E+00
  0.329387050037E+00
  0.331760581425E+00
  0.502494696212E+00
  0.503000014285E+00
  0.217073261609E-01
  0.682379744298E-04
 -0.214600836281E+01
 -0.210257193252E+01
 -0.174948706462E+01
 -0.172782553507E+01
 -0.114483811323E+01
 -0.113683769258E+01
 -0.807198460991E+00
 -0.806294996694E+00
 -0.514963219393E+00
 -0.518158833764E+00
 -0.274129538047E+00
 -0.269798999974E+00
 -0.112857703335E+00
 -0.107456591837E+00
 -0.757770189230E-02
 -0.179013206991E-02
  0.706351583737E-01
  0.762672379982E-01
  0.161170990194E+00
  0.166251774219E+00
  0.157096579691E+00
  0.159782343528E+00
  0.110310940924E+00
  0.115672460837E+00
  0.927052056904E-01
  0.993407455987E-01
  0.794894376432E-01
  0.864832193474E-01
  0.701970621750E-01
  0.765640195858E-01
  0.874787090014E-01
  0.826274058564E-01
  0.171051928123E+00
  0.168257530044E+00
  0.330891469479E+00
  0.330220283992E+00
  0.502470748096E+00
  0.502533247792E+00
  0.132076556432E-02
 -0.499408524383E-02
 -0.215859528585E+01
 -0.214593436006E+01
 -0.175424752024E+01
 -0.175066535416E+01
 -0.114440062922E+01
 -0.114703728647E+01
 -0.803368274903E+00
 -0.810211035267E+00
 -0.508645378933E+00
 -0.518125424213E+00
 -0.271085779570E+00
 -0.262086595319E+00
 -0.108238351924E+00
 -0.980720947849E-01
 -0.200846963649E-02
  0.847207209379E-02
  0.767399211017E-01
  0.867033714512E-01
  0.167810487594E+00
  0.176504456427E+00
  0.150785892562E+00
  0.154478406035E+00
  0.100642157948E+00
  0.108602709164E+00
  0.811516862159E-01
  0.914878707357E-01
  0.671799388808E-01
  0.787231581501E-01
  0.584004230471E-01
  0.697759204478E-01
  0.818650002499E-01
  0.721828418087E-01
  0.167068079171E+00
  0.159834049642E+00
  0.328455840727E+00
  0.324426554554E+00
  0.500478827328E+00
  0.500267556587E+00
 -0.640579339131E-02
  0.300891946851E-02
 -0.214044025458E+01
 -0.215887015005E+01
 -0.174070902478E+01
 -0.175635474743E+01
 -0.113257328013E+01
 -0.114770563976E+01
 -0.790586167539E+00
 -0.807827464937E+00
 -0.494475800392E+00
 -0.513434097452E+00
 -0.263531735660E+00
 -0.247339982908E+00
 -0.991769053795E-01
 -0.816028719287E-01
  0.800081736707E-02
  0.257033909209E-01
  0.871788107632E-01
  0.103813887189E+00
  0.178593512679E+00
  0.193064202782E+00
  0.142789693349E+00
  0.146333727597E+00
  0.880630153167E-01
  0.976440849583E-01
  0.656707398712E-01
  0.789932773160E-01
  0.497746788054E-01
  0.658348649768E-01
  0.403379739577E-01
  0.577151248182E-01
  0.707619125018E-01
  0.549805959493E-01
  0.157748911671E+00
  0.145060157890E+00
  0.321255461890E+00
  0.313504310267E+00
  0.496046655278E+00
  0.495708027694E+00
 -0.178533301003E-02
  0.233556415114E-01
 -0.209268263245E+01
 -0.214113232918E+01
 -0.170888505967E+01
 -0.174415847377E+01
 -0.110850584111E+01
 -0.113767270725E+01
 -0.767116402075E+00
 -0.797562798670E+00
 -0.469948448688E+00
 -0.502238666783E+00
 -0.249084222723E+00
 -0.223060800613E+00
 -0.833352678323E-01
 -0.558736493288E-01
  0.246352235617E-01
  0.516306785225E-01
  0.104020231601E+00
  0.129231904680E+00
  0.195675664732E+00
  0.217932504550E+00
  0.131604662675E+00
  0.135244131134E+00
  0.722077131954E-01
  0.828294077041E-01
  0.471608905186E-01
  0.618192163590E-01
  0.289373790899E-01
  0.472865104224E-01
  0.168420511184E-01
  0.390697109977E-01
  0.522652185842E-01
  0.300457822738E-01
  0.141403115293E+00
  0.122166484432E+00
  0.308057745843E+00
  0.296151597378E+00
  0.488222564634E+00
  0.487945287886E+00
  0.137781996491E-01
  0.541482776890E-01
 -0.201839195460E+01
 -0.209382795395E+01
 -0.165980708006E+01
 -0.171407457761E+01
 -0.107174190377E+01
 -0.111623644133E+01
 -0.731170315095E+00
 -0.778187646762E+00
 -0.432401320996E+00
 -0.482942712531E+00
 -0.225296817815E+00
 -0.187837724855E+00
 -0.588345619739E-01
 -0.211236895214E-01
  0.491219838495E-01
  0.852274701708E-01
  0.128217482740E+00
  0.162294690229E+00
  0.220274668527E+00
  0.251702822735E+00
  0.112291507574E+00
  0.118759014808E+00
  0.490237412931E-01
  0.632117349855E-01
  0.239476913390E-01
  0.404990903379E-01
  0.589085940236E-02
  0.244074913266E-01
 -0.860729840634E-02
  0.142969249376E-01
  0.248392872309E-01
 -0.513178563358E-03
  0.115618283344E+00
  0.893842717408E-01
  0.286820549526E+00
  0.270179642268E+00
  0.475295014836E+00
  0.475443696614E+00
  0.374258118429E-01
  0.926489615463E-01
 -0.192199234653E+01
 -0.201998011826E+01
 -0.159509106397E+01
 -0.166716752213E+01
 -0.102164637064E+01
 -0.108335302361E+01
 -0.680325546266E+00
 -0.749124221000E+00
 -0.380216278173E+00
 -0.454661903755E+00
 -0.190988262227E+00
 -0.144794650699E+00
 -0.264760531188E-01
  0.176228102896E-01
  0.794465543708E-01
  0.121980342686E+00
  0.157695336002E+00
  0.199912407091E+00
  0.251261057711E+00
  0.292536556492E+00
  0.697650487856E-01
  0.890325542922E-01
  0.782314639971E-02
  0.332935967994E-01
 -0.103904320833E-01
  0.126731178786E-01
 -0.222671675942E-01
 -0.194438814010E-02
 -0.344410890597E-01
 -0.136311356658E-01
 -0.100459245359E-01
 -0.304712677162E-01
  0.774992197934E-01
  0.479020420413E-01
  0.253603774942E+00
  0.231745476934E+00
  0.453941860705E+00
  0.455371072572E+00
  0.646318490105E-01
  0.135986942948E+00
 -0.180759826929E+01
 -0.192395337145E+01
 -0.151545598127E+01
 -0.160527367079E+01
 -0.955490011506E+00
 -0.103968027812E+01
 -0.611132985624E+00
 -0.710978460668E+00
 -0.318376343838E+00
 -0.418222933603E+00
 -0.149800239952E+00
 -0.103558723723E+00
  0.786839578370E-02
  0.522705582102E-01
  0.109487256393E+00
  0.156418080732E+00
  0.186869712398E+00
  0.240514233399E+00
  0.283512785287E+00
  0.344350612827E+00
 -0.274774912138E-01
  0.240267879901E-01
 -0.722967578493E-01
 -0.208831013111E-01
 -0.676116609635E-01
 -0.297161839128E-01
 -0.628221590979E-01
 -0.355212569014E-01
 -0.648831252741E-01
 -0.437948145685E-01
 -0.469431119222E-01
 -0.576766454938E-01
  0.272142011983E-01
  0.601493664897E-02
  0.200726893391E+00
  0.176336054635E+00
  0.416382291597E+00
  0.421463859989E+00
  0.880991419994E-01
  0.181946932562E+00
 -0.167620456306E+01
 -0.180977701948E+01
 -0.141697260645E+01
 -0.153010710956E+01
 -0.863878117464E+00
 -0.987029469237E+00
 -0.527449967342E+00
 -0.665256292904E+00
 -0.261736723869E+00
 -0.380511634683E+00
 -0.112097445169E+00
 -0.756236839141E-01
  0.344919301966E-01
  0.730872981469E-01
  0.130861956507E+00
  0.180909446930E+00
  0.209260675253E+00
  0.282975026462E+00
  0.313352289655E+00
  0.416602697351E+00
 -0.281948750291E+00
 -0.131786153949E+00
 -0.243281851382E+00
 -0.130570363905E+00
 -0.173862259210E+00
 -0.104296056011E+00
 -0.131826643885E+00
 -0.870751333715E-01
 -0.111215282582E+00
 -0.825082656588E-01
 -0.863311878725E-01
 -0.891395358690E-01
 -0.283104788632E-01
 -0.337086771984E-01
  0.119110133807E+00
  0.107278176220E+00
  0.339712103792E+00
  0.357023359839E+00
  0.899875976762E-01
  0.229747941078E+00
 -0.151850168936E+01
 -0.167827408731E+01
 -0.127729427066E+01
 -0.144298705791E+01
 -0.734880908527E+00
 -0.928304825389E+00
 -0.455731867120E+00
 -0.619465661563E+00
 -0.223822790707E+00
 -0.362300328526E+00
 -0.923128181466E-01
 -0.766335300012E-01
  0.379448180178E-01
  0.606459194128E-01
  0.126670728847E+00
  0.172602567896E+00
  0.209038903210E+00
  0.312265703924E+00
  0.323756120174E+00
  0.530389390148E+00
 -0.100786217748E+01
 -0.589023495415E+00
 -0.668760672122E+00
 -0.432863280944E+00
 -0.459671011700E+00
 -0.292732111945E+00
 -0.313888151301E+00
 -0.202220223888E+00
 -0.221124511618E+00
 -0.158157824158E+00
 -0.156323787074E+00
 -0.149656005123E+00
 -0.101128305225E+00
 -0.100261977350E+00
 -0.516801393388E-02
  0.160439999627E-02
  0.151166729562E+00
  0.207530502078E+00
 -0.484058088028E-01
  0.260618132790E+00
 -0.122803731698E+01
 -0.152008072299E+01
 -0.980045768954E+00
 -0.136490965961E+01
 -0.622199176084E+00
 -0.880452028848E+00
 -0.435802980243E+00
 -0.628386273012E+00
 -0.229369293111E+00
 -0.428492778007E+00
 -0.138843430179E+00
 -0.178422794993E+00
 -0.550493539334E-01
 -0.937272451557E-01
 -0.171959631459E-01
 -0.266422579860E-01
  0.435464466498E-01
  0.119072687281E+00
  0.196282604039E+00
  0.502860496902E+00
 -0.336945485471E+01
 -0.344307796892E+01
 -0.176308723371E+01
 -0.176869262227E+01
 -0.938938232939E+00
 -0.937723913958E+00
 -0.528156496435E+00
 -0.533241141513E+00
 -0.347126405025E+00
 -0.340899094599E+00
 -0.290256201376E+00
 -0.255795044666E+00
 -0.263307731518E+00
 -0.213568848732E+00
 -0.244314651676E+00
 -0.187956132560E+00
 -0.186725180470E+00
 -0.340490454890E+00
 -0.123036512609E+01
 -0.887012560721E+00
 -0.117538396364E+01
 -0.695620311779E+00
 -0.874047238109E+00
 -0.556783258155E+00
 -0.738889849406E+00
 -0.377636585504E+00
 -0.673719198422E+00
 -0.353677890006E+00
 -0.625836150557E+00
 -0.437914139980E+00
 -0.965181872256E+00
 -0.758567221955E+00
 -0.178915104614E+01
 -0.138927730207E+01
 -0.346299753426E+01
 -0.221677885895E+01
 -0.596444115996E+01
 -0.600820458946E+01
 -0.300200071031E+01
 -0.300301498702E+01
 -0.159148286386E+01
 -0.159238350548E+01
 -0.901229043380E+00
 -0.911307099385E+00
 -0.588344641969E+00
 -0.589136362139E+00
 -0.479806112264E+00
 -0.457688005152E+00
 -0.457189474393E+00
 -0.425399228797E+00
 -0.475086152555E+00
 -0.435126945864E+00
 -0.502096492746E+00
 -0.496330136195E+00
 -0.117868624597E+01
 -0.936264909081E+00
 -0.111650951828E+01
 -0.813845949197E+00
 -0.922381478305E+00
 -0.708572272672E+00
 -0.855984730195E+00
 -0.563150238582E+00
 -0.904657360398E+00
 -0.633460727694E+00
 -0.103084129801E+01
 -0.887512391082E+00
 -0.168549984665E+01
 -0.153741374817E+01
 -0.313422895216E+01
 -0.281987530956E+01
 -0.613156234024E+01
 -0.496123847559E+01
 -0.836118706973E+01
 -0.832289268568E+01
 -0.411236366353E+01
 -0.410680172141E+01
 -0.217375540430E+01
 -0.218626825435E+01
 -0.123874891305E+01
 -0.126472856445E+01
 -0.810800972188E+00
 -0.823835280583E+00
 -0.663186480879E+00
 -0.651001077491E+00
 -0.635660979011E+00
 -0.612337217399E+00
 -0.664955207872E+00
 -0.633520447645E+00
 -0.737055617101E+00
 -0.629694875892E+00
 -0.106451956525E+01
 -0.975956119929E+00
 -0.102918451566E+01
 -0.880796483336E+00
 -0.917391172894E+00
 -0.802543699267E+00
 -0.912297715582E+00
 -0.709844643612E+00
 -0.105221778355E+01
 -0.861734405535E+00
 -0.134010244886E+01
 -0.126108414181E+01
 -0.224954333843E+01
 -0.218421182202E+01
 -0.420833394287E+01
 -0.404894499992E+01
 -0.840608669801E+01
 -0.763823976069E+01
 -0.972929482887E+01
 -0.979184072452E+01
 -0.477049713220E+01
 -0.483323210197E+01
 -0.251964421089E+01
 -0.258830332179E+01
 -0.143947487879E+01
 -0.151446777284E+01
 -0.945252960566E+00
 -0.990806386694E+00
 -0.793610709317E+00
 -0.803328037421E+00
 -0.771484937763E+00
 -0.764104068397E+00
 -0.803776426456E+00
 -0.798681945899E+00
 -0.891701502870E+00
 -0.771690493574E+00
 -0.920853414327E+00
 -0.981978756809E+00
 -0.918646658370E+00
 -0.883874981508E+00
 -0.861933712457E+00
 -0.824322077857E+00
 -0.898529957232E+00
 -0.787829703214E+00
 -0.109626844590E+01
 -0.992508479511E+00
 -0.150137303397E+01
 -0.148175366588E+01
 -0.255935729096E+01
 -0.256183037624E+01
 -0.480768537377E+01
 -0.478493898956E+01
 -0.974258298051E+01
 -0.945842988925E+01
SCALARS sigma float 1
LOOKUP_TABLE default
  0.764838368926E-01
  0.764838592348E-01
  0.760155203808E-01
  0.760155585016E-01
  0.751704823620E-01
  0.751704441824E-01
  0.766726478008E-01
  0.766726798685E-01
  0.905016300709E-01
  0.905016217085E-01
  0.134184471563E+00
  0.134184478771E+00
  0.224455649083E+00
  0.224455641948E+00
  0.315805070269E+00
  0.315805059740E+00
  0.435168544153E+00
  0.435168530670E+00
  0.662525318170E+00
  0.662525317716E+00
  0.440644820527E+00
  0.440644840120E+00
  0.986213090143E-01
  0.986213298981E-01
 -0.415043575589E-01
 -0.415043440726E-01
 -0.139331847425E+00
 -0.139331839619E+00
 -0.229430561789E+00
 -0.229430568213E+00
 -0.270889594557E+00
 -0.270889585528E+00
 -0.283734847811E+00
 -0.283734881798E+00
 -0.285122219624E+00
 -0.285122180770E+00
 -0.284341916018E+00
 -0.284341953417E+00
 -0.283909319398E+00
 -0.283909340768E+00
  0.764838019932E-01
  0.764838355287E-01