# vtk DataFile Version 3.0
MachLine results file. Generated by MachLine, USU AeroLab (c) 2022.
ASCII
DATASET POLYDATA
POINTS                 144 float
  0.000000000000E+00  0.000000000000E+00  0.000000000000E+00
  0.113538098335E+01  0.000000000000E+00 -0.658124566078E+00
  0.113538098335E+01  0.000000000000E+00  0.658124566078E+00
  0.192375373840E+01  0.192375373840E+01  0.000000000000E+00
  0.305913543701E+01  0.192375373840E+01 -0.658124983311E+00
  0.305913543701E+01  0.192375373840E+01  0.658124983311E+00
  0.423028087616E+01  0.000000000000E+00 -0.108747220039E+01
  0.423028087616E+01  0.000000000000E+00  0.108747220039E+01
  0.547033166885E+01  0.547033166885E+01  0.000000000000E+00
  0.615403699875E+01  0.192375373840E+01 -0.108747279644E+01
  0.615403699875E+01  0.192375373840E+01  0.108747279644E+01
  0.660571479797E+01  0.547033166885E+01 -0.658125698566E+00
  0.660571479797E+01  0.547033166885E+01  0.658125698566E+00
  0.939508819580E+01  0.000000000000E+00 -0.980745851994E+00
  0.939508819580E+01  0.000000000000E+00  0.980745851994E+00
  0.970061969757E+01  0.547033166885E+01 -0.108747410774E+01
  0.970061969757E+01  0.547033166885E+01  0.108747410774E+01
  0.113188476562E+02  0.192375373840E+01 -0.980746448040E+00
  0.113188476562E+02  0.192375373840E+01  0.980746448040E+00
  0.113820018768E+02  0.113820018768E+02  0.000000000000E+00
  0.125173873901E+02  0.113820018768E+02 -0.658127009869E+00
  0.125173873901E+02  0.113820018768E+02  0.658127009869E+00
  0.145402030945E+02  0.000000000000E+00 -0.479613035917E+00
  0.145402030945E+02  0.000000000000E+00  0.479613035917E+00
  0.148654365540E+02  0.547033166885E+01 -0.980747580528E+00
  0.148654365540E+02  0.547033166885E+01  0.980747580528E+00
  0.156122989655E+02  0.113820018768E+02 -0.108747613430E+01
  0.156122989655E+02  0.113820018768E+02  0.108747613430E+01
  0.164639663696E+02  0.192375373840E+01 -0.479613333941E+00
  0.164639663696E+02  0.192375373840E+01  0.479613333941E+00
  0.176505107880E+02  0.000000000000E+00 -0.144198849797E+00
  0.176505107880E+02  0.000000000000E+00  0.144198849797E+00
  0.190000000000E+02  0.000000000000E+00  0.000000000000E+00
  0.195742740631E+02  0.192375373840E+01 -0.144198939204E+00
  0.195742740631E+02  0.192375373840E+01  0.144198939204E+00
  0.197561950684E+02  0.197561950684E+02  0.000000000000E+00
  0.200105609894E+02  0.547033166885E+01 -0.479613870382E+00
  0.200105609894E+02  0.547033166885E+01  0.479613870382E+00
  0.207771244049E+02  0.113820018768E+02 -0.980749428272E+00
  0.207771244049E+02  0.113820018768E+02  0.980749428272E+00
  0.208915824890E+02  0.197561950684E+02 -0.658128738403E+00
  0.208915824890E+02  0.197561950684E+02  0.658128738403E+00
  0.209237651825E+02  0.192375373840E+01  0.000000000000E+00
  0.231208724976E+02  0.547033166885E+01 -0.144199103117E+00
  0.231208724976E+02  0.547033166885E+01  0.144199103117E+00
  0.239865016937E+02  0.197561950684E+02 -0.108747911453E+01
  0.239865016937E+02  0.197561950684E+02  0.108747911453E+01
  0.244703655243E+02  0.547033166885E+01  0.000000000000E+00
  0.259222583771E+02  0.113820018768E+02 -0.479614794254E+00
  0.259222583771E+02  0.113820018768E+02  0.479614794254E+00
  0.290325775146E+02  0.113820018768E+02 -0.144199386239E+00
  0.290325775146E+02  0.113820018768E+02  0.144199386239E+00
  0.291513423920E+02  0.197561950684E+02 -0.980752110481E+00
  0.291513423920E+02  0.197561950684E+02  0.980752110481E+00
  0.292438049316E+02  0.292438049316E+02  0.000000000000E+00
  0.303791980743E+02  0.292438049316E+02 -0.658130764961E+00
  0.303791980743E+02  0.292438049316E+02  0.658130764961E+00
  0.303820724487E+02  0.113820018768E+02  0.000000000000E+00
  0.334741249084E+02  0.292438049316E+02 -0.108748245239E+01
  0.334741249084E+02  0.292438049316E+02  0.108748245239E+01
  0.342964897156E+02  0.197561950684E+02 -0.479616105556E+00
  0.342964897156E+02  0.197561950684E+02  0.479616105556E+00
  0.374068183899E+02  0.197561950684E+02 -0.144199773669E+00
  0.374068183899E+02  0.197561950684E+02  0.144199773669E+00
  0.376179962158E+02  0.376179962158E+02  0.000000000000E+00
  0.386389808655E+02  0.292438049316E+02 -0.980755090714E+00
  0.386389808655E+02  0.292438049316E+02  0.980755090714E+00
  0.387533912659E+02  0.376179962158E+02 -0.658132553101E+00
  0.387533912659E+02  0.376179962158E+02  0.658132553101E+00
  0.387563171387E+02  0.197561950684E+02  0.000000000000E+00
  0.418483314514E+02  0.376179962158E+02 -0.108748543262E+01
  0.418483314514E+02  0.376179962158E+02  0.108748543262E+01
  0.435296669006E+02  0.435296669006E+02  0.000000000000E+00
  0.437841453552E+02  0.292438049316E+02 -0.479617565870E+00
  0.437841453552E+02  0.292438049316E+02  0.479617565870E+00
  0.446650657654E+02  0.435296669006E+02 -0.658133804798E+00
  0.446650657654E+02  0.435296669006E+02  0.658133804798E+00
  0.468944816589E+02  0.292438049316E+02 -0.144200220704E+00
  0.468944816589E+02  0.292438049316E+02  0.144200220704E+00
  0.470131988525E+02  0.376179962158E+02 -0.980757772923E+00
  0.470131988525E+02  0.376179962158E+02  0.980757772923E+00
  0.470762481689E+02  0.470762481689E+02  0.000000000000E+00
  0.477600097656E+02  0.435296669006E+02 -0.108748745918E+01
  0.477600097656E+02  0.435296669006E+02  0.108748745918E+01
  0.482116432190E+02  0.470762481689E+02 -0.658134579659E+00
  0.482116432190E+02  0.470762481689E+02  0.658134579659E+00
  0.482439842224E+02  0.292438049316E+02  0.000000000000E+00
  0.490000000000E+02  0.490000000000E+02  0.000000000000E+00
  0.501353988647E+02  0.490000000000E+02 -0.658134996891E+00
  0.501353988647E+02  0.490000000000E+02  0.658134996891E+00
  0.506007728577E+02  0.494653701782E+02 -0.465371757746E+00
  0.506007728577E+02  0.494653701782E+02  0.465371757746E+00
  0.507935333252E+02  0.496581344604E+02 -0.771266485397E-15
  0.513065910339E+02  0.470762481689E+02 -0.108748877048E+01
  0.513065910339E+02  0.470762481689E+02  0.108748877048E+01
  0.521583786011E+02  0.376179962158E+02 -0.479618877172E+00
  0.521583786011E+02  0.376179962158E+02  0.479618877172E+00
  0.529248886108E+02  0.435296669006E+02 -0.980759620667E+00
  0.529248886108E+02  0.435296669006E+02  0.980759620667E+00
  0.532303466797E+02  0.490000000000E+02 -0.108748936653E+01
  0.532303466797E+02  0.490000000000E+02  0.108748936653E+01
  0.539993209839E+02  0.497689704895E+02 -0.768971264362E+00
  0.539993209839E+02  0.497689704895E+02  0.768971264362E+00
  0.543178405762E+02  0.500874900818E+02 -0.157378642191E-15
  0.552687225342E+02  0.376179962158E+02 -0.144200608134E+00
  0.552687225342E+02  0.376179962158E+02  0.144200608134E+00
  0.564714775085E+02  0.470762481689E+02 -0.980760753155E+00
  0.564714775085E+02  0.470762481689E+02  0.980760753155E+00
  0.566182289124E+02  0.376179962158E+02  0.000000000000E+00
  0.580700759888E+02  0.435296669006E+02 -0.479619771242E+00
  0.580700759888E+02  0.435296669006E+02  0.479619771242E+00
  0.583952369690E+02  0.490000000000E+02 -0.980761349201E+00
  0.583952369690E+02  0.490000000000E+02  0.980761349201E+00
  0.590887413025E+02  0.496935043335E+02 -0.693503141403E+00
  0.590887413025E+02  0.496935043335E+02  0.693503141403E+00
  0.593759994507E+02  0.499807624817E+02  0.000000000000E+00
  0.611804275513E+02  0.435296669006E+02 -0.144200876355E+00
  0.611804275513E+02  0.435296669006E+02  0.144200876355E+00
  0.616166725159E+02  0.470762481689E+02 -0.479620337486E+00
  0.616166725159E+02  0.470762481689E+02  0.479620337486E+00
  0.625299339294E+02  0.435296669006E+02  0.000000000000E+00
  0.635404319763E+02  0.490000000000E+02 -0.479620635509E+00
  0.635404319763E+02  0.490000000000E+02  0.479620635509E+00
  0.638795776367E+02  0.493391418457E+02 -0.339143037796E+00
  0.638795776367E+02  0.493391418457E+02  0.339143037796E+00
  0.640200576782E+02  0.494796218872E+02  0.296956834055E-15
  0.647270278931E+02  0.470762481689E+02 -0.144201040268E+00
  0.647270278931E+02  0.470762481689E+02  0.144201040268E+00
  0.660765380859E+02  0.470762481689E+02  0.000000000000E+00
  0.666507873535E+02  0.490000000000E+02 -0.144201144576E+00
  0.666507873535E+02  0.490000000000E+02  0.144201144576E+00
  0.667527542114E+02  0.491019668579E+02 -0.101965606213E+00
  0.667527542114E+02  0.491019668579E+02  0.101965606213E+00
  0.667949905396E+02  0.491441993713E+02 -0.260488604752E-16
  0.680002975464E+02  0.490000000000E+02  0.000000000000E+00
  0.190000000000E+02  0.000000000000E+00  0.000000000000E+00
  0.209237651825E+02  0.192375373840E+01  0.000000000000E+00
  0.244703655243E+02  0.547033166885E+01  0.000000000000E+00
  0.303820724487E+02  0.113820018768E+02  0.000000000000E+00
  0.387563171387E+02  0.197561950684E+02  0.000000000000E+00
  0.482439842224E+02  0.292438049316E+02  0.000000000000E+00
  0.566182289124E+02  0.376179962158E+02  0.000000000000E+00
  0.625299339294E+02  0.435296669006E+02  0.000000000000E+00
  0.660765380859E+02  0.470762481689E+02  0.000000000000E+00
POLYGONS                 256                1024
3                  32                  33                  42
3                  32                  30                  33
3                  30                  28                  33
3                  30                  22                  28
3                  22                  17                  28
3                  22                  13                  17
3                  13                   6                  17
3                  17                   6                   9
3                   6                   1                   9
3                   9                   1                   4
3                   1                   0                   4
3                   4                   0                   3
3                   0                   5                   3
3                   0                   2                   5
3                   2                  10                   5
3                   2                   7                  10
[...]
CELL_DATA                 256
SCALARS C_p_inc float 1
LOOKUP_TABLE default
  0.148598267267E+00
  0.136524607060E+00
  0.103233659268E+00
  0.913660234788E-01
  0.672870756006E-01
  0.593805660405E-01
  0.116951252568E+00
  0.922476470727E-01
  0.322788462651E+00
  0.269073048751E+00
  0.627399488593E+00
  0.614628050788E+00
 -0.776505749179E+00
 -0.861784096923E-01
 -0.763017738307E+00
 -0.549192465135E+00
 -0.516789295132E+00
 -0.533335863987E+00
 -0.366628486174E+00
 -0.299642198458E+00
 -0.163947625192E+00
 -0.783482274904E-01
  0.114270112311E-01
  0.103835051510E+00
  0.140691097703E+00
  0.147438196928E+00
  0.100002420340E+00
  0.103064348532E+00
  0.700475325108E-01
  0.673842585597E-01
  0.928841231071E-01
  0.876136431898E-01
  0.258251739187E+00
  0.266918193320E+00
  0.539063547355E+00
  0.492995764384E+00
 -0.114296355056E+01
 -0.731576884344E+00
 -0.931437104468E+00
 -0.760953382280E+00
 -0.532407170741E+00
 -0.538719187435E+00
 -0.300538010082E+00
 -0.240791803092E+00
 -0.780502142211E-01
 -0.278517587990E-01
  0.100467558139E+00
  0.117667207054E+00
  0.137644718614E+00
  0.139909427054E+00
  0.950839731808E-01
  0.996597634900E-01
  0.689610013117E-01
  0.700429454644E-01
  0.875120486395E-01
  0.966685744140E-01
  0.264219419580E+00
  0.287290063275E+00
  0.500052376723E+00
  0.452666821657E+00
 -0.140248027984E+01
 -0.113275039441E+01
 -0.103322252846E+01
 -0.937531944780E+00
 -0.539199138456E+00
 -0.552077222346E+00
 -0.242686817101E+00
 -0.214636623404E+00
 -0.278436068555E-01
 -0.118350220037E-01
  0.117969516529E+00
  0.125601156648E+00
  0.133586959788E+00
  0.136629647866E+00
  0.899036210913E-01
  0.945850462185E-01
  0.661684692328E-01
  0.687523918912E-01
  0.963870303262E-01
  0.101550542484E+00
  0.287843087321E+00
  0.304265824386E+00
  0.466252272589E+00
  0.433438508748E+00
 -0.154068736531E+01
 -0.140188215820E+01
 -0.108414700003E+01
 -0.104176759402E+01
 -0.548543771964E+00
 -0.550168867162E+00
 -0.216640874562E+00
 -0.207676023808E+00
 -0.118170316204E-01
 -0.274122327771E-02
  0.127082203961E+00
  0.134934020196E+00
  0.120883592014E+00
  0.131876603740E+00
  0.748809227305E-01
  0.890633756068E-01
  0.541535464553E-01
  0.657927537835E-01
  0.100949422378E+00
  0.948634724581E-01
  0.303680143388E+00
  0.305423640195E+00
  0.438555464850E+00
  0.429168408223E+00
 -0.157699056264E+01
 -0.154137721083E+01
 -0.109194359798E+01
 -0.108943730502E+01
 -0.541127928098E+00
 -0.554777027783E+00
 -0.209776104881E+00
 -0.192659100060E+00
 -0.293818391336E-02
  0.173330187217E-01
  0.136921202790E+00
  0.155578695517E+00
  0.938539338246E-01
  0.116959752269E+00
  0.407557113672E-01
  0.729702762010E-01
  0.218092718712E-01
  0.534175162057E-01
  0.932966971548E-01
  0.673759998823E-01
  0.302270174565E+00
  0.287063122401E+00
  0.425922865758E+00
  0.441639372444E+00
 -0.151431506687E+01
 -0.157874112033E+01
 -0.104876735646E+01
 -0.109908270776E+01
 -0.500679299063E+00
 -0.550263098342E+00
 -0.195316203112E+00
 -0.149275313824E+00
  0.165370978751E-01
  0.670856917733E-01
  0.158544900776E+00
  0.204204890178E+00
  0.494232595995E-01
  0.837591703300E-01
 -0.780401841030E-02
  0.355354973392E-01
 -0.269413774647E-01
  0.196913468642E-01
  0.628199315203E-01
  0.126685291278E-01
  0.278149658712E+00
  0.242964135064E+00
  0.426339555763E+00
  0.464377963237E+00
 -0.137144149939E+01
 -0.151799635758E+01
 -0.956668295929E+00
 -0.106276973764E+01
 -0.416433486197E+00
 -0.520970264800E+00
 -0.153602561014E+00
 -0.652235599127E-01
  0.637783188080E-01
  0.154572650670E+00
  0.207355263137E+00
  0.294516481240E+00
 -0.576035531369E-01
  0.223227148404E-01
 -0.840624235155E-01
 -0.216278817936E-01
 -0.745179151616E-01
 -0.344191210389E-01
 -0.160229025091E-03
 -0.422827231979E-01
  0.216803955996E+00
  0.157776535064E+00
  0.419603974152E+00
  0.482392466472E+00
 -0.117564669819E+01
 -0.137690697011E+01
 -0.816065413838E+00
 -0.985859182530E+00
 -0.280563378662E+00
 -0.470117198610E+00
 -0.761085277787E-01
  0.211533381048E-01
  0.139496285858E+00
  0.248548845228E+00
  0.284767806721E+00
  0.428813250417E+00
 -0.321900632733E+00
 -0.141142213118E+00
 -0.223641158357E+00
 -0.131630922940E+00
 -0.157491598536E+00
 -0.106542768836E+00
 -0.868458636951E-01
 -0.906652296859E-01
  0.742481856210E-01
  0.558771004057E-01
  0.282339067547E+00
  0.447181325424E+00
 -0.864498508124E+00
 -0.118156141708E+01
 -0.527541183880E+00
 -0.927114202001E+00
 -0.170246449446E+00
 -0.445834921672E+00
 -0.310011328251E-01
  0.774386499104E-02
  0.165083034734E+00
  0.237382276394E+00
  0.338605754309E+00
  0.543226325788E+00
 -0.126136978358E+01
 -0.126224152040E+01
 -0.612338516902E+00
 -0.621577268495E+00
 -0.338392535823E+00
 -0.328305688662E+00
 -0.289351805298E+00
 -0.235844471924E+00
 -0.274004881863E+00
 -0.168371568583E+00
 -0.878334738120E+00
 -0.505190243588E+00
 -0.794215478319E+00
 -0.311044328987E+00
 -0.661427460674E+00
 -0.267982773213E+00
 -0.668550299047E+00
 -0.427895228653E+00
 -0.126647374459E+01
 -0.783721354332E+00
 -0.262463488119E+01
 -0.267473392090E+01
 -0.121527800930E+01
 -0.127961492083E+01
 -0.647944885087E+00
 -0.683671408946E+00
 -0.570985817757E+00
 -0.569707784844E+00
 -0.623747285076E+00
 -0.507430395919E+00
 -0.753856386776E+00
 -0.700803076519E+00
 -0.745938210108E+00
 -0.555451802006E+00
 -0.835403289092E+00
 -0.653215772142E+00
 -0.126230889414E+01
 -0.118997275369E+01
 -0.263755378842E+01
 -0.243632692366E+01
SCALARS sigma float 1
LOOKUP_TABLE default
  0.000000000000E+00
  0.000000000000E+00
  0.000000000000E+00
  0.000000000000E+00
  0.000000000000E+00
  0.000000000000E+00
  0.000000000000E+00
  0.000000000000E+00
  0.000000000000E+00
  0.000000000000E+00
  0.000000000000E+00
  0.000000000000E+00
  0.000000000000E+00
  0.000000000000E+00
  0.000000000000E+00
  0.000000000000E+00
  0.000000000000E+00
  0.000000000000E+00
  0.000000000000E+00
  0.000000000000E+00
  0.000000000000E+00
  0.000000000000E+00
  0.000000000000E+00
  0.000000000000E+00
  0.000000000000E+00
  0.000000000000E+00
  0.000000000000E+00
  0.000000000000E+00
  0.000000000000E+00
  0.000000000000E+00
  0.000000000000E+00
  0.000000000000E+00
  0.000000000000E+00
  0.000000000000E+00
  0.000000000000E+00
  0.000000000000E+00
  0.000000000000E+00
  0.000000000000E+00
  0.000000000000E+00
  0.000000000000E+00
  0.000000000000E+00
  0.000000000000E+00
  0.000000000000E+00
  0.000000000000E+00
  0.000000000000E+00
  0.000000000000E+00
  0.000000000000E+00
  0.000000000000E+00
  0.000000000000E+00
  0.000000000000E+00
  0.000000000000E+00
  0.000000000000E+00
  0.000000000000E+00
  0.000000000000E+00
  0.000000000000E+00
  0.000000000000E+00
  0.000000000000E+00
  0.000000000000E+00
  0.000000000000E+00
  0.000000000000E+00
  0.000000000000E+00
  0.000000000000E+00
  0.000000000000E+00
  0.000000000000E+00
  0.000000000000E+00
  0.000000000000E+00
  0.000000000000E+00
  0.000000000000E+00
  0.000000000000E+00
  0.000000000000E+00
  0.000000000000E+00
  0.000000000000E+00
  0.000000000000E+00
  0.000000000000E+00
  0.000000000000E+00
  0.000000000000E+00
  0.000000000000E+00
  0.000000000000E+00
  0.000000000000E+00
  0.000000000000E+00
  0.000000000000E+00
  0.000000000000E+00
  0.000000000000E+00
  0.000000000000E+00
  0.000000000000E+00
  0.000000000000E+00
  0.000000000000E+00
  0.000000000000E+00
  0.000000000000E+00
  0.000000000000E+00
  0.000000000000E+00
  0.000000000000E+00
  0.000000000000E+00
  0.000000000000E+00
  0.000000000000E+00
  0.000000000000E+00
  0.000000000000E+00
  0.000000000000E+00
  0.000000000000E+00
  0.000000000000E+00
  0.000000000000E+00
  0.000000000000E+00
  0.000000000000E+00
  0.000000000000E+00
  0.000000000000E+00
  0.000000000000E+00
  0.000000000000E+00
  0.000000000000E+00
  0.000000000000E+00
  0.000000000000E+00
  0.000000000000E+00
  0.000000000000E+00
  0.000000000000E+00
  0.000000000000E+00
  0.000000000000E+00
  0.000000000000E+00
  0.000000000000E+00
  0.000000000000E+00
  0.000000000000E+00
  0.000000000000E+00
  0.000000000000E+00
  0.000000000000E+00
  0.000000000000E+00
  0.000000000000E+00
  0.000000000000E+00
  0.000000000000E+00
  0.000000000000E+00
  0.000000000000E+00
  0.000000000000E+00
  0.000000000000E+00
  0.000000000000E+00
  0.000000000000E+00
  0.000000000000E+00
  0.000000000000E+00
  0.000000000000E+00
  0.000000000000E+00
  0.000000000000E+00
  0.000000000000E+00
  0.000000000000E+00
  0.000000000000E+00
  0.000000000000E+00
  0.000000000000E+00
  0.000000000000E+00
  0.000000000000E+00
  0.000000000000E+00
  0.000000000000E+00
  0.000000000000E+00
  0.000000000000E+00
  0.000000000000E+00
  0.000000000000E+00
  0.000000000000E+00
  0.000000000000E+00
  0.000000000000E+00
  0.000000000000E+00
  0.000000000000E+00
  0.000000000000E+00
  0.000000000000E+00
  0.000000000000E+00
  0.000000000000E+00
  0.000000000000E+00
  0.000000000000E+00
  0.000000000000E+00
  0.000000000000E+00
  0.000000000000E+00
  0.000000000000E+00
  0.000000000000E+00
  0.000000000000E+00
  0.000000000000E+00
  0.000000000000E+00
  0.000000000000E+00
  0.000000000000E+00
  0.000000000000E+00
  0.000000000000E+00
  0.000000000000E+00
  0.000000000000E+00
  0.000000000000E+00
  0.000000000000E+00
  0.000000000000E+00
  0.000000000000E+00
  0.000000000000E+00
  0.000000000000E+00
  0.000000000000E+00
  0.000000000000E+00
  0.000000000000E+00
  0.000000000000E+00
  0.000000000000E+00
  0.000000000000E+00
  0.000000000000E+00
  0.000000000000E+00
  0.000000000000E+00
  0.000000000000E+00
  0.000000000000E+00
  0.000000000000E+00
  0.000000000000E+00
  0.000000000000E+00
  0.000000000000E+00
  0.000000000000E+00
  0.000000000000E+00
  0.000000000000E+00
  0.000000000000E+00
  0.000000000000E+00
  0.000000000000E+00
  0.000000000000E+00
  0.000000000000E+00
  0.000000000000E+00
  0.000000000000E+00
  0.000000000000E+00
  0.000000000000E+00
  0.000000000000E+00
  0.000000000000E+00
  0.000000000000E+00
  0.000000000000E+00
  0.000000000000E+00
  0.000000000000E+00
  0.000000000000E+00
  0.000000000000E+00
  0.000000000000E+00
  0.000000000000E+00
  0.000000000000E+00
  0.000000000000E+00
  0.000000000000E+00
  0.000000000000E+00
  0.000000000000E+00
  0.000000000000E+00
  0.000000000000E+00
  0.000000000000E+00
  0.000000000000E+00
  0.000000000000E+00
  0.000000000000E+00
  0.000000000000E+00
  0.000000000000E+00
  0.000000000000E+00
  0.000000000000E+00
  0.000000000000E+00
  0.000000000000E+00
  0.000000000000E+00
  0.000000000000E+00
  0.000000000000E+00
  0.000000000000E+00
  0.000000000000E+00
  0.000000000000E+00
  0.000000000000E+00
  0.000000000000E+00
  0.000000000000E+00
  0.000000000000E+00
  0.000000000000E+00
  0.000000000000E+00
  0.000000000000E+00
  0.000000000000E+00
  0.000000000000E+00
  0.000000000000E+00
  0.000000000000E+00
  0.000000000000E+00
  0.000000000000E+00
  0.000000000000E+00
  0.000000000000E+00
SCALARS inclination float 1
LOOKUP_TABLE default
  0.100000000000E+01
  0.100000000000E+01
  0.100000000000E+01
  0.100000000000E+01
  0.100000000000E+01
  0.100000000000E+01
  0.100000000000E+01
  0.100000000000E+01
  0.100000000000E+01
  0.100000000000E+01
  0.100000000000E+01
  0.100000000000E+01
  0.100000000000E+01
  0.100000000000E+01
  0.100000000000E+01
  0.100000000000E+01
  0.100000000000E+01
  0.100000000000E+01
  0.100000000000E+01
  0.100000000000E+01
  0.100000000000E+01
  0.100000000000E+01
  0.100000000000E+01
  0.100000000000E+01
  0.100000000000E+01
  0.100000000000E+01
  0.100000000000E+01
  0.100000000000E+01
  0.100000000000E+01
  0.100000000000E+01
  0.100000000000E+01
  0.100000000000E+01
  0.100000000000E+01
  0.100000000000E+01
  0.100000000000E+01
  0.100000000000E+01
  0.100000000000E+01
  0.100000000000E+01
  0.100000000000E+01
  0.100000000000E+01
  0.100000000000E+01
  0.100000000000E+01
  0.100000000000E+01
  0.100000000000E+01
  0.100000000000E+01
  0.100000000000E+01
  0.100000000000E+01
  0.100000000000E+01
  0.100000000000E+01
  0.100000000000E+01
  0.100000000000E+01
  0.100000000000E+01
  0.100000000000E+01
  0.100000000000E+01
  0.100000000000E+01
  0.100000000000E+01
  0.100000000000E+01
  0.100000000000E+01
  0.100000000000E+01
  0.100000000000E+01
  0.100000000000E+01
  0.100000000000E+01
  0.100000000000E+01
  0.100000000000E+01
  0.100000000000E+01
  0.100000000000E+01
  0.100000000000E+01
  0.100000000000E+01
  0.100000000000E+01
  0.100000000000E+01
  0.100000000000E+01
  0.100000000000E+01
  0.100000000000E+01
  0.100000000000E+01
  0.100000000000E+01
  0.100000000000E+01
  0.100000000000E+01
  0.100000000000E+01
  0.100000000000E+01
  0.100000000000E+01
  0.100000000000E+01
  0.100000000000E+01
  0.100000000000E+01
  0.100000000000E+01
  0.100000000000E+01
  0.100000000000E+01
  0.100000000000E+01
  0.100000000000E+01
  0.100000000000E+01
  0.100000000000E+01
  0.100000000000E+01
  0.100000000000E+01
  0.100000000000E+01
  0.100000000000E+01
  0.100000000000E+01
  0.100000000000E+01
  0.100000000000E+01
  0.100000000000E+01
  0.100000000000E+01
  0.100000000000E+01
  0.100000000000E+01
  0.100000000000E+01
  0.100000000000E+01
  0.100000000000E+01
  0.100000000000E+01
  0.100000000000E+01
  0.100000000000E+01
  0.100000000000E+01
  0.100000000000E+01
  0.100000000000E+01
  0.100000000000E+01
  0.100000000000E+01
  0.100000000000E+01
  0.100000000000E+01
  0.100000000000E+01
  0.100000000000E+01
  0.100000000000E+01
  0.100000000000E+01
  0.100000000000E+01
  0.100000000000E+01
  0.100000000000E+01
  0.100000000000E+01
  0.100000000000E+01
  0.100000000000E+01
  0.100000000000E+01
  0.100000000000E+01
  0.100000000000E+01
  0.100000000000E+01
  0.100000000000E+01
  0.100000000000E+01
  0.100000000000E+01
  0.100000000000E+01
  0.100000000000E+01
  0.100000000000E+01
  0.100000000000E+01
  0.100000000000E+01
  0.100000000000E+01
  0.100000000000E+01
  0.100000000000E+01
  0.100000000000E+01
  0.100000000000E+01
  0.100000000000E+01
  0.100000000000E+01
  0.100000000000E+01
  0.100000000000E+01
  0.100000000000E+01
  0.100000000000E+01
  0.100000000000E+01
  0.100000000000E+01
  0.100000000000E+01
  0.100000000000E+01
  0.100000000000E+01
  0.100000000000E+01
  0.100000000000E+01
  0.100000000000E+01
  0.100000000000E+01
  0.100000000000E+01
  0.100000000000E+01
  0.100000000000E+01
  0.100000000000E+01
  0.100000000000E+01
  0.100000000000E+01
  0.100000000000E+01
  0.100000000000E+01
  0.100000000000E+01
  0.100000000000E+01
  0.100000000000E+01
  0.100000000000E+01
  0.100000000000E+01
  0.100000000000E+01
  0.100000000000E+01
  0.100000000000E+01
  0.100000000000E+01
  0.100000000000E+01
  0.100000000000E+01
  0.100000000000E+01
  0.100000000000E+01
  0.100000000000E+01
  0.100000000000E+01
  0.100000000000E+01
  0.100000000000E+01
  0.100000000000E+01
  0.100000000000E+01
  0.100000000000E+01
  0.100000000000E+01
  0.100000000000E+01
  0.100000000000E+01
  0.100000000000E+01
  0.100000000000E+01
  0.100000000000E+01
  0.100000000000E+01
  0.100000000000E+01
  0.100000000000E+01
  0.100000000000E+01
  0.100000000000E+01
  0.100000000000E+01
  0.100000000000E+01
  0.100000000000E+01
  0.100000000000E+01
  0.100000000000E+01
  0.100000000000E+01
  0.100000000000E+01
  0.100000000000E+01
  0.100000000000E+01
  0.100000000000E+01
  0.100000000000E+01
  0.100000000000E+01
  0.100000000000E+01
  0.100000000000E+01
  0.100000000000E+01
  0.100000000000E+01
  0.100000000000E+01
  0.100000000000E+01
  0.100000000000E+01
  0.100000000000E+01
  0.100000000000E+01
  0.100000000000E+01
  0.100000000000E+01
  0.100000000000E+01
  0.100000000000E+01
  0.100000000000E+01
  0.100000000000E+01
  0.100000000000E+01
  0.100000000000E+01
  0.100000000000E+01
  0.100000000000E+01
  0.100000000000E+01
  0.100000000000E+01
  0.100000000000E+01
  0.100000000000E+01
  0.100000000000E+01
  0.100000000000E+01
  0.100000000000E+01
  0.100000000000E+01
  0.100000000000E+01
  0.100000000000E+01
  0.100000000000E+01
  0.100000000000E+01
  0.100000000000E+01
  0.100000000000E+01
  0.100000000000E+01
  0.100000000000E+01
  0.100000000000E+01
  0.100000000000E+01
  0.100000000000E+01
  0.100000000000E+01
  0.100000000000E+01
  0.100000000000E+01
  0.100000000000E+01
  0.100000000000E+01
  0.100000000000E+01
  0.100000000000E+01
  0.100000000000E+01
  0.100000000000E+01
  0.100000000000E+01
  0.100000000000E+01
VECTORS v float
  0.149555424544E+03  0.293413544352E+01  0.156671144642E+02
  0.150614469909E+03  0.262891991490E+01  0.158129045137E+02
  0.153464836034E+03 -0.221460304619E+00  0.165734716773E+02
  0.154483892391E+03  0.414284670476E+00  0.166147970823E+02
  0.156652868392E+03 -0.175470226690E+01  0.154288539023E+02
  0.157334753707E+03 -0.624255433285E+00  0.153851656492E+02
  0.153098442825E+03  0.361206423962E+01  0.308900747059E+01
  0.155208855536E+03 -0.417564293405E+01  0.329354430896E+01
  0.131833408696E+03  0.191998270145E+02 -0.156253745545E+02
  0.138057868335E+03  0.224386181730E+01 -0.188411316726E+02
  0.742914925064E+02  0.660102643996E+02 -0.480022110360E+01
  0.720215725863E+02  0.710741783380E+02 -0.549157895194E+00
  0.176682216251E+03 -0.335864653268E+02  0.121882423086E+03
  0.151108460002E+03  0.234654593075E+02  0.739883754555E+02
  0.210640588598E+03 -0.360666827993E+02  0.342250656096E+02
  0.200602061020E+03 -0.872086775743E+01  0.290388392737E+02
  0.200515211283E+03 -0.863400757684E+01 -0.432189074076E+01
  0.201432984918E+03 -0.120207161374E+02 -0.441084356246E+01
  0.189651829104E+03 -0.239520918364E+00 -0.184953668864E+02
  0.184672869171E+03 -0.849376399515E+01 -0.188143811021E+02
  0.174851354607E+03  0.132779924176E+01 -0.187127014377E+02
  0.168233762333E+03 -0.280063850672E+01 -0.184442861452E+02
  0.161139922042E+03  0.429323687230E+01 -0.167597547699E+02
  0.153366722868E+03  0.653346892350E+01 -0.156897615329E+02
  0.150195140426E+03  0.588307709395E+01  0.154203573705E+02
  0.149592879523E+03  0.625195909624E+01  0.153165906548E+02
  0.153753600300E+03  0.209121431306E+01  0.163552105339E+02
  0.153491758160E+03  0.212045661935E+01  0.163238219963E+02
  0.156437229318E+03 -0.825028551631E+00  0.153173013266E+02
  0.156662575406E+03 -0.721779330763E+00  0.153291922883E+02
  0.155210949353E+03  0.729847335008E+00  0.319221817878E+01
  0.155661981181E+03 -0.378984572711E+00  0.322445337729E+01
  0.138335501070E+03  0.169475114148E+02 -0.168398498204E+02
  0.137289364075E+03  0.189578870681E+02 -0.164158323457E+02
  0.746644416757E+02  0.815828388461E+02  0.401025752286E+01
  0.673183442450E+02  0.933349515813E+02  0.150805463269E+02
  0.195076115945E+03 -0.344228201191E+02  0.133029233695E+03
  0.181809496667E+03 -0.131991996256E+02  0.113036959845E+03
  0.217958620480E+03 -0.493483227011E+02  0.370828158808E+02
  0.210654828678E+03 -0.353125215354E+02  0.341224177199E+02
  0.200188799079E+03 -0.248464635282E+02 -0.465017129524E+01
  0.200507956373E+03 -0.256310905108E+02 -0.467297777902E+01
  0.184660745679E+03 -0.978382625571E+01 -0.189388526324E+02
  0.180213781651E+03 -0.118213422501E+02 -0.187041756529E+02
  0.168267395910E+03  0.125099621266E+00 -0.181324009843E+02
  0.164307270032E+03  0.567360186728E+00 -0.176576469676E+02
  0.153422253237E+03  0.114524397972E+02 -0.151700785140E+02
  0.151877749688E+03  0.123984404164E+02 -0.149039525249E+02
  0.150416442174E+03  0.726969741099E+01  0.152958456565E+02
  0.150212559637E+03  0.742610037091E+01  0.152573389938E+02
  0.154164099333E+03  0.347453745481E+01  0.162502917761E+02
  0.153771600367E+03  0.365701490194E+01  0.161882953514E+02
  0.156544338117E+03  0.884264243895E+00  0.151612478556E+02
  0.156453395506E+03  0.895215441247E+00  0.151513235724E+02
  0.155662862476E+03  0.168574708955E+01  0.318180489141E+01
  0.154856607043E+03  0.319726640522E+01  0.313390953301E+01
  0.137322844800E+03  0.207310489009E+02 -0.161744906773E+02
  0.134426625396E+03  0.252179030951E+02 -0.151502494024E+02
  0.671156344223E+02  0.925289278435E+02  0.147308360614E+02
  0.603418629337E+02  0.101627938883E+03  0.239315029085E+02