# vtk DataFile Version 3.0
MachLine results file. Generated by MachLine, USU AeroLab (c) 2022.
ASCII
DATASET POLYDATA
POINTS                  76 float
  0.197579002380E+02  0.757896304131E+00  0.000000000000E+00
  0.190000000000E+02  0.000000000000E+00  0.000000000000E+00
  0.147399288968E+05  0.757896304131E+00  0.272822243374E+04
  0.147402700924E+05  0.000000000000E+00  0.272842613910E+04
  0.207889842987E+02  0.178897356987E+01  0.000000000000E+00
  0.197579002380E+02  0.757896304131E+00  0.000000000000E+00
  0.147394647179E+05  0.178897356987E+01  0.272794530313E+04
  0.147399288968E+05  0.757896304131E+00  0.272822243374E+04
  0.221728172302E+02  0.317279767990E+01  0.000000000000E+00
  0.207889842987E+02  0.178897356987E+01  0.000000000000E+00
  0.147388417366E+05  0.317279767990E+01  0.272757336210E+04
  0.147394647179E+05  0.178897356987E+01  0.272794530313E+04
  0.239966468811E+02  0.499661636353E+01  0.000000000000E+00
  0.221728172302E+02  0.317279767990E+01  0.000000000000E+00
  0.147380206753E+05  0.499661636353E+01  0.272708316053E+04
  0.147388417366E+05  0.317279767990E+01  0.272757336210E+04
  0.263436698914E+02  0.734362459183E+01  0.000000000000E+00
  0.239966468811E+02  0.499661636353E+01  0.000000000000E+00
  0.147369640800E+05  0.734362459183E+01  0.272645233716E+04
  0.147380206753E+05  0.499661636353E+01  0.272708316053E+04
  0.292729015350E+02  0.102728376389E+02  0.000000000000E+00
  0.263436698914E+02  0.734362459183E+01  0.000000000000E+00
  0.147356453829E+05  0.102728376389E+02  0.272566503011E+04
  0.147369640800E+05  0.734362459183E+01  0.272645233716E+04
  0.327922058105E+02  0.137921218872E+02  0.000000000000E+00
  0.292729015350E+02  0.102728376389E+02  0.000000000000E+00
  0.147340610438E+05  0.137921218872E+02  0.272471912571E+04
  0.147356453829E+05  0.102728376389E+02  0.272566503011E+04
  0.368321151733E+02  0.178320064545E+02  0.000000000000E+00
  0.327922058105E+02  0.137921218872E+02  0.000000000000E+00
  0.147322423359E+05  0.178320064545E+02  0.272363329519E+04
  0.147340610438E+05  0.137921218872E+02  0.272471912571E+04
  0.412340698242E+02  0.222339305878E+02  0.000000000000E+00
  0.368321151733E+02  0.178320064545E+02  0.000000000000E+00
  0.147302606405E+05  0.222339305878E+02  0.272245015559E+04
  0.147322423359E+05  0.178320064545E+02  0.272363329519E+04
  0.457662315369E+02  0.267660694122E+02  0.000000000000E+00
  0.412340698242E+02  0.222339305878E+02  0.000000000000E+00
  0.147282203279E+05  0.267660694122E+02  0.272123201947E+04
  0.147302606405E+05  0.222339305878E+02  0.272245015559E+04
  0.501681861877E+02  0.311679935455E+02  0.000000000000E+00
  0.457662315369E+02  0.267660694122E+02  0.000000000000E+00
  0.147262386325E+05  0.311679935455E+02  0.272004887987E+04
  0.147282203279E+05  0.267660694122E+02  0.272123201947E+04
  0.542080955505E+02  0.352078781128E+02  0.000000000000E+00
  0.501681861877E+02  0.311679935455E+02  0.000000000000E+00
  0.147244199246E+05  0.352078781128E+02  0.271896304934E+04
  0.147262386325E+05  0.311679935455E+02  0.272004887987E+04
  0.577274017334E+02  0.387271614075E+02  0.000000000000E+00
  0.542080955505E+02  0.352078781128E+02  0.000000000000E+00
  0.147228355846E+05  0.387271614075E+02  0.271801714444E+04
  0.147244199246E+05  0.352078781128E+02  0.271896304934E+04
  0.606566314697E+02  0.416563758850E+02  0.000000000000E+00
  0.577274017334E+02  0.387271614075E+02  0.000000000000E+00
  0.147215168884E+05  0.416563758850E+02  0.271722983790E+04
  0.147228355846E+05  0.387271614075E+02  0.271801714444E+04
  0.630036544800E+02  0.440033836365E+02  0.000000000000E+00
  0.606566314697E+02  0.416563758850E+02  0.000000000000E+00
  0.147204602931E+05  0.440033836365E+02  0.271659901453E+04
  0.147215168884E+05  0.416563758850E+02  0.271722983790E+04
  0.648274841309E+02  0.458272018433E+02  0.000000000000E+00
  0.630036544800E+02  0.440033836365E+02  0.000000000000E+00
  0.147196392318E+05  0.458272018433E+02  0.271610881296E+04
  0.147204602931E+05  0.440033836365E+02  0.271659901453E+04
  0.662113189697E+02  0.472110252380E+02  0.000000000000E+00
  0.648274841309E+02  0.458272018433E+02  0.000000000000E+00
  0.147190162496E+05  0.472110252380E+02  0.271573687142E+04
  0.147196392318E+05  0.458272018433E+02  0.271610881296E+04
  0.672424011230E+02  0.482421035767E+02  0.000000000000E+00
  0.662113189697E+02  0.472110252380E+02  0.000000000000E+00
  0.147185520716E+05  0.482421035767E+02  0.271545974132E+04
  0.147190162496E+05  0.472110252380E+02  0.271573687142E+04
  0.680002975464E+02  0.490000000000E+02  0.000000000000E+00
  0.672424011230E+02  0.482421035767E+02  0.000000000000E+00
  0.147182108778E+05  0.490000000000E+02  0.271525603698E+04
  0.147185520716E+05  0.482421035767E+02  0.271545974132E+04
POLYGONS                  38                 152
3                   0                   3                   1
3                   0                   2                   3
3                   4                   7                   5
3                   4                   6                   7
3                   8                  11                   9
3                   8                  10                  11
3                  12                  15                  13
3                  12                  14                  15
3                  16                  19                  17
3                  16                  18                  19
3                  20                  23                  21
3                  20                  22                  23
3                  24                  27                  25
3                  24                  26                  27
3                  28                  31                  29
3                  28                  30                  31
3                  32                  35                  33
3                  32                  34                  35
3                  36                  39                  37
3                  36                  38                  39
3                  40                  43                  41
3                  40                  42                  43
3                  44                  47                  45
3                  44                  46                  47
3                  48                  51                  49
3                  48                  50                  51
3                  52                  55                  53
3                  52                  54                  55
3                  56                  59                  57
3                  56                  58                  59
3                  60                  63                  61
3                  60                  62                  63
3                  64                  67                  65
3                  64                  66                  67
3                  68                  71                  69
3                  68                  70                  71
3                  72                  75                  73
3                  72                  74                  75
POINT_DATA                  76
SCALARS mu float 1
LOOKUP_TABLE default
  0.825659014609E+01
 -0.526273135215E-01
  0.825659014609E+01
 -0.526273135215E-01
  0.326397158126E+02
  0.825659014609E+01
  0.326397158126E+02
  0.825659014609E+01
 -0.201375903619E+02
  0.326397158126E+02
 -0.201375903619E+02
  0.326397158126E+02
  0.505010189823E+01
 -0.201375903619E+02
  0.505010189823E+01
 -0.201375903619E+02
 -0.743685639860E+00
  0.505010189823E+01
 -0.743685639860E+00
  0.505010189823E+01
  0.829004893413E+00
 -0.743685639860E+00
  0.829004893413E+00
 -0.743685639860E+00
  0.610433554388E+00
  0.829004893413E+00
  0.610433554388E+00
  0.829004893413E+00
  0.814366868088E+00
  0.610433554388E+00
  0.814366868088E+00
  0.610433554388E+00
  0.855817384527E+00
  0.814366868088E+00
  0.855817384527E+00
  0.814366868088E+00
  0.850877570776E+00
  0.855817384527E+00
  0.850877570776E+00
  0.855817384527E+00
  0.928062793426E+00
  0.850877570776E+00
  0.928062793426E+00
  0.850877570776E+00
  0.636924461356E+00
  0.928062793426E+00
  0.636924461356E+00
  0.928062793426E+00
  0.467351848023E+00
  0.636924461356E+00
  0.467351848023E+00
  0.636924461356E+00
  0.349757484413E+00
  0.467351848023E+00
  0.349757484413E+00
  0.467351848023E+00
  0.615780299607E+00
  0.349757484413E+00
  0.615780299607E+00
  0.349757484413E+00
  0.778316792662E+00
  0.615780299607E+00
  0.778316792662E+00
  0.615780299607E+00
  0.169826518345E+01
  0.778316792662E+00
  0.169826518345E+01
  0.778316792662E+00
  0.166473264446E+01
  0.169826518345E+01
  0.166473264446E+01
  0.169826518345E+01
  0.000000000000E+00
  0.166473264446E+01
  0.000000000000E+00
  0.166473264446E+01
