# vtk DataFile Version 3.0
MachLine results file. Generated by MachLine, USU AeroLab (c) 2022.
ASCII
DATASET POLYDATA
POINTS                 108 float
  0.000000000000E+00  0.000000000000E+00  0.000000000000E+00
  0.983254907564E+04  0.000000000000E+00  0.182235525492E+04
  0.113538098335E+01  0.000000000000E+00 -0.658124566078E+00
  0.983270470678E+04  0.000000000000E+00  0.182151554445E+04
  0.113538098335E+01  0.000000000000E+00  0.658124566078E+00
  0.983246885602E+04  0.000000000000E+00  0.182278808123E+04
  0.192375373840E+01  0.192375373840E+01  0.000000000000E+00
  0.983261296309E+04  0.192375373840E+01  0.182201054908E+04
  0.305913543701E+01  0.192375373840E+01 -0.658124983311E+00
  0.983276859433E+04  0.192375373840E+01  0.182117083808E+04
  0.305913543701E+01  0.192375373840E+01  0.658124983311E+00
  0.983253274342E+04  0.192375373840E+01  0.182244337567E+04
  0.423028087616E+01  0.000000000000E+00 -0.108747220039E+01
  0.983288441996E+04  0.000000000000E+00  0.182054589890E+04
  0.423028087616E+01  0.000000000000E+00  0.108747220039E+01
  0.983249470477E+04  0.000000000000E+00  0.182264861386E+04
  0.615403699875E+01  0.192375373840E+01  0.108747279644E+01
  0.983255859220E+04  0.192375373840E+01  0.182230390817E+04
  0.660571479797E+01  0.547033166885E+01 -0.658125698566E+00
  0.983288637560E+04  0.547033166885E+01  0.182053534720E+04
  0.125173873901E+02  0.113820018768E+02 -0.658127009869E+00
  0.983308270122E+04  0.113820018768E+02  0.181947606894E+04
  0.156122989655E+02  0.113820018768E+02 -0.108747613430E+01
  0.983326241506E+04  0.113820018768E+02  0.181850641985E+04
  0.156122989655E+02  0.113820018768E+02  0.108747613430E+01
  0.983287269846E+04  0.113820018768E+02  0.182060914242E+04
  0.164639663696E+02  0.192375373840E+01 -0.479613333941E+00
  0.983318177948E+04  0.192375373840E+01  0.181894149051E+04
  0.176505107880E+02  0.000000000000E+00 -0.144198849797E+00
  0.983316108346E+04  0.000000000000E+00  0.181905315620E+04
  0.176505107880E+02  0.000000000000E+00  0.144198849797E+00
  0.983310940722E+04  0.000000000000E+00  0.181933197628E+04
  0.190000000000E+02  0.000000000000E+00  0.000000000000E+00
  0.983318006159E+04  0.000000000000E+00  0.181895075940E+04
  0.195742740631E+02  0.192375373840E+01 -0.144198939204E+00
  0.983322497125E+04  0.192375373840E+01  0.181870844857E+04
  0.209237651825E+02  0.192375373840E+01  0.000000000000E+00
  0.983324394942E+04  0.192375373840E+01  0.181860605151E+04
  0.244703655243E+02  0.547033166885E+01  0.000000000000E+00
  0.983336173126E+04  0.547033166885E+01  0.181797055756E+04
  0.292438049316E+02  0.292438049316E+02  0.000000000000E+00
  0.983352025617E+04  0.292438049316E+02  0.181711523372E+04
  0.303791980743E+02  0.292438049316E+02 -0.658130764961E+00
  0.983367588882E+04  0.292438049316E+02  0.181627551508E+04
  0.303820724487E+02  0.113820018768E+02  0.000000000000E+00
  0.983355805779E+04  0.113820018768E+02  0.181691127442E+04
  0.342964897156E+02  0.197561950684E+02 -0.479616105556E+00
  0.983377399427E+04  0.197561950684E+02  0.181574618542E+04
  0.342964897156E+02  0.197561950684E+02  0.479616105556E+00
  0.983360211523E+04  0.197561950684E+02  0.181667356173E+04
  0.386389808655E+02  0.292438049316E+02  0.980755090714E+00
  0.983365653236E+04  0.292438049316E+02  0.181637995317E+04
  0.387533912659E+02  0.376179962158E+02 -0.658132553101E+00
  0.983395399431E+04  0.376179962158E+02  0.181477499213E+04
  0.387563171387E+02  0.197561950684E+02  0.000000000000E+00
  0.983383616467E+04  0.197561950684E+02  0.181541074397E+04
  0.446650657654E+02  0.435296669006E+02  0.658133804798E+00
  0.983391446592E+04  0.435296669006E+02  0.181498826823E+04
  0.477600097656E+02  0.435296669006E+02 -0.108748745918E+01
  0.983433003570E+04  0.435296669006E+02  0.181274605430E+04
  0.477600097656E+02  0.435296669006E+02  0.108748745918E+01
  0.983394031505E+04  0.435296669006E+02  0.181484879877E+04
  0.482116432190E+02  0.470762481689E+02 -0.658134579659E+00
  0.983426810120E+04  0.470762481689E+02  0.181308022299E+04
  0.482439842224E+02  0.292438049316E+02  0.000000000000E+00
  0.983415124807E+04  0.292438049316E+02  0.181371070607E+04
  0.490000000000E+02  0.490000000000E+02  0.000000000000E+00
  0.983417635519E+04  0.490000000000E+02  0.181357524016E+04
  0.501353988647E+02  0.490000000000E+02 -0.658134996891E+00
  0.983433198879E+04  0.490000000000E+02  0.181273551640E+04
  0.501353988647E+02  0.490000000000E+02  0.658134996891E+00
  0.983409613430E+04  0.490000000000E+02  0.181400807335E+04
  0.506007728577E+02  0.494653701782E+02 -0.465371757746E+00
  0.983431290368E+04  0.494653701782E+02  0.181283849045E+04
  0.506007728577E+02  0.494653701782E+02  0.465371757746E+00
  0.983414612935E+04  0.494653701782E+02  0.181373832418E+04
  0.566182289124E+02  0.376179962158E+02  0.000000000000E+00
  0.983442935495E+04  0.376179962158E+02  0.181221017562E+04
  0.580700759888E+02  0.435296669006E+02  0.479619771242E+00
  0.983439163030E+04  0.435296669006E+02  0.181241371959E+04
  0.583952369690E+02  0.490000000000E+02 -0.980761349201E+00
  0.983466410572E+04  0.490000000000E+02  0.181094357378E+04
  0.611804275513E+02  0.435296669006E+02 -0.144200876355E+00
  0.983460670308E+04  0.435296669006E+02  0.181125329074E+04
  0.611804275513E+02  0.435296669006E+02  0.144200876355E+00
  0.983455502611E+04  0.435296669006E+02  0.181153211473E+04
  0.625299339294E+02  0.435296669006E+02  0.000000000000E+00
  0.983462568141E+04  0.435296669006E+02  0.181115089282E+04
  0.635404319763E+02  0.490000000000E+02  0.479620635509E+00
  0.983457329950E+04  0.490000000000E+02  0.181143352030E+04
  0.638795776367E+02  0.493391418457E+02 -0.339143037796E+00
  0.983473127179E+04  0.493391418457E+02  0.181058117812E+04
  0.660765380859E+02  0.470762481689E+02  0.000000000000E+00
  0.983474346338E+04  0.470762481689E+02  0.181051539819E+04
  0.667527542114E+02  0.491019668579E+02  0.101965606213E+00
  0.983474764977E+04  0.491019668579E+02  0.181049281045E+04
  0.680002975464E+02  0.490000000000E+02  0.000000000000E+00
  0.983480735102E+04  0.490000000000E+02  0.181017069132E+04
  0.303820724487E+02  0.113820018768E+02  0.000000000000E+00
  0.983355805779E+04  0.113820018768E+02  0.181691127442E+04
  0.387563171387E+02  0.197561950684E+02  0.000000000000E+00
  0.983383616467E+04  0.197561950684E+02  0.181541074397E+04
  0.482439842224E+02  0.292438049316E+02  0.000000000000E+00
  0.983415124807E+04  0.292438049316E+02  0.181371070607E+04
  0.625299339294E+02  0.435296669006E+02  0.000000000000E+00
  0.983462568141E+04  0.435296669006E+02  0.181115089282E+04
  0.660765380859E+02  0.470762481689E+02  0.000000000000E+00
  0.983474346338E+04  0.470762481689E+02  0.181051539819E+04
POLYGONS                  18                  72
3                  36                  37                  33
3                  36                  33                  32
3                  38                  39                  37
3                  38                  37                  36
3                  44                  45                  39
3                  44                  39                  38
3                  54                  55                  45
3                  54                  45                  44
3                  64                  65                  55
3                  64                  55                  54
3                  76                  77                  65
3                  76                  65                  64
3                  86                  87                  77
3                  86                  77                  76
3                  92                  93                  87
3                  92                  87                  86
3                  96                  97                  93
3                  96                  93                  92
CELL_DATA                  18
NORMALS normals float
  0.179282832401E+00 -0.179283898925E+00 -0.967323601280E+00
  0.179282832401E+00 -0.179283898925E+00 -0.967323601280E+00
  0.179282830267E+00 -0.179283963182E+00 -0.967323589766E+00
  0.179282830267E+00 -0.179283963182E+00 -0.967323589766E+00
  0.179282830891E+00 -0.179283944388E+00 -0.967323593133E+00
  0.179282830891E+00 -0.179283944388E+00 -0.967323593133E+00
  0.179282831244E+00 -0.179283933771E+00 -0.967323595036E+00
  0.179282831244E+00 -0.179283933771E+00 -0.967323595036E+00
  0.179282831927E+00 -0.179283913195E+00 -0.967323598723E+00
  0.179282831927E+00 -0.179283913195E+00 -0.967323598723E+00
  0.179282829931E+00 -0.179283973294E+00 -0.967323587954E+00
  0.179282829931E+00 -0.179283973294E+00 -0.967323587954E+00
  0.179282833215E+00 -0.179283874405E+00 -0.967323605673E+00
  0.179282833215E+00 -0.179283874405E+00 -0.967323605673E+00
  0.179282829492E+00 -0.179283986511E+00 -0.967323585586E+00
  0.179282829492E+00 -0.179283986511E+00 -0.967323585586E+00
  0.179282843828E+00 -0.179283554845E+00 -0.967323662934E+00
  0.179282843828E+00 -0.179283554845E+00 -0.967323662934E+00
POINT_DATA                 108
SCALARS mu float 1
LOOKUP_TABLE default
  0.000000000000E+00
  0.000000000000E+00
  0.000000000000E+00
  0.000000000000E+00
  0.000000000000E+00
  0.000000000000E+00
  0.000000000000E+00
  0.000000000000E+00
  0.000000000000E+00
  0.000000000000E+00
  0.000000000000E+00
  0.000000000000E+00
  0.000000000000E+00
  0.000000000000E+00
  0.000000000000E+00
  0.000000000000E+00
  0.000000000000E+00
  0.000000000000E+00
  0.000000000000E+00
  0.000000000000E+00
  0.000000000000E+00
  0.000000000000E+00
  0.000000000000E+00
  0.000000000000E+00
  0.000000000000E+00
  0.000000000000E+00
  0.000000000000E+00
  0.000000000000E+00
  0.000000000000E+00
  0.000000000000E+00
  0.000000000000E+00
  0.000000000000E+00
 -0.519845830603E+01
 -0.519845830603E+01
  0.000000000000E+00
  0.000000000000E+00
 -0.528592011127E+01
 -0.528592011127E+01
 -0.546429303366E+01
 -0.546429303366E+01
  0.000000000000E+00
  0.000000000000E+00
  0.000000000000E+00
  0.000000000000E+00
 -0.568548627399E+01
 -0.568548627399E+01
  0.000000000000E+00
  0.000000000000E+00
  0.000000000000E+00
  0.000000000000E+00
  0.000000000000E+00
  0.000000000000E+00
  0.000000000000E+00
  0.000000000000E+00
 -0.581900539904E+01
 -0.581900539904E+01
  0.000000000000E+00
  0.000000000000E+00
  0.000000000000E+00
  0.000000000000E+00
  0.000000000000E+00
  0.000000000000E+00
  0.000000000000E+00
  0.000000000000E+00
 -0.566345094380E+01
 -0.566345094380E+01
  0.000000000000E+00
  0.000000000000E+00
  0.000000000000E+00
  0.000000000000E+00
  0.000000000000E+00
  0.000000000000E+00
  0.000000000000E+00
  0.000000000000E+00
  0.000000000000E+00
  0.000000000000E+00
 -0.500302898093E+01
 -0.500302898093E+01
  0.000000000000E+00
  0.000000000000E+00
  0.000000000000E+00
  0.000000000000E+00
  0.000000000000E+00
  0.000000000000E+00
  0.000000000000E+00
  0.000000000000E+00
 -0.375404343005E+01
 -0.375404343005E+01
  0.000000000000E+00
  0.000000000000E+00
  0.000000000000E+00
  0.000000000000E+00
 -0.204386675314E+01
 -0.204386675314E+01
  0.000000000000E+00
  0.000000000000E+00
  0.000000000000E+00
  0.000000000000E+00
  0.568548627399E+01
  0.568548627399E+01
  0.581900539904E+01
  0.581900539904E+01
  0.566345094380E+01
  0.566345094380E+01
  0.375404343005E+01
  0.375404343005E+01
  0.204386675314E+01
  0.204386675314E+01
