# vtk DataFile Version 3.0
MachLine results file. Generated by MachLine, USU AeroLab (c) 2022.
ASCII
DATASET POLYDATA
POINTS                 396 float
  0.000000000000E+00  0.000000000000E+00  0.000000000000E+00
  0.983254907564E+04  0.000000000000E+00  0.182235525492E+04
  0.473465979099E+00  0.000000000000E+00 -0.436293870211E+00
  0.983264297621E+04  0.000000000000E+00  0.182184861276E+04
  0.473465979099E+00  0.000000000000E+00  0.436293870211E+00
  0.983248662247E+04  0.000000000000E+00  0.182269222205E+04
  0.757896304131E+00  0.757896304131E+00  0.000000000000E+00
  0.983257424521E+04  0.757896304131E+00  0.182221945205E+04
  0.123136246204E+01  0.757896304131E+00 -0.436293989420E+00
  0.983266814582E+04  0.757896304131E+00  0.182171280974E+04
  0.123136246204E+01  0.757896304131E+00  0.436293989420E+00
  0.983251179203E+04  0.757896304131E+00  0.182255641926E+04
  0.157641971111E+01  0.000000000000E+00 -0.760520398617E+00
  0.983273770127E+04  0.000000000000E+00  0.182133752209E+04
  0.157641971111E+01  0.000000000000E+00  0.760520398617E+00
  0.983246515513E+04  0.000000000000E+00  0.182280804945E+04
  0.233431649208E+01  0.757896304131E+00  0.760520577431E+00
  0.983249032469E+04  0.757896304131E+00  0.182267224667E+04
  0.317279767990E+01  0.317279767990E+01  0.000000000000E+00
  0.983265444357E+04  0.317279767990E+01  0.182178674042E+04
  0.336539411545E+01  0.178897356987E+01 -0.760520815849E+00
  0.983279711280E+04  0.178897356987E+01  0.182101696615E+04
  0.418254137039E+01  0.757896304131E+00 -0.102348935604E+01
  0.983287136984E+04  0.757896304131E+00  0.182061631104E+04
  0.418254137039E+01  0.757896304131E+00  0.102348935604E+01
  0.983250458406E+04  0.757896304131E+00  0.182259531003E+04
  0.474921894073E+01  0.317279767990E+01 -0.760521173477E+00
  0.983284306939E+04  0.317279767990E+01  0.182076900657E+04
  0.547008323669E+01  0.499661636353E+01  0.436294585466E+00
  0.983265255894E+04  0.499661636353E+01  0.182179690900E+04
  0.611307668686E+01  0.000000000000E+00 -0.114008128643E+01
  0.983295637391E+04  0.000000000000E+00  0.182015767011E+04
  0.611307668686E+01  0.000000000000E+00  0.114008128643E+01
  0.983254780532E+04  0.000000000000E+00  0.182236210897E+04
  0.687097454071E+01  0.757896304131E+00  0.114008152485E+01
  0.983257297490E+04  0.757896304131E+00  0.182222630605E+04
  0.734362459183E+01  0.734362459183E+01  0.000000000000E+00
  0.983279295585E+04  0.734362459183E+01  0.182103939508E+04
  0.781709194183E+01  0.734362459183E+01 -0.436294913292E+00
  0.983288685665E+04  0.734362459183E+01  0.182053275166E+04
  0.892004776001E+01  0.734362459183E+01 -0.760522186756E+00
  0.983298158191E+04  0.734362459183E+01  0.182002165990E+04
  0.892004776001E+01  0.734362459183E+01  0.760522186756E+00
  0.983270903514E+04  0.734362459183E+01  0.182149219072E+04
  0.928588008881E+01  0.317279767990E+01 -0.114008247852E+01
  0.983306174225E+04  0.317279767990E+01  0.181958915344E+04
  0.102728376389E+02  0.102728376389E+02  0.000000000000E+00
  0.983289023439E+04  0.102728376389E+02  0.182051452704E+04
  0.107463054657E+02  0.102728376389E+02 -0.436295330524E+00
  0.983298413528E+04  0.102728376389E+02  0.182000788314E+04
  0.107463054657E+02  0.102728376389E+02  0.436295330524E+00
  0.983282778102E+04  0.102728376389E+02  0.182085149525E+04
  0.111840667725E+02  0.178897356987E+01  0.980746388435E+00
  0.983274476208E+04  0.178897356987E+01  0.182129942539E+04
  0.118492631912E+02  0.102728376389E+02 -0.760522902012E+00
  0.983307886066E+04  0.102728376389E+02  0.181949679075E+04
  0.118492631912E+02  0.102728376389E+02  0.760522902012E+00
  0.983280631363E+04  0.102728376389E+02  0.182096732294E+04
  0.134249305725E+02  0.757896304131E+00  0.678052842617E+00
  0.983287341852E+04  0.757896304131E+00  0.182060525735E+04
  0.134567155838E+02  0.734362459183E+01 -0.114008402824E+01
  0.983320025508E+04  0.734362459183E+01  0.181884180506E+04
  0.134567155838E+02  0.734362459183E+01  0.114008402824E+01
  0.983279168551E+04  0.734362459183E+01  0.182104624922E+04
  0.143917188644E+02  0.499661636353E+01 -0.980747401714E+00
  0.983320275577E+04  0.499661636353E+01  0.181882831254E+04
  0.143917188644E+02  0.499661636353E+01  0.980747401714E+00
  0.983285128734E+04  0.499661636353E+01  0.182072466652E+04
  0.144560117722E+02  0.178897356987E+01 -0.678053081036E+00
  0.983315065295E+04  0.178897356987E+01  0.181910943419E+04
  0.158398418427E+02  0.317279767990E+01 -0.678053379059E+00
  0.983319660971E+04  0.317279767990E+01  0.181886147373E+04
  0.158398418427E+02  0.317279767990E+01  0.678053379059E+00
  0.983295361711E+04  0.317279767990E+01  0.182017254447E+04
  0.161016559601E+02  0.757896304131E+00 -0.393031239510E+00
  0.983315423310E+04  0.757896304131E+00  0.181909011745E+04
  0.171327381134E+02  0.178897356987E+01 -0.393031388521E+00
  0.983318847515E+04  0.178897356987E+01  0.181890536391E+04
  0.171327381134E+02  0.178897356987E+01  0.393031388521E+00
  0.983304762529E+04  0.178897356987E+01  0.181966532171E+04
  0.172004318237E+02  0.000000000000E+00 -0.192506864667E+00
  0.983315479246E+04  0.000000000000E+00  0.181908709943E+04
  0.178320064545E+02  0.178320064545E+02  0.000000000000E+00
  0.983314127277E+04  0.178320064545E+02  0.181916004513E+04
  0.179583320618E+02  0.757896304131E+00 -0.192506924272E+00
  0.983317996217E+04  0.757896304131E+00  0.181895129579E+04
  0.179583320618E+02  0.757896304131E+00  0.192506924272E+00
  0.983311097386E+04  0.757896304131E+00  0.181932352341E+04
  0.185165691376E+02  0.317279767990E+01  0.393031567335E+00
  0.983309358199E+04  0.317279767990E+01  0.181941736154E+04
  0.189894161224E+02  0.178897356987E+01 -0.192506983876E+00
  0.983321420427E+04  0.178897356987E+01  0.181876654199E+04
  0.189894161224E+02  0.178897356987E+01  0.192506983876E+00
  0.983314521593E+04  0.178897356987E+01  0.181913876973E+04
  0.190000000000E+02  0.000000000000E+00  0.000000000000E+00
  0.983318006159E+04  0.000000000000E+00  0.181895075940E+04
  0.196679573059E+02  0.102728376389E+02 -0.980749070644E+00
  0.983337797882E+04  0.102728376389E+02  0.181788289355E+04
  0.196679573059E+02  0.102728376389E+02  0.980749070644E+00
  0.983302650979E+04  0.102728376389E+02  0.181977925076E+04
  0.197579002380E+02  0.757896304131E+00  0.000000000000E+00
  0.983320523129E+04  0.757896304131E+00  0.181881495582E+04
  0.201340255737E+02  0.178897356987E+01  0.698661133647E-01
  0.983320520345E+04  0.178897356987E+01  0.181881510607E+04
  0.203403968811E+02  0.499661636353E+01 -0.393031775951E+00
  0.983329500088E+04  0.499661636353E+01  0.181833060249E+04
  0.203403968811E+02  0.499661636353E+01  0.393031775951E+00
  0.983315415089E+04  0.499661636353E+01  0.181909056103E+04
  0.207889842987E+02  0.178897356987E+01  0.000000000000E+00
  0.983323947337E+04  0.178897356987E+01  0.181863020208E+04
  0.215178565979E+02  0.317279767990E+01 -0.698661431670E-01
  0.983327619796E+04  0.317279767990E+01  0.181843205394E+04
  0.215178565979E+02  0.317279767990E+01  0.698661431670E-01
  0.983325116018E+04  0.317279767990E+01  0.181856714575E+04
  0.221728172302E+02  0.317279767990E+01  0.000000000000E+00
  0.983328543017E+04  0.317279767990E+01  0.181838224140E+04
  0.227074012756E+02  0.222339305878E+02 -0.436297029257E+00
  0.983338136103E+04  0.222339305878E+02  0.181786464481E+04
  0.227074012756E+02  0.222339305878E+02  0.436297029257E+00
  0.983322500616E+04  0.222339305878E+02  0.181870826020E+04
  0.229399108887E+02  0.102728376389E+02 -0.678054928780E+00
  0.983343240177E+04  0.102728376389E+02  0.181758925364E+04
  0.238103618622E+02  0.222339305878E+02 -0.760525882244E+00
  0.983347608673E+04  0.222339305878E+02  0.181735355066E+04
  0.238103618622E+02  0.222339305878E+02  0.760525882244E+00
  0.983320353863E+04  0.222339305878E+02  0.181882408862E+04
  0.239451179504E+02  0.178320064545E+02 -0.114008784294E+01
  0.983354857337E+04  0.178320064545E+02  0.181696244774E+04
  0.239966468811E+02  0.499661636353E+01  0.000000000000E+00
  0.983334599917E+04  0.499661636353E+01  0.181805544035E+04
  0.256166458130E+02  0.102728376389E+02  0.393032461405E+00
  0.983332937387E+04  0.102728376389E+02  0.181814514244E+04
  0.256585998535E+02  0.222339305878E+02 -0.102349650860E+01
  0.983358458644E+04  0.222339305878E+02  0.181676813860E+04
  0.256585998535E+02  0.222339305878E+02  0.102349650860E+01
  0.983321779810E+04  0.222339305878E+02  0.181874715142E+04
  0.263436698914E+02  0.734362459183E+01  0.000000000000E+00
  0.983342394330E+04  0.734362459183E+01  0.181763489144E+04
  0.267660694122E+02  0.267660694122E+02  0.000000000000E+00
  0.983343797110E+04  0.267660694122E+02  0.181755920422E+04
  0.272271480560E+02  0.178320064545E+02 -0.980751514435E+00
  0.983362901837E+04  0.178320064545E+02  0.181652840535E+04
  0.272271480560E+02  0.178320064545E+02  0.980751514435E+00
  0.983327754847E+04  0.178320064545E+02  0.181842476728E+04
  0.283425025940E+02  0.267660694122E+02  0.760526955128E+00
  0.983335404986E+04  0.267660694122E+02  0.181801200267E+04
  0.283470516205E+02  0.222339305878E+02 -0.114008951187E+01
  0.983369476095E+04  0.222339305878E+02  0.181617369016E+04
  0.283470516205E+02  0.222339305878E+02  0.114008951187E+01
  0.983328618941E+04  0.222339305878E+02  0.181837814492E+04
  0.292729015350E+02  0.102728376389E+02  0.000000000000E+00
  0.983352122246E+04  0.102728376389E+02  0.181711002007E+04
  0.301907424927E+02  0.267660694122E+02 -0.102349793911E+01
  0.983373509819E+04  0.267660694122E+02  0.181595604989E+04
  0.301907424927E+02  0.267660694122E+02  0.102349793911E+01
  0.983336830933E+04  0.267660694122E+02  0.181793506547E+04
  0.304991092682E+02  0.178320064545E+02 -0.678056597710E+00
  0.983368344143E+04  0.178320064545E+02  0.181623476481E+04
  0.316290874481E+02  0.222339305878E+02  0.980752885342E+00
  0.983342373569E+04  0.222339305878E+02  0.181763601161E+04
  0.316414642334E+02  0.311679935455E+02 -0.436298280954E+00
[...]
CELL_DATA                  38
NORMALS normals float
  0.179282836771E+00 -0.179283767340E+00 -0.967323624858E+00
  0.179282836771E+00 -0.179283767341E+00 -0.967323624858E+00
  0.179282828705E+00 -0.179284010207E+00 -0.967323581340E+00
  0.179282828705E+00 -0.179284010207E+00 -0.967323581340E+00
  0.179282829947E+00 -0.179283972822E+00 -0.967323588038E+00
  0.179282829947E+00 -0.179283972822E+00 -0.967323588038E+00
  0.179282832029E+00 -0.179283910121E+00 -0.967323599274E+00
  0.179282832029E+00 -0.179283910120E+00 -0.967323599274E+00
  0.179282830387E+00 -0.179283959552E+00 -0.967323590416E+00
  0.179282830387E+00 -0.179283959552E+00 -0.967323590416E+00
  0.179282830097E+00 -0.179283968300E+00 -0.967323588849E+00
  0.179282830097E+00 -0.179283968300E+00 -0.967323588849E+00
  0.179282833888E+00 -0.179283854134E+00 -0.967323609306E+00
  0.179282833888E+00 -0.179283854134E+00 -0.967323609306E+00
  0.179282831313E+00 -0.179283931693E+00 -0.967323595408E+00
  0.179282831313E+00 -0.179283931693E+00 -0.967323595408E+00
  0.179282826731E+00 -0.179284069660E+00 -0.967323570686E+00
  0.179282826731E+00 -0.179284069660E+00 -0.967323570686E+00
  0.179282837579E+00 -0.179283742997E+00 -0.967323629220E+00
  0.179282837579E+00 -0.179283742997E+00 -0.967323629220E+00
  0.179282826731E+00 -0.179284069656E+00 -0.967323570687E+00
  0.179282826731E+00 -0.179284069656E+00 -0.967323570687E+00
  0.179282831313E+00 -0.179283931693E+00 -0.967323595408E+00
  0.179282831313E+00 -0.179283931693E+00 -0.967323595408E+00
  0.179282829204E+00 -0.179283995197E+00 -0.967323584029E+00
  0.179282829204E+00 -0.179283995197E+00 -0.967323584029E+00
  0.179282836663E+00 -0.179283770579E+00 -0.967323624277E+00
  0.179282836663E+00 -0.179283770579E+00 -0.967323624277E+00
  0.179282829217E+00 -0.179283994804E+00 -0.967323584100E+00
  0.179282829217E+00 -0.179283994804E+00 -0.967323584100E+00
  0.179282830522E+00 -0.179283955487E+00 -0.967323591145E+00
  0.179282830522E+00 -0.179283955487E+00 -0.967323591145E+00
  0.179282819025E+00 -0.179284301679E+00 -0.967323529112E+00
  0.179282819025E+00 -0.179284301679E+00 -0.967323529112E+00
  0.179282845362E+00 -0.179283508641E+00 -0.967323671213E+00
  0.179282845362E+00 -0.179283508641E+00 -0.967323671213E+00
  0.179282866681E+00 -0.179282866704E+00 -0.967323786238E+00
  0.179282866681E+00 -0.179282866704E+00 -0.967323786238E+00
POINT_DATA                 396
SCALARS mu float 1
LOOKUP_TABLE default
  0.000000000000E+00
  0.000000000000E+00
  0.000000000000E+00
  0.000000000000E+00
  0.000000000000E+00
  0.000000000000E+00
  0.000000000000E+00
  0.000000000000E+00
  0.000000000000E+00
  0.000000000000E+00
  0.000000000000E+00
  0.000000000000E+00
  0.000000000000E+00
  0.000000000000E+00
  0.000000000000E+00
  0.000000000000E+00
  0.000000000000E+00
  0.000000000000E+00
  0.000000000000E+00
  0.000000000000E+00
  0.000000000000E+00
  0.000000000000E+00
  0.000000000000E+00
  0.000000000000E+00
  0.000000000000E+00
  0.000000000000E+00
  0.000000000000E+00
  0.000000000000E+00
  0.000000000000E+00
  0.000000000000E+00
  0.000000000000E+00
  0.000000000000E+00
  0.000000000000E+00
  0.000000000000E+00
  0.000000000000E+00
  0.000000000000E+00
  0.000000000000E+00
  0.000000000000E+00
  0.000000000000E+00
  0.000000000000E+00
  0.000000000000E+00
  0.000000000000E+00
  0.000000000000E+00
  0.000000000000E+00
  0.000000000000E+00
  0.000000000000E+00
  0.000000000000E+00
  0.000000000000E+00
  0.000000000000E+00
  0.000000000000E+00
  0.000000000000E+00
  0.000000000000E+00
  0.000000000000E+00
  0.000000000000E+00
  0.000000000000E+00
  0.000000000000E+00
  0.000000000000E+00
  0.000000000000E+00
  0.000000000000E+00
  0.000000000000E+00
  0.000000000000E+00
  0.000000000000E+00
  0.000000000000E+00
  0.000000000000E+00
  0.000000000000E+00
  0.000000000000E+00
  0.000000000000E+00
  0.000000000000E+00
  0.000000000000E+00
  0.000000000000E+00
  0.000000000000E+00
  0.000000000000E+00
  0.000000000000E+00
  0.000000000000E+00
  0.000000000000E+00
  0.000000000000E+00
  0.000000000000E+00
  0.000000000000E+00
  0.000000000000E+00
  0.000000000000E+00
  0.000000000000E+00
  0.000000000000E+00
  0.000000000000E+00
  0.000000000000E+00
  0.000000000000E+00
  0.000000000000E+00
  0.000000000000E+00
  0.000000000000E+00
  0.000000000000E+00
  0.000000000000E+00
  0.000000000000E+00
  0.000000000000E+00
  0.000000000000E+00
  0.000000000000E+00
 -0.561404981013E+01
 -0.561404981013E+01
  0.000000000000E+00
  0.000000000000E+00
  0.000000000000E+00
  0.000000000000E+00
 -0.564522026975E+01
 -0.564522026975E+01
  0.000000000000E+00
  0.000000000000E+00
  0.000000000000E+00
  0.000000000000E+00
  0.000000000000E+00
  0.000000000000E+00
 -0.570468580508E+01
 -0.570468580508E+01
  0.000000000000E+00
  0.000000000000E+00
  0.000000000000E+00
  0.000000000000E+00
 -0.579139377613E+01
 -0.579139377613E+01
  0.000000000000E+00
  0.000000000000E+00
  0.000000000000E+00
  0.000000000000E+00
  0.000000000000E+00
  0.000000000000E+00
  0.000000000000E+00
  0.000000000000E+00
  0.000000000000E+00
  0.000000000000E+00
  0.000000000000E+00
  0.000000000000E+00
 -0.590241261894E+01
 -0.590241261894E+01
  0.000000000000E+00
  0.000000000000E+00
  0.000000000000E+00
  0.000000000000E+00
  0.000000000000E+00
  0.000000000000E+00
 -0.603041369139E+01
 -0.603041369139E+01
  0.000000000000E+00
  0.000000000000E+00
  0.000000000000E+00
  0.000000000000E+00
  0.000000000000E+00
  0.000000000000E+00
  0.000000000000E+00
  0.000000000000E+00
  0.000000000000E+00
  0.000000000000E+00
  0.000000000000E+00
  0.000000000000E+00
 -0.616467639878E+01
 -0.616467639878E+01
  0.000000000000E+00
  0.000000000000E+00
  0.000000000000E+00
  0.000000000000E+00
  0.000000000000E+00
  0.000000000000E+00
  0.000000000000E+00
  0.000000000000E+00
  0.000000000000E+00
  0.000000000000E+00
  0.000000000000E+00
  0.000000000000E+00
 -0.629166746105E+01
 -0.629166746105E+01
  0.000000000000E+00
  0.000000000000E+00
  0.000000000000E+00
  0.000000000000E+00
  0.000000000000E+00
  0.000000000000E+00
  0.000000000000E+00
  0.000000000000E+00
  0.000000000000E+00
  0.000000000000E+00
  0.000000000000E+00
  0.000000000000E+00
  0.000000000000E+00
  0.000000000000E+00
  0.000000000000E+00
  0.000000000000E+00
  0.000000000000E+00
  0.000000000000E+00
 -0.639371201868E+01
 -0.639371201868E+01
  0.000000000000E+00
  0.000000000000E+00
  0.000000000000E+00
  0.000000000000E+00
  0.000000000000E+00
  0.000000000000E+00
  0.000000000000E+00
  0.000000000000E+00
  0.000000000000E+00
  0.000000000000E+00
  0.000000000000E+00
  0.000000000000E+00
 -0.645167849692E+01
 -0.645167849692E+01
  0.000000000000E+00
  0.000000000000E+00
  0.000000000000E+00
  0.000000000000E+00
  0.000000000000E+00
  0.000000000000E+00
  0.000000000000E+00
  0.000000000000E+00
  0.000000000000E+00
  0.000000000000E+00
  0.000000000000E+00
  0.000000000000E+00
  0.000000000000E+00
  0.000000000000E+00
  0.000000000000E+00
  0.000000000000E+00
  0.000000000000E+00
  0.000000000000E+00
  0.000000000000E+00
  0.000000000000E+00
  0.000000000000E+00
  0.000000000000E+00
  0.000000000000E+00
  0.000000000000E+00
 -0.644266048784E+01
 -0.644266048784E+01
  0.000000000000E+00
  0.000000000000E+00
  0.000000000000E+00
  0.000000000000E+00
  0.000000000000E+00
  0.000000000000E+00
  0.000000000000E+00
  0.000000000000E+00
  0.000000000000E+00
  0.000000000000E+00
  0.000000000000E+00
  0.000000000000E+00
  0.000000000000E+00
  0.000000000000E+00
  0.000000000000E+00
  0.000000000000E+00
  0.000000000000E+00
  0.000000000000E+00
  0.000000000000E+00
  0.000000000000E+00
  0.000000000000E+00
  0.000000000000E+00
  0.000000000000E+00
  0.000000000000E+00
  0.000000000000E+00
  0.000000000000E+00
  0.000000000000E+00
  0.000000000000E+00
  0.000000000000E+00
  0.000000000000E+00
 -0.634086076965E+01
 -0.634086076965E+01
  0.000000000000E+00
  0.000000000000E+00
  0.000000000000E+00
  0.000000000000E+00
  0.000000000000E+00
  0.000000000000E+00
  0.000000000000E+00
  0.000000000000E+00
  0.000000000000E+00
  0.000000000000E+00
  0.000000000000E+00
  0.000000000000E+00
  0.000000000000E+00
  0.000000000000E+00
  0.000000000000E+00
  0.000000000000E+00
  0.000000000000E+00
  0.000000000000E+00
  0.000000000000E+00
  0.000000000000E+00
  0.000000000000E+00
  0.000000000000E+00
  0.000000000000E+00
  0.000000000000E+00
  0.000000000000E+00
  0.000000000000E+00
  0.000000000000E+00
  0.000000000000E+00
  0.000000000000E+00
  0.000000000000E+00
 -0.611873075783E+01
 -0.611873075783E+01
  0.000000000000E+00
  0.000000000000E+00
  0.000000000000E+00
  0.000000000000E+00
  0.000000000000E+00
  0.000000000000E+00
  0.000000000000E+00
  0.000000000000E+00
  0.000000000000E+00
  0.000000000000E+00
  0.000000000000E+00
  0.000000000000E+00
  0.000000000000E+00
  0.000000000000E+00
  0.000000000000E+00
  0.000000000000E+00
  0.000000000000E+00
  0.000000000000E+00
  0.000000000000E+00
  0.000000000000E+00
 -0.575371101828E+01
 -0.575371101828E+01
  0.000000000000E+00
  0.000000000000E+00
  0.000000000000E+00
  0.000000000000E+00
  0.000000000000E+00
  0.000000000000E+00
  0.000000000000E+00
  0.000000000000E+00
  0.000000000000E+00
  0.000000000000E+00
  0.000000000000E+00
  0.000000000000E+00
  0.000000000000E+00
  0.000000000000E+00
 -0.523736051085E+01
 -0.523736051085E+01
  0.000000000000E+00
  0.000000000000E+00
  0.000000000000E+00
  0.000000000000E+00
  0.000000000000E+00
  0.000000000000E+00
  0.000000000000E+00
  0.000000000000E+00
  0.000000000000E+00
  0.000000000000E+00
  0.000000000000E+00
  0.000000000000E+00
  0.000000000000E+00
  0.000000000000E+00
 -0.457880992398E+01
 -0.457880992398E+01
  0.000000000000E+00
  0.000000000000E+00
  0.000000000000E+00
  0.000000000000E+00
  0.000000000000E+00
  0.000000000000E+00
  0.000000000000E+00
  0.000000000000E+00
  0.000000000000E+00
  0.000000000000E+00
  0.000000000000E+00
  0.000000000000E+00
 -0.378575986668E+01
 -0.378575986668E+01
  0.000000000000E+00
  0.000000000000E+00
  0.000000000000E+00
  0.000000000000E+00
  0.000000000000E+00
  0.000000000000E+00
 -0.284362857731E+01
 -0.284362857731E+01
  0.000000000000E+00
  0.000000000000E+00
  0.000000000000E+00
  0.000000000000E+00
  0.000000000000E+00
  0.000000000000E+00
 -0.166095206553E+01
 -0.166095206553E+01
  0.000000000000E+00
  0.000000000000E+00
  0.000000000000E+00
  0.000000000000E+00
  0.000000000000E+00
  0.000000000000E+00
  0.000000000000E+00
  0.000000000000E+00
  0.000000000000E+00
  0.000000000000E+00
  0.603041369139E+01
  0.603041369139E+01
  0.616467639878E+01
  0.616467639878E+01
  0.629166746105E+01
  0.629166746105E+01
  0.575371101828E+01
  0.575371101828E+01
  0.523736051085E+01
  0.523736051085E+01
  0.457880992398E+01
  0.457880992398E+01
