# vtk DataFile Version 3.0
MachLine results file. Generated by MachLine, USU AeroLab (c) 2022.
ASCII
DATASET POLYDATA
POINTS                 144 float
  0.312930634121E-04  0.000000000000E+00 -0.193753118501E-20
  0.113539063053E+01  0.000000000000E+00 -0.658087935210E+00
  0.113539063053E+01  0.000000000000E+00  0.658087935210E+00
  0.192378249374E+01  0.192372498306E+01  0.474775100986E-20
  0.305914835645E+01  0.192374081896E+01 -0.658086193634E+00
  0.305914835645E+01  0.192374081896E+01  0.658086193634E+00
  0.423028253315E+01  0.000000000000E+00 -0.108742011765E+01
  0.423028253315E+01  0.000000000000E+00  0.108742011765E+01
  0.547037632114E+01  0.547028701656E+01  0.737247204953E-20
  0.615404028205E+01  0.192375045511E+01 -0.108741647537E+01
  0.615404028205E+01  0.192375045511E+01  0.108741647537E+01
  0.660573385881E+01  0.547031260802E+01 -0.658068469811E+00
  0.660573385881E+01  0.547031260802E+01  0.658068469811E+00
  0.939508564654E+01  0.000000000000E+00 -0.980702541365E+00
  0.939508564654E+01  0.000000000000E+00  0.980702541365E+00
  0.970062414602E+01  0.547032722042E+01 -0.108739780002E+01
  0.970062414602E+01  0.547032722042E+01  0.108739780002E+01
  0.113188445158E+02  0.192375687882E+01 -0.980693094219E+00
  0.113188445158E+02  0.192375687882E+01  0.980693094219E+00
  0.113820643673E+02  0.113819393863E+02 -0.257942736414E-20
  0.125174139439E+02  0.113819753230E+02 -0.658047284009E+00
  0.125174139439E+02  0.113819753230E+02  0.658047284009E+00
  0.145401991734E+02  0.000000000000E+00 -0.479574165270E+00
  0.145401991734E+02  0.000000000000E+00  0.479574165270E+00
  0.148654325708E+02  0.547033565208E+01 -0.980679907908E+00
  0.148654325708E+02  0.547033565208E+01  0.980679907908E+00
  0.156123048447E+02  0.113819959977E+02 -0.108737528443E+01
  0.156123048447E+02  0.113819959977E+02  0.108737528443E+01
  0.164639622288E+02  0.192375787923E+01 -0.479572980793E+00
  0.164639622288E+02  0.192375787923E+01  0.479572980793E+00
  0.176505079470E+02  0.000000000000E+00 -0.144172424756E+00
  0.176505079470E+02  0.000000000000E+00  0.144172424756E+00
  0.189999778925E+02  0.000000000000E+00 -0.165542730925E-05
  0.195742705951E+02  0.192375720641E+01 -0.144166632792E+00
  0.195742705951E+02  0.192375720641E+01  0.144166632792E+00
  0.197562681851E+02  0.197561219516E+02 -0.603609708767E-20
  0.200105551723E+02  0.547033748596E+01 -0.479557181615E+00
  0.200105551723E+02  0.547033748596E+01  0.479557181615E+00
  0.207771191273E+02  0.113820071544E+02 -0.980659764437E+00
  0.207771191273E+02  0.113820071544E+02  0.980659764437E+00
  0.208916146114E+02  0.197561629460E+02 -0.658032293233E+00
  0.208916146114E+02  0.197561629460E+02  0.658032293233E+00
  0.209237410836E+02  0.192377783745E+01 -0.254601661134E-05
  0.231208669354E+02  0.547033723104E+01 -0.144147288307E+00
  0.231208669354E+02  0.547033723104E+01  0.144147288307E+00
  0.239865086400E+02  0.197561881221E+02 -0.108735995859E+01
  0.239865086400E+02  0.197561881221E+02  0.108735995859E+01
  0.244703257500E+02  0.547037144337E+01 -0.420209809024E-05
  0.259222501778E+02  0.113820100762E+02 -0.479534889879E+00
  0.259222501778E+02  0.113820100762E+02  0.479534889879E+00
  0.290325693319E+02  0.113820100595E+02 -0.144123159709E+00
  0.290325693319E+02  0.113820100595E+02  0.144123159709E+00
  0.291513358854E+02  0.197562015750E+02 -0.980641566995E+00
  0.291513358854E+02  0.197562015750E+02  0.980641566995E+00
  0.292438739780E+02  0.292437358852E+02 -0.285003836711E-20
  0.303792302038E+02  0.292437728021E+02 -0.658034298375E+00
  0.303792302038E+02  0.292437728021E+02  0.658034298375E+00
  0.303820150452E+02  0.113820592806E+02 -0.606459828689E-05
  0.334741318570E+02  0.292437979831E+02 -0.108736325854E+01
  0.334741318570E+02  0.292437979831E+02  0.108736325854E+01
  0.342964796805E+02  0.197562051036E+02 -0.479518310694E+00
  0.342964796805E+02  0.197562051036E+02  0.479518310694E+00
  0.374068082499E+02  0.197562052085E+02 -0.144105313513E+00
  0.374068082499E+02  0.197562052085E+02  0.144105313513E+00
  0.376180497188E+02  0.376179427128E+02  0.000000000000E+00
  0.386389740370E+02  0.292438117601E+02 -0.980639078250E+00
  0.386389740370E+02  0.292438117601E+02  0.980639078250E+00
  0.387534178424E+02  0.376179696393E+02 -0.658052759190E+00
  0.387534178424E+02  0.376179696393E+02  0.658052759190E+00
  0.387562492294E+02  0.197562629782E+02 -0.717453034836E-05
  0.418483373371E+02  0.376179903301E+02 -0.108738447037E+01
  0.418483373371E+02  0.376179903301E+02  0.108738447037E+01
  0.435297029672E+02  0.435296308340E+02  0.595490609432E-20
  0.437841353047E+02  0.292438149822E+02 -0.479519620832E+00
  0.437841353047E+02  0.292438149822E+02  0.479519620832E+00
  0.446650848654E+02  0.435296478006E+02 -0.658076458324E+00
  0.446650848654E+02  0.435296478006E+02  0.658076458324E+00
  0.468944715132E+02  0.292438150774E+02 -0.144105707172E+00
  0.468944715132E+02  0.292438150774E+02  0.144105707172E+00
  0.470131928898E+02  0.376180021786E+02 -0.980656468792E+00
  0.470131928898E+02  0.376180021786E+02  0.980656468792E+00
  0.470762711240E+02  0.470762252138E+02  0.284255644459E-20
  0.477600142238E+02  0.435296624425E+02 -0.108741098466E+01
  0.477600142238E+02  0.435296624425E+02  0.108741098466E+01
  0.482116561869E+02  0.470762352010E+02 -0.658095644386E+00
  0.482116561869E+02  0.470762352010E+02  0.658095644386E+00
  0.482439203362E+02  0.292438688182E+02 -0.674948747450E-05
  0.490000098337E+02  0.489999829894E+02  0.352020849666E-20
  0.501354069086E+02  0.489999871344E+02 -0.658111061843E+00
  0.501354069086E+02  0.489999871344E+02  0.658111061843E+00
  0.506007778866E+02  0.494653516704E+02 -0.465360197472E+00
  0.506007778866E+02  0.494653516704E+02  0.465360197472E+00
  0.507935375703E+02  0.496581169850E+02 -0.771258599560E-15
  0.513065943267E+02  0.470762448761E+02 -0.108743228644E+01
  0.513065943267E+02  0.470762448761E+02  0.108743228644E+01
  0.521583703386E+02  0.376180044784E+02 -0.479538356774E+00
  0.521583703386E+02  0.376180044784E+02  0.479538356774E+00
  0.529248840674E+02  0.435296714441E+02 -0.980682430110E+00
  0.529248840674E+02  0.435296714441E+02  0.980682430110E+00
  0.532303491166E+02  0.489999893063E+02 -0.108744779990E+01
  0.532303491166E+02  0.489999893063E+02  0.108744779990E+01
  0.539993229218E+02  0.497689436952E+02 -0.768946532731E+00
  0.539993229218E+02  0.497689436952E+02  0.768946532731E+00
  0.543178430301E+02  0.500874571974E+02 -0.157370130865E-15
  0.552687143289E+02  0.376180044211E+02 -0.144124171041E+00
  0.552687143289E+02  0.376180044211E+02  0.144124171041E+00
  0.564714741318E+02  0.470762515457E+02 -0.980703384050E+00
  0.564714741318E+02  0.470762515457E+02  0.980703384050E+00
  0.566181803863E+02  0.376180447422E+02 -0.512671807591E-05
  0.580700700039E+02  0.435296728856E+02 -0.479561446547E+00
  0.580700700039E+02  0.435296728856E+02  0.479561446547E+00
  0.583952342525E+02  0.489999966035E+02 -0.980715337112E+00
  0.583952342525E+02  0.489999966035E+02  0.980715337112E+00
  0.590887388161E+02  0.496934812578E+02 -0.693469805575E+00
  0.590887388161E+02  0.496934812578E+02  0.693469805575E+00
  0.593759966941E+02  0.499807194883E+02  0.326869302507E-21
  0.611804219244E+02  0.435296725276E+02 -0.144148458102E+00
  0.611804219244E+02  0.435296725276E+02  0.144148458102E+00
  0.616166681578E+02  0.470762525270E+02 -0.479577866536E+00
  0.616166681578E+02  0.470762525270E+02  0.479577866536E+00
  0.625299026009E+02  0.435296982293E+02 -0.330981405380E-05
  0.635404285646E+02  0.489999966685E+02 -0.479587400581E+00
  0.635404285646E+02  0.489999966685E+02  0.479587400581E+00
  0.638795744263E+02  0.493391226712E+02 -0.339121163529E+00
  0.638795744263E+02  0.493391226712E+02  0.339121163529E+00
  0.640200547551E+02  0.494795968058E+02  0.296954520199E-15
  0.647270242582E+02  0.470762518038E+02 -0.144167179154E+00
  0.647270242582E+02  0.470762518038E+02  0.144167179154E+00
  0.660765195290E+02  0.470762667259E+02 -0.196051129310E-05
  0.666507849833E+02  0.489999978860E+02 -0.144179063945E+00
  0.666507849833E+02  0.489999978860E+02  0.144179063945E+00
  0.667527523879E+02  0.491019555434E+02 -0.101954743525E+00
  0.667527523879E+02  0.491019555434E+02  0.101954743525E+00
  0.667949891457E+02  0.491441877800E+02 -0.260467198439E-16
  0.680002814145E+02  0.489999953293E+02  0.164535362579E-20
  0.189999778925E+02  0.000000000000E+00  0.165542730925E-05
  0.209237410836E+02  0.192377783745E+01  0.254601661134E-05
  0.244703257500E+02  0.547037144337E+01  0.420209809024E-05
  0.303820150452E+02  0.113820592806E+02  0.606459828689E-05
  0.387562492294E+02  0.197562629782E+02  0.717453034836E-05
  0.482439203362E+02  0.292438688182E+02  0.674948747450E-05
  0.566181803863E+02  0.376180447422E+02  0.512671807591E-05
  0.625299026009E+02  0.435296982293E+02  0.330981405380E-05
  0.660765195290E+02  0.470762667259E+02  0.196051129310E-05
VERTICES                 144                 288
1                   0
1                   1
1                   2
1                   3
1                   4
1                   5
1                   6
1                   7
1                   8
1                   9
1                  10
1                  11
1                  12
1                  13
1                  14
1                  15
1                  16
1                  17
1                  18
1                  19
1                  20
1                  21
1                  22
1                  23
1                  24
1                  25
1                  26
1                  27
1                  28
1                  29
1                  30
1                  31
1                  32
1                  33
1                  34
1                  35
1                  36
1                  37
1                  38
1                  39
1                  40
1                  41
1                  42
1                  43
1                  44
1                  45
1                  46
1                  47
1                  48
1                  49
1                  50
1                  51
1                  52
1                  53
1                  54
1                  55
1                  56
1                  57
1                  58
1                  59
1                  60
1                  61
1                  62
1                  63
1                  64
1                  65
1                  66
1                  67
1                  68
1                  69
1                  70
1                  71
1                  72
1                  73
1                  74
1                  75
1                  76
1                  77
1                  78
1                  79
1                  80
1                  81
1                  82
1                  83
1                  84
1                  85
1                  86
1                  87
1                  88
1                  89
1                  90
1                  91
1                  92
1                  93
1                  94
1                  95
1                  96
1                  97
1                  98
1                  99
1                 100
1                 101
1                 102
1                 103
1                 104
1                 105
1                 106
1                 107
1                 108
1                 109
1                 110
1                 111
1                 112
1                 113
1                 114
1                 115
1                 116
1                 117
1                 118
1                 119
1                 120
1                 121
1                 122
1                 123
1                 124
1                 125
1                 126
1                 127
1                 128
1                 129
1                 130
1                 131
1                 132
1                 133
1                 134
1                 135
1                 136
1                 137
1                 138
1                 139
1                 140
1                 141
1                 142
1                 143
POINT_DATA                 144
SCALARS phi float 1
LOOKUP_TABLE default
  0.000000000000E+00
 -0.666133814775E-15
  0.000000000000E+00
  0.777156117238E-15
 -0.999200722163E-15
 -0.888178419700E-15
 -0.999200722163E-15
 -0.111022302463E-15
 -0.888178419700E-15
  0.111022302463E-15
 -0.555111512313E-16
  0.666133814775E-15
 -0.222044604925E-15
 -0.111022302463E-15
  0.693889390391E-16
 -0.610622663544E-15
 -0.388578058619E-15
 -0.249800180541E-15
 -0.381639164715E-15
  0.555111512313E-15
  0.666133814775E-15
  0.111022302463E-15
 -0.832667268469E-16
 -0.832667268469E-15
 -0.558580959265E-15
 -0.832667268469E-16
 -0.444089209850E-15
 -0.111022302463E-15
 -0.222044604925E-15
  0.499600361081E-15
  0.222044604925E-15
  0.388578058619E-15
 -0.444089209850E-15
  0.499600361081E-15
  0.555111512313E-15
  0.777156117238E-15
 -0.555111512313E-16
 -0.721644966006E-15
 -0.298372437868E-15
 -0.249800180541E-15
  0.222044604925E-15
  0.333066907388E-15
  0.277555756156E-15
 -0.166533453694E-15
  0.222044604925E-15
 -0.166533453694E-15
 -0.194289029309E-15
  0.222044604925E-15
  0.555111512313E-16
 -0.333066907388E-15
  0.499600361081E-15
  0.721644966006E-15
  0.222044604925E-15
 -0.555111512313E-16
  0.444089209850E-15
  0.888178419700E-15
  0.555111512313E-16
 -0.555111512313E-15
 -0.222044604925E-15
 -0.111022302463E-15
 -0.388578058619E-15
 -0.610622663544E-15
  0.444089209850E-15
 -0.222044604925E-15
  0.111022302463E-15
  0.263677968348E-15
 -0.499600361081E-15
  0.111022302463E-15
 -0.166533453694E-15
  0.610622663544E-15
 -0.111022302463E-15
  0.693889390391E-16
  0.444089209850E-15
 -0.166533453694E-15
  0.222044604925E-15
 -0.999200722163E-15
  0.111022302463E-15
  0.000000000000E+00
 -0.166533453694E-15
  0.166533453694E-15
 -0.222044604925E-15
  0.166533453694E-15
 -0.388578058619E-15
 -0.194289029309E-15
 -0.111022302463E-15
  0.166533453694E-15
 -0.444089209850E-15
  0.000000000000E+00
  0.222044604925E-15
  0.138777878078E-15
 -0.166533453694E-15
  0.138777878078E-15
 -0.555111512313E-16
 -0.333066907388E-15
 -0.225514051877E-15
  0.388578058619E-15
 -0.777156117238E-15
 -0.194289029309E-15
  0.721644966006E-15
  0.111022302463E-15
  0.693889390391E-16
  0.780625564190E-16
  0.555111512313E-16
 -0.138777878078E-16
  0.111022302463E-15
  0.555111512313E-16
  0.111022302463E-15
  0.111022302463E-15
 -0.127675647832E-14
  0.444089209850E-15
  0.000000000000E+00
  0.249800180541E-15
  0.166533453694E-15
 -0.111022302463E-15
  0.555111512313E-16
 -0.111022302463E-15
 -0.777156117238E-15
  0.333066907388E-15
  0.000000000000E+00
 -0.555111512313E-16
 -0.555111512313E-16
  0.277555756156E-15
 -0.222044604925E-15
  0.000000000000E+00
  0.166533453694E-15
 -0.555111512313E-16
 -0.388578058619E-15
  0.000000000000E+00
  0.610622663544E-15
  0.000000000000E+00
  0.000000000000E+00
 -0.555111512313E-16
 -0.277555756156E-15
  0.222044604925E-15
 -0.832667268469E-16
 -0.388578058619E-15
 -0.222044604925E-15
 -0.388578058619E-15
  0.111022302463E-15
 -0.444089209850E-15
 -0.610622663544E-15
  0.183186799063E-14
  0.555111512313E-16
  0.111022302463E-15
SCALARS phi_mu float 1
LOOKUP_TABLE default
  0.619905640117E+00
  0.800112051949E+00
  0.720287733860E+00
  0.787561193537E+00
  0.820257977427E+00
  0.715353512522E+00
  0.707374927638E+00
  0.532203821401E+00
  0.755085429873E+00
  0.601040784687E+00
  0.413284277329E+00
  0.758339175780E+00
  0.649060529955E+00
  0.273736956722E+00
  0.806845596376E-01
  0.489143206262E+00
  0.298613870782E+00
  0.136549434424E+00
 -0.532117582658E-01
  0.680506502455E+00
  0.677510518132E+00
  0.567754770757E+00
 -0.190011673551E+00
 -0.303362201944E+00
  0.219846127893E-01
 -0.164681145236E+00
  0.403319681625E+00
  0.213084974084E+00
 -0.271319233978E+00
 -0.376232101326E+00
 -0.376346207229E+00
 -0.415186691353E+00
 -0.395318496527E+00
 -0.384901047408E+00
 -0.419019664821E+00
  0.632181707405E+00
 -0.318646066101E+00
 -0.420855840145E+00
 -0.395094004705E-01
 -0.224839676737E+00
  0.630357281811E+00
  0.520722964325E+00
 -0.356992031810E+00
 -0.391438024496E+00
 -0.424951240333E+00
  0.361758891176E+00
  0.171874852780E+00
 -0.355477242536E+00
 -0.345113515906E+00
 -0.446655961102E+00
 -0.404682928597E+00
 -0.438029072043E+00
 -0.686596716741E-01
 -0.253577558412E+00
  0.605675268991E+00
  0.604418986452E+00
  0.494890107626E+00
 -0.364984186313E+00
  0.337554885967E+00
  0.147875453556E+00
 -0.363752214322E+00
 -0.465098126340E+00
 -0.418722207344E+00
 -0.452010453712E+00
  0.580802924962E+00
 -0.899075403176E-01
 -0.274601487556E+00
  0.578895256254E+00
  0.469525381769E+00
 -0.377386526217E+00
  0.310296966131E+00
  0.120960197861E+00
  0.544818011314E+00
 -0.381987557701E+00
 -0.483206273523E+00
  0.539739837052E+00
  0.430806070179E+00
 -0.434841313447E+00
 -0.468087941441E+00
 -0.118918162369E+00
 -0.303123527646E+00
  0.487682512195E+00
  0.262499731678E+00
  0.743786181031E-01
  0.471317424487E+00
  0.363945784157E+00
 -0.392453719419E+00
  0.377067805711E+00
  0.331625014438E+00
  0.238496372353E+00
  0.262239807152E+00
  0.201646492124E+00
  0.212819436625E+00
  0.174371559490E+00
 -0.718797974926E-02
 -0.407288567794E+00
 -0.508155211966E+00
 -0.167455204311E+00
 -0.349327306904E+00
  0.734372533157E-01
 -0.775386098505E-01
  0.809381278834E-02
 -0.863462270865E-01
 -0.541178358970E-01
 -0.453540593501E+00
 -0.486665842572E+00
 -0.208207179940E+00
 -0.379488021163E+00
 -0.407325636098E+00
 -0.423624726941E+00
 -0.522912124420E+00
 -0.219155828828E+00
 -0.357710794854E+00
 -0.239825973909E+00
 -0.325386734413E+00
 -0.282560902111E+00
 -0.443315726612E+00
 -0.475973121350E+00
 -0.387789887127E+00
 -0.481647520259E+00
 -0.386463656632E+00
 -0.317801871343E+00
 -0.389414464381E+00
 -0.310530455377E+00
 -0.354813339360E+00
 -0.325365615621E+00
 -0.372826184742E+00
 -0.404187733006E+00
 -0.308447285445E+00
 -0.263612002344E+00
 -0.285809019874E+00
 -0.257588673315E+00
 -0.271353349421E+00
 -0.260667837780E+00
 -0.195110717597E+00
 -0.395319268662E+00
 -0.356992910085E+00
 -0.355478656308E+00
 -0.364986197287E+00
 -0.377388890017E+00
 -0.392455945481E+00
 -0.407327337050E+00
 -0.386464759588E+00
 -0.308447935186E+00
SCALARS phi_sigma float 1
LOOKUP_TABLE default
 -0.619905640117E+00
 -0.800112051949E+00
 -0.720287733860E+00
 -0.787561193537E+00
 -0.820257977427E+00
 -0.715353512522E+00
 -0.707374927638E+00
 -0.532203821401E+00
 -0.755085429873E+00
 -0.601040784687E+00
 -0.413284277329E+00
 -0.758339175780E+00
 -0.649060529955E+00
 -0.273736956722E+00
 -0.806845596376E-01
 -0.489143206262E+00
 -0.298613870782E+00
 -0.136549434424E+00
  0.532117582658E-01
 -0.680506502455E+00
 -0.677510518132E+00
 -0.567754770757E+00
  0.190011673551E+00
  0.303362201944E+00
 -0.219846127893E-01
  0.164681145236E+00
 -0.403319681625E+00
 -0.213084974084E+00
  0.271319233978E+00
  0.376232101326E+00
  0.376346207229E+00
  0.415186691353E+00
  0.395318496527E+00
  0.384901047408E+00
  0.419019664821E+00
 -0.632181707405E+00
  0.318646066101E+00
  0.420855840145E+00
  0.395094004705E-01
  0.224839676737E+00
 -0.630357281811E+00
 -0.520722964325E+00
  0.356992031810E+00
  0.391438024496E+00
  0.424951240333E+00
 -0.361758891176E+00
 -0.171874852780E+00
  0.355477242536E+00
  0.345113515906E+00
  0.446655961102E+00
  0.404682928597E+00
  0.438029072043E+00
  0.686596716741E-01
  0.253577558412E+00
 -0.605675268991E+00
 -0.604418986452E+00
 -0.494890107626E+00
  0.364984186313E+00
 -0.337554885967E+00
 -0.147875453556E+00
  0.363752214322E+00
  0.465098126340E+00
  0.418722207344E+00
  0.452010453712E+00
 -0.580802924962E+00
  0.899075403177E-01
  0.274601487556E+00
 -0.578895256254E+00
 -0.469525381769E+00
  0.377386526217E+00
 -0.310296966131E+00
 -0.120960197861E+00
 -0.544818011314E+00
  0.381987557701E+00
  0.483206273523E+00
 -0.539739837052E+00
 -0.430806070179E+00
  0.434841313447E+00
  0.468087941441E+00
  0.118918162369E+00
  0.303123527646E+00
 -0.487682512195E+00
 -0.262499731678E+00
 -0.743786181031E-01
 -0.471317424487E+00
 -0.363945784157E+00
  0.392453719419E+00
 -0.377067805711E+00
 -0.331625014438E+00
 -0.238496372353E+00
 -0.262239807152E+00
 -0.201646492124E+00
 -0.212819436625E+00
 -0.174371559490E+00
  0.718797974926E-02
  0.407288567794E+00
  0.508155211966E+00
  0.167455204311E+00
  0.349327306904E+00
 -0.734372533157E-01
  0.775386098505E-01
 -0.809381278834E-02
  0.863462270865E-01
  0.541178358970E-01
  0.453540593501E+00
  0.486665842572E+00
  0.208207179940E+00
  0.379488021163E+00
  0.407325636098E+00
  0.423624726941E+00
  0.522912124420E+00
  0.219155828828E+00
  0.357710794854E+00
  0.239825973909E+00
  0.325386734413E+00
  0.282560902111E+00
  0.443315726612E+00
  0.475973121350E+00
  0.387789887127E+00
  0.481647520259E+00
  0.386463656632E+00
  0.317801871343E+00
  0.389414464381E+00
  0.310530455377E+00
  0.354813339360E+00
  0.325365615621E+00
  0.372826184742E+00
  0.404187733006E+00
  0.308447285445E+00
  0.263612002344E+00
  0.285809019874E+00
  0.257588673315E+00
  0.271353349421E+00
  0.260667837780E+00
  0.195110717597E+00
  0.395319268662E+00
  0.356992910085E+00
  0.355478656308E+00
  0.364986197287E+00
  0.377388890017E+00
  0.392455945481E+00
  0.407327337050E+00
  0.386464759588E+00
  0.308447935186E+00
