# vtk DataFile Version 3.0
MachLine results file. Generated by MachLine, USU AeroLab (c) 2022.
ASCII
DATASET POLYDATA
POINTS                 482 float
  0.236813288641E+00  0.000000000000E+00  0.686565968816E-16
  0.624814081843E+00  0.000000000000E+00 -0.216428737068E+00
  0.624814081843E+00  0.000000000000E+00  0.216428737068E+00
  0.936286588147E+00  0.579506026584E+00 -0.561895002135E-17
  0.134949075789E+01  0.639768029252E+00 -0.218865761583E+00
  0.134949075789E+01  0.639768029252E+00  0.218865761583E+00
  0.166333682055E+01  0.000000000000E+00 -0.417572791145E+00
  0.166333682055E+01  0.000000000000E+00  0.417572791145E+00
  0.201092498640E+01  0.156702214196E+01 -0.279641648794E-16
  0.240530328697E+01  0.164611001899E+01 -0.173337958184E+00
  0.240530328697E+01  0.164611001899E+01  0.173337958184E+00
  0.240761478271E+01  0.684598059678E+00 -0.420944840504E+00
  0.240761478271E+01  0.684598059678E+00  0.420944840504E+00
  0.344986477255E+01  0.289573058939E+01  0.174541604789E-16
  0.345037803883E+01  0.170398970512E+01 -0.366807975171E+00
  0.345037803883E+01  0.170398970512E+01  0.366807975171E+00
  0.347800745605E+01  0.000000000000E+00 -0.567847677909E+00
  0.347800745605E+01  0.000000000000E+00  0.567847677909E+00
  0.382075010340E+01  0.299831190111E+01 -0.115133872484E+00
  0.382075010340E+01  0.299831190111E+01  0.115133872484E+00
  0.422430015314E+01  0.716137624114E+00 -0.571459768044E+00
  0.422430015314E+01  0.716137624114E+00  0.571459768044E+00
  0.484917759257E+01  0.307283909445E+01 -0.297433607780E+00
  0.484917759257E+01  0.307283909445E+01  0.297433607780E+00
  0.534018405594E+01  0.465304866619E+01 -0.173147533833E-15
  0.526047475105E+01  0.174211864828E+01 -0.516294363350E+00
  0.526047475105E+01  0.174211864828E+01  0.516294363350E+00
  0.568323099534E+01  0.478346862540E+01 -0.439725145123E-01
  0.568323099534E+01  0.478346862540E+01  0.439725145123E-01
  0.612417134702E+01  0.000000000000E+00 -0.595279552601E+00
  0.612417134702E+01  0.000000000000E+00  0.595279552601E+00
  0.669135356720E+01  0.487830145179E+01 -0.212393034855E+00
  0.669135356720E+01  0.487830145179E+01  0.212393034855E+00
  0.665084364825E+01  0.311939966149E+01 -0.445466940557E+00
  0.665084364825E+01  0.311939966149E+01  0.445466940557E+00
  0.686955818900E+01  0.759312873477E+00 -0.590921055075E+00
  0.686955818900E+01  0.759312873477E+00  0.590921055075E+00
  0.776249866534E+01  0.692475051734E+01  0.171518464496E-15
  0.807478710201E+01  0.708592944887E+01  0.380216172375E-01
  0.807478710201E+01  0.708592944887E+01 -0.380216172375E-01
  0.790049533303E+01  0.179053183560E+01 -0.535989223717E+00
  0.790049533303E+01  0.179053183560E+01  0.535989223717E+00
  0.848270467544E+01  0.493517742996E+01 -0.358426458783E+00
  0.848270467544E+01  0.493517742996E+01  0.358426458783E+00
  0.905956171061E+01  0.720411070487E+01 -0.114183193516E+00
  0.905956171061E+01  0.720411070487E+01  0.114183193516E+00
  0.928414007832E+01  0.317453791780E+01 -0.465426284732E+00
  0.928414007832E+01  0.317453791780E+01  0.465426284732E+00
  0.936918949172E+01  0.000000000000E+00 -0.545743690960E+00
  0.936918949172E+01  0.000000000000E+00  0.545743690960E+00
  0.101159225602E+02  0.794960532146E+00 -0.454736260094E+00
  0.101159225602E+02  0.794960532146E+00  0.454736260094E+00
  0.107698779598E+02  0.977579734077E+01 -0.266148844492E-15
  0.110513600465E+02  0.996778311833E+01  0.125191640434E+00
  0.110513600465E+02  0.996778311833E+01 -0.125191640434E+00
  0.108390257876E+02  0.727287612994E+01 -0.257653312483E+00
  0.108390257876E+02  0.727287612994E+01  0.257653312483E+00
  0.111077391158E+02  0.499858060283E+01 -0.378608094034E+00
  0.111077391158E+02  0.499858060283E+01  0.378608094034E+00
  0.111445459163E+02  0.182849472198E+01 -0.419868581828E+00
  0.111445459163E+02  0.182849472198E+01  0.419868581828E+00
  0.120113534448E+02  0.101107474954E+02 -0.959230672239E-02
  0.120113534448E+02  0.101107474954E+02  0.959230672239E-02
  0.125250361739E+02  0.321565675889E+01 -0.372497616769E+00
  0.125250361739E+02  0.321565675889E+01  0.372497616769E+00
  0.126243136587E+02  0.000000000000E+00 -0.233171846172E+00
  0.126243136587E+02  0.000000000000E+00  0.233171846172E+00
  0.133819915766E+02  0.800835563401E+00 -0.246449036529E+00
  0.133819915766E+02  0.800835563401E+00  0.246449036529E+00
  0.134544920274E+02  0.734584847698E+01 -0.277940113121E+00
  0.134544920274E+02  0.734584847698E+01  0.277940113121E+00
  0.137781778782E+02  0.101921535121E+02 -0.150102654710E+00
  0.137781778782E+02  0.101921535121E+02  0.150102654710E+00
  0.143607290970E+02  0.132235146632E+02  0.358200537065E-15
  0.146155825426E+02  0.134421291046E+02  0.207904533946E+00
  0.146155825426E+02  0.134421291046E+02 -0.207904533946E+00
  0.143444079225E+02  0.504392766285E+01 -0.309313034721E+00
  0.143444079225E+02  0.504392766285E+01  0.309313034721E+00
  0.144109693642E+02  0.183401626208E+01 -0.225306739425E+00
  0.144109693642E+02  0.183401626208E+01  0.225306739425E+00
  0.153052613066E+02  0.000000000000E+00 -0.328042146203E-01
  0.153052613066E+02  0.000000000000E+00  0.328042146203E-01
  0.155520869150E+02  0.136085835290E+02  0.897721388398E-01
  0.155520869150E+02  0.136085835290E+02 -0.897721388398E-01
  0.157913137049E+02  0.322132611731E+01 -0.190270033220E+00
  0.157913137049E+02  0.322132611731E+01  0.190270033220E+00
  0.160648925436E+02  0.794659927807E+00 -0.502216371963E-01
  0.160648925436E+02  0.794659927807E+00  0.502216371963E-01
  0.163834337554E+02  0.102753390791E+02 -0.170340803960E+00
  0.163834337554E+02  0.102753390791E+02  0.170340803960E+00
  0.166857394972E+02  0.739662069831E+01 -0.228636182819E+00
  0.166857394972E+02  0.739662069831E+01  0.228636182819E+00
  0.170930631623E+02  0.182864877122E+01 -0.230723664070E-01
  0.170930631623E+02  0.182864877122E+01  0.230723664070E-01
  0.171723477555E+02  0.000000000000E+00  0.680462145376E-01
  0.171723477555E+02  0.000000000000E+00 -0.680462145376E-01
  0.173069204312E+02  0.137019833079E+02 -0.477608182868E-01
  0.173069204312E+02  0.137019833079E+02  0.477608182868E-01
  0.176096460679E+02  0.505063830948E+01 -0.135052453148E+00
  0.176096460679E+02  0.505063830948E+01  0.135052453148E+00
  0.184540795969E+02  0.172099332601E+02  0.254723380449E-15
  0.179308784442E+02  0.785350094203E+00  0.626997710838E-01
  0.179308784442E+02  0.785350094203E+00 -0.626997710838E-01
  0.186912126312E+02  0.174462690303E+02  0.273695681491E+00
  0.186912126312E+02  0.174462690303E+02 -0.273695681491E+00
  0.183249181351E+02  0.000000000000E+00  0.118153062387E+00
  0.183249181351E+02  0.000000000000E+00 -0.118153062387E+00
  0.184720186926E+02  0.321734839001E+01  0.223902251239E-01
  0.184720186926E+02  0.321734839001E+01 -0.223902251239E-01
  0.189576725578E+02  0.182071733764E+01  0.102578694882E+00
  0.189576725578E+02  0.182071733764E+01 -0.102578694882E+00
  0.188391380017E+02  0.129494027695E-02 -0.282518883299E-01
  0.190812628765E+02  0.779575073234E+00  0.132909556662E+00
  0.190812628765E+02  0.779575073234E+00 -0.132909556662E+00
  0.196090470060E+02  0.176313934661E+02  0.168873366163E+00
  0.196090470060E+02  0.176313934661E+02 -0.168873366163E+00
  0.196083004081E+02  0.103324949922E+02 -0.134101768364E+00
  0.196083004081E+02  0.103324949922E+02  0.134101768364E+00
  0.196157783120E+02  0.900019067971E+00 -0.151596691548E-01
  0.199024602820E+02  0.137948877555E+02 -0.678259770345E-01
  0.199024602820E+02  0.137948877555E+02  0.678259770345E-01
  0.199489762945E+02  0.740533366320E+01 -0.577859476918E-01
  0.199489762945E+02  0.740533366320E+01  0.577859476918E-01
  0.201067723114E+02  0.181622699691E+01  0.185052878217E+00
  0.201067723114E+02  0.181622699691E+01 -0.185052878217E+00
  0.202885132768E+02  0.504850029612E+01  0.907700212596E-01
  0.202885132768E+02  0.504850029612E+01 -0.907700212596E-01
  0.203349619247E+02  0.321108312517E+01  0.163389223979E+00
  0.203349619247E+02  0.321108312517E+01 -0.163389223979E+00
  0.206041595611E+02  0.197379950391E+01 -0.197146145061E-01
  0.213543437461E+02  0.177343329519E+02  0.338022472306E-01
  0.213543437461E+02  0.177343329519E+02 -0.338022472306E-01
  0.214831075765E+02  0.320754691663E+01  0.255166254059E+00
  0.214831075765E+02  0.320754691663E+01 -0.255166254059E+00
  0.219333557261E+02  0.341226066736E+01 -0.255424664644E-01
  0.221500231178E+02  0.504367034355E+01  0.244899927977E+00
  0.221500231178E+02  0.504367034355E+01 -0.244899927977E+00
  0.228810637673E+02  0.215867975191E+02  0.611503964226E-16
  0.226259884161E+02  0.740505455059E+01  0.179783442099E+00
  0.226259884161E+02  0.740505455059E+01 -0.179783442099E+00
  0.231130862555E+02  0.218282457318E+02  0.310411856421E+00
  0.231130862555E+02  0.218282457318E+02 -0.310411856421E+00
  0.228690046211E+02  0.103437443612E+02  0.346636415255E-01
  0.228690046211E+02  0.103437443612E+02 -0.346636415255E-01
  0.231207299943E+02  0.138586444364E+02 -0.366729847416E-01
  0.231207299943E+02  0.138586444364E+02  0.366729847416E-01
  0.232975862701E+02  0.504071661379E+01  0.342632245164E+00
  0.232975862701E+02  0.504071661379E+01 -0.342632245164E+00
  0.240205100458E+02  0.220237825143E+02  0.213046333828E+00
  0.240205100458E+02  0.220237825143E+02 -0.213046333828E+00
  0.239421415810E+02  0.178349832500E+02  0.139455486876E-01
  0.239421415810E+02  0.178349832500E+02 -0.139455486876E-01
  0.236910036873E+02  0.530226143951E+01 -0.326018791185E-01
  0.244865050967E+02  0.740121775905E+01  0.342870631782E+00
  0.244865050967E+02  0.740121775905E+01 -0.342870631782E+00
  0.255444234464E+02  0.103450604481E+02  0.280423095882E+00
  0.255444234464E+02  0.103450604481E+02 -0.280423095882E+00
  0.257604847986E+02  0.221320459064E+02  0.793855525672E-01
  0.257604847986E+02  0.221320459064E+02 -0.793855525672E-01
  0.256337481291E+02  0.739858606553E+01  0.444224248897E+00
  0.256337481291E+02  0.739858606553E+01 -0.444224248897E+00
[...]
POINT_DATA                 482
SCALARS BC_type int 1
LOOKUP_TABLE default
           1
           1
           1
           1
           1
           1
           1
           1
           1
           1
           1
           1
           1
           1
           1
           1
           1
           1
           1
           1
           1
           1
           1
           1
           1
           1
           1
           1
           1
           1
           1
           1
           1
           1
           1
           1
           1
           1
           1
           1
           1
           1
           1
           1
           1
           1
           1
           1
           1
           1
           1
           1
           1
           1
           1
           1
           1
           1
           1
           1
           1
           1
           1
           1
           1
           1
           1
           1
           1
           1
           1
           1
           1
           1
           1
           1
           1
           1
           1
           1
           1
           1
           1
           1
           1
           1
           1
           1
           1
           1
           1
           1
           1
           1
           1
           1
           1
           1
           1
           1
           1
           1
           1
           1
           1
           1
           1
           1
           1
           1
           1
           1
           1
           1
           1
           1
           1
           1
           1
           1
           1
           1
           1
           1
           1
           1
           1
           1
           1
           1
           1
           1
           1
           1
           1
           1
           1
           1
           1
           1
           1
           1
           1
           1
           1
           1
           1
           1
           1
           1
           1
           1
           1
           1
           1
           1
           1
           1
           1
           1
           1
           1
           1
           1
           1
           1
           1
           1
           1
           1
           1
           1
           1
           1
           1
           1
           1
           1
           1
           1
           1
           1
           1
           1
           1
           1
           1
           1
           1
           1
           1
           1
           1
           1
           1
           1
           1
           1
           1
           1
           1
           1
           1
           1
           1
           1
           1
           1
           1
           1
           1
           1
           1
           1
           1
           1
           1
           1
           1
           1
           1
           1
           1
           1
           1
           1
           1
           1
           1
           1
           1
           1
           1
           1
           1
           1
           1
           1
           1
           1
           1
           1
           1
           1
           1
           1
           1
           1
           1
           1
           1
           1
           1
           1
           1
           1
           1
           1
           1
           1
           1
           1
           1
           1
           1
           1
           1
           1
           1
           1
           1
           1
           1
           1
           1
           1
           1
           1
           1
           1
           1
           1
           1
           1
           1
           1
           1
           1
           1
           1
           1
           1
           1
           1
           1
           1
           1
           1
           1
           1
           1
           1
           1
           1
           1
           1
           1
           1
           1
           1
           1
           1
           1
           1
           1
           1
           1
           1
           1
           1
           1
           1
           1
           1
           1
           1
           1
           1
           1
           1
           1
           1
           1
           1
           1
           1
           1
           1
           1
           1
           1
           1
           1
           1
           1
           1
           1
           1
           1
           1
           1
           1
           1
           1
           1
           1
           1
           1
           1
           1
           1
           1
           1
           1
           1
           1
           1
           1
           1
           1
           1
           1
           1
           1
           1
           1
           1
           1
           1
           1
           1
           1
           1
           1
           1
           1
           1
           1
           1
           1
           1
           1
           1
           1
           1
           1
           1
           1
           1
           1
           1
           1
           1
           1
           1
           1
           1
           1
           1
           1
           1
           1
           1
           1
           1
           1
           1
           1
           1
           1
           1
           1
           1
           1
           1
           1
           1
           1
           1
           1
           1
           1
           1
           1
           1
           1
           1
           1
           1
           1
           1
           1
           1
           1
           1
           1
           1
           1
           1
           1
           1
           1
           1
           1
           1
           1
           1
           1
           1
           1
           1
           1
           1
           1
           1
           1
           1
           1
           1
           1
           1
           1
           1
           1
           1
           1
           1
           1
           1
           1
           1
           1
SCALARS residual float 1
LOOKUP_TABLE default
 -0.943689570931E-13
  0.408562073062E-13
  0.126565424807E-13
  0.971778213454E-12
 -0.269007038867E-12
 -0.253241871917E-12
 -0.740518757425E-13
 -0.817124146124E-13
 -0.353495011041E-11
  0.150668366672E-11
  0.149624757029E-11
  0.299982261254E-12
  0.274114064780E-12
  0.135151889680E-10
 -0.869637695189E-12
 -0.856648085801E-12
  0.651700915455E-13
  0.588418203051E-13
 -0.678812561716E-11
 -0.675459688182E-11
 -0.957012247227E-13
 -0.590638649101E-13
  0.298139291033E-11
  0.294808621959E-11
 -0.431671365320E-10
  0.174416037169E-12
  0.187960758069E-12
  0.245535813903E-10
  0.243272069156E-10
 -0.236477504245E-13
  0.927036225562E-14
 -0.889899265388E-11
 -0.867084182232E-11
 -0.526800825185E-12
 -0.393574062230E-12
  0.878186412478E-13
  0.747735207085E-13
  0.767786945133E-10
 -0.410530498485E-10
 -0.414954737238E-10
 -0.108246744901E-12
  0.170419234280E-13
  0.177557968328E-11
  0.155697676973E-11
  0.121450627333E-10
  0.120016219185E-10
  0.590638649101E-13
  0.201200167638E-12
 -0.121014309684E-13
  0.469485561538E-13
 -0.106553654788E-12
  0.109093289957E-12
 -0.168378977428E-09
  0.971713820519E-10
  0.975874936415E-10
 -0.442990089056E-11
 -0.740019157064E-12
 -0.873079386565E-12
 -0.278388423425E-13
 -0.176428316401E-12
  0.180822370965E-12
  0.112029274746E-10
 -0.551000356452E-10
 -0.330367677659E-12
  0.364687446908E-12
 -0.139582789771E-12
  0.162092561595E-12
 -0.428351798476E-12
  0.448058257163E-12
  0.145661260831E-11
  0.229843921673E-12
  0.255317433862E-10
 -0.123080989844E-10
 -0.339139827332E-11
  0.697286672846E-11
 -0.590794080324E-11
 -0.526252652566E-12
  0.678609946014E-12
 -0.741129380089E-12
  0.753452855662E-12
 -0.312944115066E-11
  0.315975023923E-11
 -0.318804982413E-10
  0.377877729107E-10
 -0.113831166715E-11
  0.114169784737E-11
 -0.386579657174E-11
  0.387728738005E-11
 -0.252612930574E-10
  0.215788498181E-10
 -0.225866547687E-11
  0.205220562766E-11
 -0.219787521516E-10
  0.219725349027E-10
  0.569433389330E-12
 -0.559829960167E-12
 -0.683275991342E-09
  0.680430212174E-09
 -0.157390767086E-11
  0.159672275402E-11
 -0.672712996419E-10
  0.166910929522E-11
 -0.164979141459E-11
  0.411907175035E-10
  0.378098663489E-10
  0.696109836440E-13
 -0.753286322208E-13
  0.260924615247E-11
 -0.258382204521E-11
  0.123406840302E-11
 -0.119881882199E-11
  0.485167461761E-12
 -0.553446177776E-12
 -0.773625608019E-11
 -0.975597380659E-11
  0.271709044153E-11
 -0.205263583908E-11
 -0.437473945958E-10
  0.186938547975E-09
 -0.176136882857E-11
  0.173927539038E-11
 -0.382804898891E-12
  0.389632770492E-12
  0.311084491500E-12
 -0.297373237146E-12
 -0.110633724404E-12
  0.136279876273E-12
  0.155210289066E-10
 -0.192971194579E-10
  0.289416268728E-10
 -0.734967642302E-13
 -0.329425375867E-11
 -0.101751940207E-12
  0.116906484493E-12
 -0.115726983552E-09
  0.511757303201E-12
  0.708074709976E-10
  0.715661974127E-10
 -0.126269550371E-10
  0.125802701589E-10
  0.382228082518E-09
 -0.382434833801E-09
  0.259514632006E-12
 -0.284994250421E-12
 -0.181728521120E-10
 -0.175064407415E-10
 -0.946429046245E-11
  0.670406785641E-11
 -0.118954845973E-11
 -0.132283073384E-12
  0.148325796090E-12
 -0.122296617278E-11
  0.124872334695E-11
  0.133683619730E-10
  0.508371122976E-12
 -0.568878277818E-12
 -0.178068670920E-11
 -0.645261621912E-11
  0.646210862598E-11
 -0.314202219798E-09
 -0.569985725285E-11
  0.627758955929E-11
  0.208920436506E-09
 -0.106692432666E-12
  0.130562227696E-12
 -0.757490736802E-10
 -0.750429718366E-10
 -0.953305490103E-11
  0.449276726933E-11
  0.761668506044E-12
 -0.848210390814E-12
 -0.537958566582E-12
  0.557720536420E-12
 -0.294292368253E-11
  0.323272519864E-10
  0.439036029753E-10
 -0.186078930042E-11
  0.176397785268E-11
 -0.186684001591E-12
  0.201061389760E-12
 -0.475258721266E-11
  0.588259996270E-11
  0.462426985592E-09
  0.465009031281E-09
  0.978273018148E-12
 -0.106914477271E-11
 -0.185580384393E-09
 -0.182425963224E-09
 -0.483013629093E-11
 -0.225997137671E-10
  0.241419384484E-11
  0.325850457727E-13
 -0.650590692430E-13
  0.604535865811E-10
  0.102772068633E-09
 -0.196914706763E-11
 -0.258459920133E-12
  0.204447569985E-12
 -0.120682086546E-08
  0.836266611515E-09
  0.842987568639E-09
 -0.706301683806E-11
  0.114278864149E-10
  0.154948276432E-11
 -0.145300438348E-11
 -0.333956751142E-09
 -0.316162818148E-09
 -0.866384741727E-11
 -0.566995617124E-10
  0.136344269208E-10
 -0.137223565844E-12
 -0.101030295241E-13
  0.186444804040E-09
  0.511090614275E-10
 -0.165153279941E-08
  0.114899578740E-08
 -0.477023975876E-11
  0.403638233948E-11
  0.221489493413E-13
 -0.159761093244E-12
 -0.483166118226E-09
 -0.414656586845E-09
 -0.338062633443E-10
  0.427505530975E-10
  0.251876297597E-11
 -0.193711713337E-11
 -0.150141565847E-10
  0.423196248878E-09
 -0.480468602404E-09
 -0.130331612169E-08
 -0.238697950294E-13
 -0.334343663866E-12
  0.876193229082E-09
  0.904293528947E-09
  0.205687078481E-09
  0.841334224511E-10
 -0.343205130982E-09
 -0.151391676972E-10
  0.136342048762E-10
 -0.454913884340E-12
  0.117295062552E-12
  0.132814537146E-09
 -0.732137683812E-10
 -0.143124956331E-09
 -0.145826850595E-09
  0.158172280829E-09
  0.161007110422E-10
 -0.100370631945E-09
  0.875157724067E-10
  0.175968684069E-10
  0.580252512705E-11
 -0.459193794100E-11
  0.558914581283E-10
  0.588473714203E-11
 -0.294383406541E-10
  0.440146807890E-10
 -0.260241828087E-10
 -0.749483808349E-10
  0.874411654195E-12
 -0.142952316651E-11
 -0.365680818959E-10
  0.689275303500E-10
  0.105395248085E-09
  0.659018395410E-10
  0.621278861690E-10
  0.647197295756E-10
  0.867970903484E-10
 -0.343868093722E-10
 -0.529868371402E-10
  0.508408315447E-10
  0.372497310774E-09
 -0.359113905279E-09
  0.136550215579E-10
  0.152355905669E-11
 -0.182187598341E-11
  0.894778695582E-11
 -0.419362877757E-10
 -0.587582760225E-10
 -0.201790029131E-09
  0.783351161715E-11
 -0.136397448891E-09
 -0.344734130131E-09
 -0.919594955739E-10
 -0.611519168636E-10
  0.391287002799E-11
 -0.378952424995E-11
  0.127932386906E-09
  0.107860609333E-09
 -0.169456171317E-09
 -0.141944456189E-09
 -0.196212490700E-10
  0.205911454554E-09
  0.156069768220E-09
  0.147380663229E-09
 -0.111746945031E-09
 -0.569111389959E-10
 -0.290321808261E-09
 -0.191193172405E-10
 -0.128254074028E-10
  0.128976829217E-10
  0.422439916381E-09
  0.217051654428E-10
  0.324460042167E-09
  0.773000358167E-09
 -0.686211309997E-09
 -0.313226000692E-09
  0.193938753945E-09
 -0.204947447902E-09
  0.778168474103E-09
 -0.737116118144E-09
 -0.622736612277E-09
  0.566086566511E-09
 -0.277160794315E-09
  0.277719403030E-09
 -0.267056765590E-09
 -0.157816640312E-08
  0.566995068951E-09
  0.865744448353E-09
 -0.189265270123E-10
  0.191314186715E-10
 -0.118965549911E-08
  0.196826367878E-08
  0.355501590665E-08
 -0.667351194271E-09
 -0.476587718595E-08
 -0.128375254697E-08
 -0.172947615257E-08
 -0.335855573907E-08
  0.468066323547E-08
  0.299093308453E-08
  0.278868650394E-09
 -0.900792773706E-10
 -0.341573297685E-08
  0.542815237203E-10
 -0.532459076830E-10
 -0.931310584207E-11
  0.110126907593E-10
 -0.178701331510E-09
  0.163479180193E-08
 -0.165506003347E-08
  0.502106717315E-08
  0.101907104977E-07
 -0.826935515896E-08
 -0.255616863509E-07
 -0.603399885613E-09
 -0.103084563108E-08
  0.102875181984E-08
  0.320366081441E-07
  0.104671682433E-07
 -0.225311735103E-07
 -0.109111109037E-09
 -0.139161382418E-07
  0.533473479281E-08
  0.651145329322E-08
  0.550603640459E-08
  0.508809766542E-08
  0.730969174079E-09
 -0.606512395862E-09
 -0.255959253792E-09
  0.245519660158E-09
 -0.194990634750E-09
  0.189856241839E-09
 -0.273843069332E-07
 -0.270510919220E-07
  0.536094779680E-09
  0.132021275634E-06
  0.127084648471E-06
  0.539778610698E-09
 -0.110598130654E-08
 -0.220028479214E-06
 -0.211622899760E-06
 -0.387063159302E-09
  0.393837795709E-09
  0.136432000253E-06
  0.130623501349E-06
  0.105023613417E-06
  0.106264589184E-06
 -0.136435973630E-09
 -0.262258252059E-06
  0.242913211768E-08
 -0.440561753745E-09
  0.128004196132E-08
 -0.127534943717E-08
 -0.422755425111E-08
 -0.143731571089E-08
  0.309083203476E-09
 -0.335665101270E-08
  0.318838455637E-08
  0.125754517910E-08
 -0.127657445725E-08
  0.113168203142E-07
 -0.170333401828E-07
  0.104042248705E-07
  0.451071439089E-07
 -0.335057642187E-07
 -0.268271653781E-07
 -0.317533710437E-08
 -0.397944953101E-07
 -0.615396916759E-08
  0.614625422779E-08
  0.199821361957E-06
 -0.199761660880E-06
  0.414440763929E-07
  0.555049034512E-08
 -0.554360901628E-08
  0.254764564445E-07
 -0.262568858322E-07
  0.190155462487E-07
 -0.190045346127E-07
  0.278196414238E-07
 -0.159831832769E-07
 -0.582693393536E-09
  0.617644380085E-09
 -0.403264754922E-08
 -0.958273882468E-08
 -0.131838667761E-07
  0.831414687097E-08
 -0.102442331840E-07
  0.122086124543E-08
 -0.355833326970E-06
 -0.542571448325E-07
  0.541676706822E-07
 -0.273185360444E-07
  0.273127086503E-07
  0.630294189063E-07
 -0.632429041914E-07
  0.143084870247E-05
 -0.682667194440E-07
  0.688518935754E-07
  0.220443167609E-07
 -0.215873211529E-07
 -0.312496144517E-07
  0.312240113209E-07
 -0.886567819158E-09
  0.618622802984E-08
 -0.624173868147E-08
  0.225850547708E-07
 -0.226293259409E-07
  0.367733685169E-07
 -0.368612864121E-07
 -0.177386127453E-07
  0.176797383955E-07
  0.714237399779E-08
  0.161509305929E-09
 -0.113087317288E-10
 -0.490163465372E-12
  0.438012959236E-10
 -0.154803947439E-10
  0.333683081166E-11
  0.118965948204E-11
  0.173411285331E-11
  0.289740453852E-11
  0.479438710954E-11
  0.150416901157E-10
  0.295193869349E-10
  0.191047178077E-10
  0.178706716092E-09
 -0.536582445143E-09
  0.422786278209E-08
 -0.414434480622E-07
  0.355832377508E-06
 -0.143084658594E-05
  0.180188795940E-05
  0.553668222381E-12
 -0.185738632807E-09
  0.830446822420E-13
 -0.491773288758E-12
  0.664834853836E-11
  0.207504013972E-09
 -0.671790401086E-09
  0.172273306731E-11
  0.116726994737E-08
 -0.283520706912E-09
  0.398846511374E-10
  0.494096152881E-09
  0.108234199381E-09
  0.183908721585E-09
  0.576589863077E-07
  0.167322614097E-07
 -0.180188859072E-05
 -0.710987571595E-08
  0.864719407190E-11
