# vtk DataFile Version 3.0
MachLine results file. Generated by MachLine, USU AeroLab (c) 2022.
ASCII
DATASET POLYDATA
POINTS                7064 float
  0.000000000000E+00  0.000000000000E+00  0.000000000000E+00
  0.389988087118E-01  0.000000000000E+00 -0.109218262136E+00
  0.389988087118E-01  0.000000000000E+00  0.109218262136E+00
  0.147665724158E+00  0.000000000000E+00 -0.234920635819E+00
  0.147665724158E+00  0.000000000000E+00  0.234920635819E+00
  0.161138445139E+00  0.161138445139E+00  0.000000000000E+00
  0.200137257576E+00  0.161138445139E+00 -0.109218269587E+00
  0.200137257576E+00  0.161138445139E+00  0.109218269587E+00
  0.290265858173E+00  0.000000000000E+00 -0.347333192825E+00
  0.290265858173E+00  0.000000000000E+00  0.347333192825E+00
  0.308804154396E+00  0.161138445139E+00 -0.234920650721E+00
  0.308804154396E+00  0.161138445139E+00  0.234920650721E+00
  0.335006117821E+00  0.335006117821E+00  0.000000000000E+00
  0.374004930258E+00  0.335006117821E+00 -0.109218277037E+00
  0.374004930258E+00  0.335006117821E+00  0.109218277037E+00
  0.451404303312E+00  0.161138445139E+00 -0.347333222628E+00
  0.451404303312E+00  0.161138445139E+00  0.347333222628E+00
  0.473465979099E+00  0.000000000000E+00 -0.436293870211E+00
  0.473465979099E+00  0.000000000000E+00  0.436293870211E+00
  0.482671856880E+00  0.335006117821E+00 -0.234920650721E+00
  0.482671856880E+00  0.335006117821E+00  0.234920650721E+00
  0.522506594658E+00  0.522506594658E+00  0.000000000000E+00
  0.561505436897E+00  0.522506594658E+00 -0.109218284488E+00
  0.561505436897E+00  0.522506594658E+00  0.109218284488E+00
  0.625271975994E+00  0.335006117821E+00 -0.347333222628E+00
  0.625271975994E+00  0.335006117821E+00  0.347333222628E+00
  0.634604454041E+00  0.161138445139E+00 -0.436293900013E+00
  0.634604454041E+00  0.161138445139E+00  0.436293900013E+00
  0.670172333717E+00  0.522506594658E+00 -0.234920665622E+00
  0.670172333717E+00  0.522506594658E+00  0.234920665622E+00
  0.689334988594E+00  0.000000000000E+00 -0.522850036621E+00
  0.689334988594E+00  0.000000000000E+00  0.522850036621E+00
  0.724590361118E+00  0.724590361118E+00  0.000000000000E+00
  0.763589203358E+00  0.724590361118E+00 -0.109218291938E+00
  0.763589203358E+00  0.724590361118E+00  0.109218291938E+00
  0.808472156525E+00  0.335006117821E+00 -0.436293929815E+00
  0.808472156525E+00  0.335006117821E+00  0.436293929815E+00
  0.812772512436E+00  0.522506594658E+00 -0.347333252430E+00
  0.812772512436E+00  0.522506594658E+00  0.347333252430E+00
  0.850473463535E+00  0.161138445139E+00 -0.522850036621E+00
  0.850473463535E+00  0.161138445139E+00  0.522850036621E+00
  0.872256100178E+00  0.724590361118E+00 -0.234920680523E+00
  0.872256100178E+00  0.724590361118E+00  0.234920680523E+00
  0.942254066467E+00  0.942254066467E+00  0.000000000000E+00
  0.944064557552E+00  0.000000000000E+00 -0.604293465614E+00
  0.944064557552E+00  0.000000000000E+00  0.604293465614E+00
  0.981252849102E+00  0.942254066467E+00 -0.109218299389E+00
  0.981252849102E+00  0.942254066467E+00  0.109218299389E+00
  0.995972692966E+00  0.522506594658E+00 -0.436293959618E+00
  0.995972692966E+00  0.522506594658E+00  0.436293959618E+00
  0.101485633850E+01  0.724590361118E+00 -0.347333282232E+00
  0.101485633850E+01  0.724590361118E+00  0.347333282232E+00
  0.102434122562E+01  0.335006117821E+00 -0.522850096226E+00
  0.102434122562E+01  0.335006117821E+00  0.522850096226E+00
  0.108991980553E+01  0.942254066467E+00 -0.234920710325E+00
  0.108991980553E+01  0.942254066467E+00  0.234920710325E+00
  0.110520303249E+01  0.161138445139E+00 -0.604293525219E+00
  0.110520303249E+01  0.161138445139E+00  0.604293525219E+00
  0.117653930187E+01  0.117653930187E+01  0.000000000000E+00
  0.119805645943E+01  0.724590361118E+00 -0.436293989420E+00
  0.119805645943E+01  0.724590361118E+00  0.436293989420E+00
  0.121184170246E+01  0.522506594658E+00 -0.522850096226E+00
  0.121184170246E+01  0.522506594658E+00  0.522850096226E+00
  0.121553814411E+01  0.117653930187E+01 -0.109218306839E+00
  0.121553814411E+01  0.117653930187E+01  0.109218306839E+00
  0.123251998425E+01  0.942254066467E+00 -0.347333312035E+00
  0.123251998425E+01  0.942254066467E+00  0.347333312035E+00
  0.123833239079E+01  0.000000000000E+00 -0.683996438980E+00
  0.123833239079E+01  0.000000000000E+00  0.683996438980E+00
  0.127907073498E+01  0.335006117821E+00 -0.604293525219E+00
  0.127907073498E+01  0.335006117821E+00  0.604293525219E+00
  0.132420504093E+01  0.117653930187E+01 -0.234920725226E+00
  0.132420504093E+01  0.117653930187E+01  0.234920725226E+00
  0.139947092533E+01  0.161138445139E+00 -0.683996498585E+00
  0.139947092533E+01  0.161138445139E+00  0.683996498585E+00
  0.141392552853E+01  0.724590361118E+00 -0.522850155830E+00
  0.141392552853E+01  0.724590361118E+00  0.522850155830E+00
  0.141572022438E+01  0.942254066467E+00 -0.436294019222E+00
  0.141572022438E+01  0.942254066467E+00  0.436294019222E+00
  0.142853081226E+01  0.142853081226E+01  0.000000000000E+00
  0.146657133102E+01  0.522506594658E+00 -0.604293584824E+00
  0.146657133102E+01  0.522506594658E+00  0.604293584824E+00
  0.146680521965E+01  0.117653930187E+01 -0.347333341837E+00
  0.146680521965E+01  0.117653930187E+01  0.347333341837E+00
  0.146752965450E+01  0.142853081226E+01 -0.109218314290E+00
  0.146752965450E+01  0.142853081226E+01  0.109218314290E+00
  0.157333862782E+01  0.335006117821E+00 -0.683996558189E+00
  0.157333862782E+01  0.335006117821E+00  0.683996558189E+00
  0.157619655132E+01  0.142853081226E+01 -0.234920740128E+00
  0.157619655132E+01  0.142853081226E+01  0.234920740128E+00
  0.157641971111E+01  0.000000000000E+00 -0.760520398617E+00
  0.157641971111E+01  0.000000000000E+00  0.760520398617E+00
  0.163158929348E+01  0.942254066467E+00 -0.522850155830E+00
  0.163158929348E+01  0.942254066467E+00  0.522850155830E+00
  0.165000545979E+01  0.117653930187E+01 -0.436294049025E+00
  0.165000545979E+01  0.117653930187E+01  0.436294049025E+00
  0.166865515709E+01  0.724590361118E+00 -0.604293584824E+00
  0.166865515709E+01  0.724590361118E+00  0.604293584824E+00
  0.169935321808E+01  0.169935321808E+01  0.000000000000E+00
  0.171879673004E+01  0.142853081226E+01 -0.347333371639E+00
  0.171879673004E+01  0.142853081226E+01  0.347333371639E+00
  0.173755824566E+01  0.161138445139E+00 -0.760520458221E+00
  0.173755824566E+01  0.161138445139E+00  0.760520458221E+00
  0.173835194111E+01  0.169935321808E+01 -0.109218329191E+00
  0.173835194111E+01  0.169935321808E+01  0.109218329191E+00
  0.176083922386E+01  0.522506594658E+00 -0.683996558189E+00
  0.176083922386E+01  0.522506594658E+00  0.683996558189E+00
  0.184701895714E+01  0.169935321808E+01 -0.234920755029E+00
  0.184701895714E+01  0.169935321808E+01  0.234920755029E+00
  0.186587452888E+01  0.117653930187E+01 -0.522850215435E+00
  0.186587452888E+01  0.117653930187E+01  0.522850215435E+00
  0.188631892204E+01  0.942254066467E+00 -0.604293644428E+00
  0.188631892204E+01  0.942254066467E+00  0.604293644428E+00
  0.190199697018E+01  0.142853081226E+01 -0.436294078827E+00
  0.190199697018E+01  0.142853081226E+01  0.436294078827E+00
  0.191142594814E+01  0.335006117821E+00 -0.760520458221E+00
  0.191142594814E+01  0.335006117821E+00  0.760520458221E+00
  0.196138751507E+01  0.000000000000E+00 -0.833668828011E+00
  0.196138751507E+01  0.000000000000E+00  0.833668828011E+00
  0.196292304993E+01  0.724590361118E+00 -0.683996617794E+00
  0.196292304993E+01  0.724590361118E+00  0.683996617794E+00
  0.198961913586E+01  0.169935321808E+01 -0.347333401442E+00
  0.198961913586E+01  0.169935321808E+01  0.347333401442E+00
  0.199016737938E+01  0.199016737938E+01  0.000000000000E+00
  0.202916622162E+01  0.199016737938E+01 -0.109218336642E+00
  0.202916622162E+01  0.199016737938E+01  0.109218336642E+00
  0.209892654419E+01  0.522506594658E+00 -0.760520517826E+00
  0.209892654419E+01  0.522506594658E+00  0.760520517826E+00
  0.211786603928E+01  0.142853081226E+01 -0.522850275040E+00
  0.211786603928E+01  0.142853081226E+01  0.522850275040E+00
  0.212060427666E+01  0.117653930187E+01 -0.604293704033E+00
  0.212060427666E+01  0.117653930187E+01  0.604293704033E+00
  0.212252616882E+01  0.161138445139E+00 -0.833668828011E+00
  0.212252616882E+01  0.161138445139E+00  0.833668828011E+00
  0.213783311844E+01  0.199016737938E+01 -0.234920784831E+00
  0.213783311844E+01  0.199016737938E+01  0.234920784831E+00
  0.217281937599E+01  0.169935321808E+01 -0.436294138432E+00
  0.217281937599E+01  0.169935321808E+01  0.436294138432E+00
  0.218058681488E+01  0.942254066467E+00 -0.683996677399E+00
  0.218058681488E+01  0.942254066467E+00  0.683996677399E+00
  0.228043341637E+01  0.199016737938E+01 -0.347333431244E+00
  0.228043341637E+01  0.199016737938E+01  0.347333431244E+00
  0.229639387131E+01  0.335006117821E+00 -0.833668887615E+00
  0.229639387131E+01  0.335006117821E+00  0.833668887615E+00
  0.230101037025E+01  0.724590361118E+00 -0.760520577431E+00
  0.230101037025E+01  0.724590361118E+00  0.760520577431E+00
  0.230216526985E+01  0.230216526985E+01  0.000000000000E+00
  0.234116411209E+01  0.230216526985E+01 -0.109218344092E+00
  0.234116411209E+01  0.230216526985E+01  0.109218344092E+00
  0.237259578705E+01  0.142853081226E+01 -0.604293763638E+00
  0.237259578705E+01  0.142853081226E+01  0.604293763638E+00
  0.238868856430E+01  0.169935321808E+01 -0.522850275040E+00
  0.238868856430E+01  0.169935321808E+01  0.522850275040E+00
  0.239635515213E+01  0.000000000000E+00 -0.902061045170E+00
  0.239635515213E+01  0.000000000000E+00  0.902061045170E+00
  0.241487216949E+01  0.117653930187E+01 -0.683996737003E+00
  0.241487216949E+01  0.117653930187E+01  0.683996737003E+00
  0.244983124733E+01  0.230216526985E+01 -0.234920799732E+00
  0.244983124733E+01  0.230216526985E+01  0.234920799732E+00
  0.246363353729E+01  0.199016737938E+01 -0.436294168234E+00
  0.246363353729E+01  0.199016737938E+01  0.436294168234E+00
[...]
CELL_DATA               13888
SCALARS C_p_inc float 1
LOOKUP_TABLE default
  0.218292015649E+00
  0.184757458012E+00
  0.158026357446E+00
  0.131976445462E+00
  0.127520514806E+00
  0.111028124300E+00
  0.107169093690E+00
  0.964892641680E-01
  0.925465375345E-01
  0.850177975902E-01
  0.809274439058E-01
  0.752837444703E-01
  0.710722555376E-01
  0.666517574990E-01
  0.623202694488E-01
  0.587196572071E-01
  0.541697214490E-01
  0.510888280668E-01
  0.460993597102E-01
  0.433053313689E-01
  0.379501491700E-01
  0.354255354536E-01
  0.300765179964E-01
  0.278754179821E-01
  0.224069199415E-01
  0.203585092551E-01
  0.137687060927E-01
  0.115174177047E-01
  0.500245128764E-02
  0.307386272715E-02
 -0.375196693840E-02
 -0.576725387270E-02
 -0.142159792628E-01
 -0.165831123507E-01
 -0.224119881429E-01
 -0.237228576628E-01
 -0.296335626849E-01
 -0.313634945860E-01
 -0.343571857196E-01
 -0.349378602715E-01
 -0.379807100878E-01
 -0.371866333181E-01
 -0.367563337206E-01
 -0.371978549983E-01
 -0.299008242103E-01
 -0.314914807456E-01
 -0.220035059479E-01
 -0.240487972072E-01
  0.249108863240E-02
 -0.440493065298E-02
  0.358428046217E-01
  0.275270594718E-01
  0.720092357743E-01
  0.623653233104E-01
  0.110100396253E+00
  0.992319534154E-01
  0.148804039111E+00
  0.136910851164E+00
  0.186555277208E+00
  0.173599151432E+00
  0.226468226063E+00
  0.210873955605E+00
  0.272392428726E+00
  0.253136773405E+00
  0.323534625161E+00
  0.300883988688E+00
  0.382171442340E+00
  0.355426155580E+00
  0.445542082779E+00
  0.415536084176E+00
  0.525094101515E+00
  0.490868795778E+00
  0.612172403884E+00
  0.578890353682E+00
  0.730091131548E+00
  0.714041828671E+00
  0.822351175938E+00
  0.830906997237E+00
  0.810870243951E+00
  0.778103675542E+00
  0.487227554828E+00
  0.576041235932E+00
  0.174943092738E+00
  0.316449055589E+00
 -0.103696765585E+00
  0.746519953870E-01
 -0.244290520166E+00
 -0.114629408926E+00
 -0.269821733869E+00
 -0.180388473944E+00
 -0.307066806190E+00
 -0.248651691719E+00
 -0.331194641834E+00
 -0.288180566502E+00
 -0.357293279311E+00
 -0.326768674314E+00
 -0.378257223011E+00
 -0.355845531186E+00
 -0.394852534375E+00
 -0.379621870731E+00
 -0.407102496830E+00
 -0.396214949141E+00
 -0.421592783138E+00
 -0.411972442094E+00
 -0.439473152686E+00
 -0.431131439939E+00
 -0.456999987346E+00
 -0.450269360757E+00
 -0.472099008592E+00
 -0.467094614101E+00
 -0.483550551676E+00
 -0.480351814004E+00
 -0.478141473372E+00
 -0.481660668378E+00
 -0.457398680290E+00
 -0.460892264591E+00
 -0.436642170408E+00
 -0.441235443486E+00
 -0.410218039239E+00
 -0.416040642070E+00
 -0.387170648134E+00
 -0.382127502964E+00
 -0.359722282769E+00
 -0.353431250743E+00
 -0.328795181735E+00
 -0.323269049478E+00
 -0.300270449713E+00
 -0.293556961591E+00
 -0.268672747604E+00
 -0.262525587515E+00
 -0.241045852451E+00
 -0.235056751250E+00
 -0.215167752704E+00
 -0.208778972100E+00
 -0.189917966140E+00
 -0.183719560251E+00
 -0.167244024548E+00
 -0.160742883771E+00
 -0.145358583869E+00
 -0.138295890241E+00
 -0.123809743975E+00
 -0.116186083659E+00
 -0.102992842370E+00
 -0.947062085559E-01
 -0.828497879128E-01
 -0.735295104684E-01
 -0.627319583145E-01
 -0.519054921190E-01
 -0.420524085014E-01
 -0.290858192537E-01
 -0.201922827168E-01
 -0.408301530508E-02
  0.379795264404E-02
  0.248601476650E-01
  0.318011019817E-01
  0.613627903314E-01
  0.684398966476E-01
  0.111159428341E+00
  0.144700323526E+00
  0.193938638512E+00
  0.214913799212E+00
  0.216168766804E+00
  0.162672752264E+00
  0.157627525450E+00
  0.138394717870E+00
  0.127420270964E+00
  0.117669975557E+00
  0.107134390245E+00
  0.100764913485E+00
  0.925300632801E-01
  0.872231786566E-01
  0.809181245401E-01
  0.760087423070E-01
  0.710664310059E-01
  0.663163408404E-01
  0.623163665005E-01
  0.575276101972E-01
  0.541670945427E-01
  0.490382993924E-01
  0.460981388376E-01
  0.405741783736E-01
  0.379504668568E-01
  0.324149059949E-01
  0.300777409705E-01
  0.245628861632E-01
  0.224087807759E-01
  0.158995941419E-01
  0.137728475439E-01
  0.696702714590E-02
  0.500669618109E-02
 -0.183263924566E-02
 -0.374650961932E-02
 -0.122933817828E-01
 -0.142084514429E-01
 -0.210477202282E-01
 -0.224161771990E-01
 -0.284225372430E-01
 -0.296416372143E-01
 -0.338479113037E-01
 -0.343887753748E-01
 -0.372497766481E-01
 -0.370369266477E-01
 -0.372636568343E-01
 -0.380612440110E-01
 -0.315420905309E-01
 -0.335101500255E-01
 -0.241030382538E-01
 -0.273395230827E-01
 -0.430409721323E-02
 -0.106100313757E-01
  0.277031268727E-01
  0.196939025361E-01
  0.625725909502E-01
  0.534086318008E-01
  0.994223167770E-01
  0.893418018097E-01
  0.137025878006E+00
  0.126209830475E+00
  0.173604107342E+00
  0.162004333721E+00
  0.210699911748E+00
  0.197847552839E+00
  0.252483848151E+00
  0.238193486276E+00
  0.299212702551E+00
  0.283848728286E+00
  0.351653909938E+00
  0.335914733339E+00
  0.408097318239E+00
  0.392944345984E+00
  0.474998144412E+00
  0.462452874070E+00
  0.548427536349E+00
  0.540275806516E+00
  0.642382427799E+00
  0.641932723966E+00
  0.709203749415E+00
  0.706073142542E+00
  0.641737493131E+00
  0.606795076826E+00
  0.321622054118E+00
  0.365958860301E+00
  0.550415429318E-01
  0.128424943519E+00
 -0.201512552205E+00
 -0.109315989991E+00
 -0.326547002261E+00
 -0.234920747024E+00
 -0.335327306798E+00
 -0.264910475976E+00
 -0.360007714456E+00
 -0.304489129373E+00
 -0.372825147179E+00
 -0.330076018427E+00
 -0.390095442423E+00
 -0.357083413247E+00
 -0.403679447295E+00
 -0.378531401122E+00
 -0.414240966882E+00
 -0.395403625168E+00
 -0.422122795823E+00
 -0.407663702434E+00
 -0.433941484001E+00
 -0.422058486499E+00
 -0.449789717955E+00
 -0.439925318769E+00
 -0.465346692722E+00
 -0.457489324185E+00
 -0.478381314395E+00
 -0.472650591050E+00
 -0.487214543933E+00
 -0.484228821097E+00
 -0.477490891278E+00
 -0.478933790863E+00
 -0.455104541863E+00
 -0.457980752273E+00
 -0.432981194927E+00
 -0.437131434207E+00
 -0.405433413647E+00
 -0.410598879429E+00
 -0.382131712915E+00
 -0.377281200121E+00
 -0.353389166810E+00
 -0.347834763181E+00
 -0.323233848970E+00
 -0.317630359322E+00
 -0.293503194230E+00
 -0.287308540630E+00
 -0.262487319462E+00
 -0.256354717097E+00
 -0.235027078283E+00
 -0.228849358479E+00
 -0.208753753250E+00
 -0.202333149673E+00
 -0.183703766563E+00
 -0.177157453436E+00
 -0.160731237402E+00
 -0.153814578260E+00
 -0.138288585352E+00
 -0.130817279517E+00
 -0.116184350737E+00
 -0.108052082873E+00
 -0.947095587862E-01
 -0.857082389706E-01
 -0.735375372149E-01
 -0.633071739068E-01
 -0.519196865072E-01
 -0.399812752580E-01
 -0.291099132322E-01
 -0.148260167191E-01
 -0.412566011946E-02
  0.133050549557E-01
  0.247737110708E-01
  0.457973368826E-01
  0.611328686843E-01
  0.831987290293E-01
  0.110334192997E+00
  0.124858996249E+00
  0.190263182898E+00
  0.194462213615E+00
  0.214794343640E+00
  0.213863878646E+00
  0.162594943420E+00
  0.162148563034E+00
  0.141374655112E+00
  0.138118897551E+00
  0.123724933777E+00
  0.117551966421E+00
  0.107725290259E+00
  0.100712919415E+00
  0.934938817924E-01
  0.871968315242E-01
  0.812292482638E-01
  0.759936331693E-01
  0.706208864469E-01
  0.663068909129E-01
  0.611371962721E-01
  0.575215048502E-01
  0.521540405086E-01
  0.490349656803E-01
  0.433327585164E-01
  0.405736616607E-01
  0.348811177718E-01
  0.324165161607E-01
  0.268079745053E-01
  0.245658725086E-01
  0.180336037613E-01
  0.159053105002E-01
  0.896861908155E-02
  0.697500449953E-02
  0.520942892159E-04
 -0.182311443478E-02
 -0.104967406820E-01
 -0.122815590727E-01
 -0.196500745004E-01
 -0.210458254450E-01
 -0.273637828801E-01
 -0.284308636118E-01
 -0.333589595902E-01
 -0.338859496293E-01
 -0.371158284777E-01
 -0.371030769941E-01
 -0.381167743291E-01
 -0.390072402190E-01
 -0.335075007375E-01
 -0.355830766898E-01
 -0.272512467622E-01
 -0.307110056569E-01
 -0.103024002892E-01
 -0.160541569052E-01
  0.200999237535E-01
  0.125475789648E-01
  0.538089609230E-01
  0.451873392992E-01
  0.896442774028E-01
  0.802833134718E-01
  0.126324734859E+00
  0.116446179104E+00
  0.161874996169E+00
  0.151547479301E+00
  0.197345347234E+00
  0.186506312054E+00
  0.236944592603E+00
  0.225667357290E+00
  0.281291965284E+00
  0.269962956974E+00
  0.331132234824E+00
  0.320488252829E+00
  0.384827149877E+00
  0.375667951248E+00
  0.448511927554E+00
  0.442190740006E+00
  0.518282114052E+00
  0.515406528318E+00
  0.606029904325E+00
  0.606000941366E+00
  0.659036601877E+00
  0.652238021867E+00
  0.562857462142E+00
  0.529830616542E+00
  0.227508455685E+00
  0.264713384472E+00
 -0.296229569732E-01
  0.280200485441E-01
 -0.278976968953E+00
 -0.206573221773E+00
 -0.393651087368E+00
 -0.319091908355E+00
 -0.390227796430E+00
 -0.329558791648E+00
 -0.405859826705E+00
 -0.355290088938E+00
 -0.410417979751E+00
 -0.369684196712E+00
 -0.420876102784E+00
 -0.388062367148E+00
 -0.428479643861E+00
 -0.402516303852E+00
 -0.434077433745E+00
 -0.413682223378E+00
 -0.438147930375E+00
 -0.421901770055E+00
 -0.447188755656E+00
 -0.433883478147E+00
 -0.460788360014E+00
 -0.449874449739E+00
 -0.474212915186E+00
 -0.465602377783E+00
 -0.484998123436E+00
 -0.478848865176E+00
 -0.490888319694E+00
 -0.488008880709E+00
 -0.477864150542E+00
 -0.478539014283E+00
 -0.453505846270E+00
 -0.456027462650E+00
 -0.429851824178E+00
 -0.433821209638E+00
 -0.401194352322E+00
 -0.406135363685E+00
 -0.377259359880E+00
 -0.372536392166E+00
 -0.347761829974E+00
 -0.342448651902E+00
 -0.317551090996E+00
 -0.311902420255E+00
 -0.287222968902E+00
 -0.281136113401E+00
 -0.256288682714E+00
 -0.250102624852E+00
 -0.228795681574E+00
 -0.222438210728E+00
 -0.202292109645E+00
 -0.195695536527E+00
 -0.177128883872E+00
 -0.170267506439E+00
 -0.153793730995E+00
 -0.146481002707E+00
 -0.130805329483E+00
 -0.122891843836E+00
 -0.108050173245E+00
 -0.993855423611E-01
 -0.857159569946E-01
 -0.760561306788E-01
 -0.633258183823E-01
 -0.523438333868E-01
 -0.400163900205E-01
 -0.273686602392E-01
 -0.148908229104E-01
 -0.387878887179E-03
  0.131774198563E-01
  0.289906562962E-01
  0.455180988693E-01
  0.603679363328E-01
  0.825696545446E-01
  0.931570967478E-01
  0.123653394377E+00
  0.128578280392E+00
  0.192131047343E+00
  0.190118022153E+00
  0.202853158868E+00
  0.213727221059E+00
  0.159620691635E+00
  0.162125629343E+00
  0.141288044597E+00
  0.141067039580E+00
  0.125939901166E+00
  0.123535815807E+00
  0.111910727253E+00
  0.107622328420E+00
  0.985812317632E-01
  0.934400236021E-01
  0.861896855351E-01
  0.811997274438E-01
  0.750150241051E-01
  0.706035615247E-01
  0.649232816507E-01
  0.611266650878E-01
  0.554337587251E-01
  0.521483277835E-01
  0.462242395934E-01
  0.433312853437E-01
  0.374644211520E-01
  0.348829028261E-01
  0.291443500994E-01
  0.268119482245E-01
  0.202033591413E-01
  0.180408396958E-01
  0.109991010711E-01
  0.897909086824E-02
  0.192894494313E-02
  0.641298478705E-04
 -0.876357930150E-02
 -0.104829927634E-01
 -0.182379775332E-01
 -0.196450208124E-01
 -0.263691792021E-01
 -0.273747733784E-01
 -0.328792373899E-01
 -0.334010768765E-01
 -0.371849113018E-01
 -0.372594238121E-01
 -0.390537019585E-01
 -0.399733723130E-01
 -0.355503553852E-01
 -0.376278367670E-01
 -0.305560419075E-01
 -0.340162640643E-01
 -0.156966649335E-01
 -0.209869606445E-01
  0.130073131028E-01
  0.599663493331E-02
  0.456163960290E-01
  0.375761898643E-01
  0.805665216522E-01
  0.719129605278E-01
  0.116479389737E+00
  0.107486059791E+00
  0.151258938199E+00
  0.142077026717E+00
  0.185759075056E+00
  0.176501353333E+00
  0.224125225771E+00
  0.215009397477E+00
  0.267160293429E+00
  0.258555184628E+00
  0.315745291010E+00
  0.308238528751E+00
  0.368276744823E+00
  0.362462916912E+00
  0.430729999594E+00
  0.427401344523E+00
  0.499003228633E+00
  0.498181641229E+00
  0.582564994169E+00
  0.582210447773E+00
  0.624767187964E+00
  0.616275274131E+00
  0.505956768288E+00
  0.474368198300E+00
  0.154528712161E+00
  0.188594618796E+00
 -0.985346821713E-01
 -0.486370467128E-01
 -0.344577334439E+00
 -0.282494059597E+00
 -0.451952985791E+00
 -0.387392634523E+00
 -0.438860432173E+00
 -0.384748926222E+00
 -0.447375044054E+00
 -0.400901228617E+00
 -0.445320115239E+00
 -0.406715970042E+00
 -0.450189641222E+00
 -0.418167168230E+00
 -0.452813253834E+00
 -0.426651335284E+00
 -0.454172743465E+00
 -0.432919637303E+00
 -0.454763984857E+00
 -0.437455581703E+00
 -0.461050169609E+00
 -0.446806147972E+00
 -0.472315691454E+00
 -0.460665393661E+00
 -0.483488231947E+00
 -0.474366056776E+00
 -0.491838142419E+00
 -0.485481886839E+00
 -0.494728664834E+00
 -0.491817515246E+00
 -0.478860119557E+00
 -0.479058595104E+00
 -0.452386292632E+00
 -0.454652011072E+00
 -0.427107137339E+00
 -0.430933275349E+00
 -0.397302440229E+00
 -0.402126299612E+00
 -0.372520414363E+00
 -0.367901049481E+00
 -0.342369763245E+00
 -0.337173740199E+00
 -0.311800120839E+00
 -0.306124998832E+00
 -0.281029655293E+00
 -0.274967064275E+00
 -0.250015037917E+00
 -0.243741827604E+00
 -0.222364480180E+00
 -0.215836931406E+00
 -0.195638521464E+00
 -0.188826752716E+00
 -0.170225755593E+00
 -0.163047621840E+00
 -0.146450465300E+00
 -0.138756082031E+00
 -0.122874395223E+00
 -0.114527456373E+00
 -0.993829218383E-01
 -0.902217859164E-01
 -0.760694072011E-01
 -0.658913754388E-01
 -0.523777875367E-01
 -0.410206539937E-01
 -0.274363877835E-01
 -0.149717037494E-01
 -0.518339059180E-03
  0.123799491412E-01
  0.287393120499E-01
  0.405339472583E-01
  0.599080007673E-01
  0.689773404011E-01
  0.924149663057E-01
  0.984873466424E-01
  0.127545087471E+00
  0.132431344267E+00
  0.188865857630E+00
  0.199839505056E+00
  0.204396278217E+00
  0.202793609949E+00
  0.158026390929E+00
  0.159305373936E+00
  0.140318318760E+00
  0.141018117072E+00
  0.126321639188E+00
  0.125739186983E+00
  0.113841806639E+00
  0.111774524048E+00
  0.101880877268E+00
  0.984974577531E-01
  0.902283244803E-01
  0.861409535979E-01
  0.791136365088E-01
  0.749866518261E-01
  0.687085908633E-01
  0.649065775139E-01
  0.588095350692E-01
  0.554247358400E-01
  0.492247609859E-01
  0.462212459598E-01
  0.401504731192E-01
  0.374659404415E-01
  0.315683242636E-01
  0.291489687681E-01
  0.224246712432E-01
  0.202117783595E-01
  0.130568140379E-01
  0.110113059060E-01
  0.381303103400E-02
  0.194281421434E-02
 -0.706246245475E-02
 -0.874871423021E-02
 -0.168274596944E-01
 -0.182312346263E-01
 -0.253905828685E-01
 -0.263819734191E-01
 -0.324049856291E-01
 -0.329244791278E-01
 -0.373439971954E-01
 -0.374367012351E-01
 -0.400147831146E-01
 -0.409296768347E-01
 -0.375802412120E-01
 -0.395930869635E-01
 -0.338311720705E-01
 -0.371709416106E-01
 -0.206208425249E-01
 -0.255092285553E-01
  0.645790702910E-02
  0.563181579214E-04
  0.379948365292E-01
  0.306007095887E-01
  0.721590111706E-01
  0.642384080429E-01
  0.107447431502E+00
  0.993172783860E-01
  0.141676363120E+00
  0.133540466044E+00
  0.175611968736E+00
  0.167666620029E+00
  0.213351552641E+00
  0.205881185420E+00
  0.255768684615E+00
  0.249113041326E+00
  0.303835202693E+00
  0.298441435200E+00
  0.356001281961E+00
  0.352275067847E+00
  0.418030606907E+00
  0.416392369589E+00
  0.485617297287E+00
  0.485760149409E+00
  0.565768245231E+00
  0.565067368917E+00
  0.598636610562E+00
  0.589319073627E+00
  0.460030899537E+00
  0.429664462585E+00
  0.928863143002E-01
  0.125374062384E+00
 -0.158222554319E+00
 -0.112835830499E+00
 -0.402743921666E+00
 -0.347018425604E+00
 -0.504457589903E+00
 -0.446488488074E+00
 -0.483162503574E+00
 -0.433788414755E+00
 -0.485746995386E+00
 -0.442542090744E+00
 -0.478129356882E+00
 -0.441465995057E+00
 -0.478275433738E+00
 -0.447169611626E+00
 -0.476638613674E+00
 -0.450594120206E+00
 -0.474270579110E+00
 -0.452619007792E+00
 -0.471633519699E+00
 -0.453741237713E+00
 -0.475226899983E+00
 -0.460431311861E+00
 -0.484130201991E+00
 -0.472049129574E+00
 -0.492971183442E+00
 -0.483593013363E+00
 -0.498764073321E+00
 -0.492379664624E+00
 -0.498799234672E+00
 -0.495774341705E+00
 -0.480291219645E+00
 -0.480175406241E+00
 -0.451640455930E+00
 -0.453712020292E+00
 -0.424691087807E+00
 -0.428384319043E+00
 -0.393662315508E+00
 -0.398429626309E+00
 -0.367909115599E+00
 -0.363382017760E+00
 -0.337101657431E+00
 -0.331958176226E+00
 -0.306013380345E+00
 -0.300327977862E+00
 -0.274848588222E+00
 -0.268767890702E+00
 -0.243638750677E+00
 -0.237258517364E+00
 -0.215747880794E+00
 -0.209051035925E+00
 -0.188756298381E+00
 -0.181710335688E+00
 -0.162994472989E+00
 -0.155506592693E+00
 -0.138717398740E+00
 -0.130666617233E+00
 -0.114505998577E+00
 -0.105775960896E+00
 -0.902205989025E-01
 -0.806946591865E-01
 -0.659143051509E-01
 -0.555357621393E-01
 -0.410777426103E-01
 -0.300075635419E-01
 -0.150847205833E-01
 -0.391959478870E-02
  0.121740283898E-01
  0.223690645064E-01
  0.401896443739E-01
  0.484263172523E-01
  0.684602577381E-01
  0.745164908859E-01
  0.977742227646E-01
  0.102065869296E+00
  0.131431029038E+00
  0.133967874318E+00
  0.197622491770E+00
  0.194816398811E+00
  0.206973023305E+00
  0.203979931044E+00
  0.158545818881E+00
  0.157794062209E+00
  0.140155334334E+00
  0.140108133772E+00
  0.126352997857E+00
  0.126141710130E+00
  0.114632748408E+00
  0.113700316424E+00
  0.103722693124E+00
  0.101779108950E+00
  0.930524819410E-01
  0.901612881529E-01
  0.825177253415E-01
  0.790721344630E-01
  0.722253221058E-01
  0.686838174704E-01
  0.621454045815E-01
  0.587959612119E-01
  0.522747672232E-01
  0.492194729237E-01
  0.429107345685E-01
  0.401511854452E-01
  0.340672756397E-01
  0.315731724555E-01
  0.247016244727E-01
  0.224339376336E-01
  0.151456770020E-01
  0.130702464239E-01
  0.571294273554E-02
  0.382833729523E-02
 -0.537189538734E-02
 -0.704670136390E-02
 -0.154202075392E-01
 -0.168195845505E-01
 -0.244013289218E-01
 -0.254032776543E-01
 -0.319212692016E-01
 -0.324511732244E-01
 -0.375236716743E-01
 -0.375884899992E-01
 -0.409675495502E-01
 -0.418393419343E-01
 -0.395385290226E-01
 -0.414344420263E-01
 -0.369753909032E-01
 -0.401122585607E-01
 -0.251499529017E-01
 -0.296405098194E-01
  0.495525932831E-03
 -0.527942770473E-02
  0.309906609733E-01
  0.242889612360E-01
  0.644434887834E-01
  0.572730994421E-01
  0.992232370918E-01
  0.919313129652E-01
  0.133070800237E+00
  0.125897286831E+00
  0.166710799060E+00
  0.159892272367E+00
  0.204213736934E+00
  0.198053858538E+00
  0.246463867644E+00
  0.241270392509E+00
  0.294465055772E+00
  0.290575738641E+00
  0.346700546474E+00
  0.344375664886E+00
  0.408696966683E+00
  0.408108652971E+00
  0.475933158726E+00
  0.476584921438E+00
  0.553059553048E+00
  0.552084278451E+00
  0.577445673539E+00
  0.567722334266E+00
  0.420668870193E+00
  0.391325759968E+00
  0.382336104169E-01
  0.698946882445E-01
 -0.211923707483E+00
 -0.169415601229E+00
 -0.455861825948E+00
 -0.404421259365E+00
 -0.552867420363E+00
 -0.499579387274E+00
 -0.524296647887E+00
 -0.478493545201E+00
 -0.521728227669E+00
 -0.481161902553E+00
 -0.509271808281E+00
 -0.474313495458E+00
 -0.505320282992E+00
 -0.475147674220E+00
 -0.499943505178E+00
 -0.474218607078E+00
 -0.494212613410E+00
 -0.472486018958E+00
 -0.488546000579E+00
 -0.470406945914E+00
 -0.489515545892E+00
 -0.474460270491E+00
 -0.496045354603E+00
 -0.483782662547E+00
 -0.502495273932E+00
 -0.493071081225E+00
 -0.505693591409E+00
 -0.499375623174E+00
 -0.503056900221E+00
 -0.499930919925E+00
 -0.482019860996E+00
 -0.481707251853E+00
 -0.451180614044E+00
 -0.453111043009E+00
 -0.422542395926E+00
 -0.426128215096E+00
 -0.390210528481E+00
 -0.394957351124E+00
 -0.363424841220E+00
 -0.358967783559E+00
 -0.331900720826E+00
 -0.326774972019E+00
 -0.300217543683E+00
 -0.294520799541E+00
 -0.268644549410E+00
 -0.262517285920E+00
 -0.237145425694E+00
 -0.230647126429E+00
 -0.208951002420E+00
 -0.202080846112E+00
 -0.181629215719E+00
 -0.174348165270E+00
 -0.155444261035E+00
 -0.147671815888E+00
 -0.130621802772E+00
 -0.122271424570E+00
 -0.105752723066E+00
 -0.967587951604E-01
 -0.806981616678E-01
 -0.710639281321E-01
 -0.555734648005E-01
 -0.454814276723E-01
 -0.300942379414E-01
 -0.200398491181E-01
 -0.407909871690E-02
  0.515122157571E-02