# vtk DataFile Version 3.0
MachLine results file. Generated by MachLine, USU AeroLab (c) 2022.
ASCII
DATASET POLYDATA
POINTS                 108 float
  0.000000000000E+00  0.000000000000E+00  0.000000000000E+00
  0.993767919161E+04  0.000000000000E+00  0.111468932206E+04
  0.113538098335E+01  0.000000000000E+00 -0.658124566078E+00
  0.993776620234E+04  0.000000000000E+00  0.111391360393E+04
  0.113538098335E+01  0.000000000000E+00  0.658124566078E+00
  0.993762039583E+04  0.000000000000E+00  0.111521349824E+04
  0.192375373840E+01  0.192375373840E+01  0.000000000000E+00
  0.993770309487E+04  0.192375373840E+01  0.111447621969E+04
  0.305913543701E+01  0.192375373840E+01 -0.658124983311E+00
  0.993779010565E+04  0.192375373840E+01  0.111370050107E+04
  0.305913543701E+01  0.192375373840E+01  0.658124983311E+00
  0.993764429905E+04  0.192375373840E+01  0.111500039620E+04
  0.423028087616E+01  0.000000000000E+00 -0.108747220039E+01
  0.993785221813E+04  0.000000000000E+00  0.111314675587E+04
  0.423028087616E+01  0.000000000000E+00  0.108747220039E+01
  0.993761129030E+04  0.000000000000E+00  0.111529467588E+04
  0.939508819580E+01  0.000000000000E+00  0.980745851994E+00
  0.993768728722E+04  0.000000000000E+00  0.111461714799E+04
  0.970061969757E+01  0.547033166885E+01 -0.108747410774E+01
  0.993792018906E+04  0.547033166885E+01  0.111254078131E+04
  0.125173873901E+02  0.113820018768E+02 -0.658127009869E+00
  0.993790762771E+04  0.113820018768E+02  0.111265276831E+04
  0.125173873901E+02  0.113820018768E+02  0.658127009869E+00
  0.993776182066E+04  0.113820018768E+02  0.111395266745E+04
  0.156122989655E+02  0.113820018768E+02 -0.108747613430E+01
  0.993799364381E+04  0.113820018768E+02  0.111188591748E+04
  0.156122989655E+02  0.113820018768E+02  0.108747613430E+01
  0.993775271511E+04  0.113820018768E+02  0.111403384527E+04
  0.190000000000E+02  0.000000000000E+00  0.000000000000E+00
  0.993791527274E+04  0.000000000000E+00  0.111258461134E+04
  0.200105609894E+02  0.547033166885E+01 -0.479613870382E+00
  0.993798095815E+04  0.547033166885E+01  0.111199901269E+04
  0.209237651825E+02  0.192375373840E+01  0.000000000000E+00
  0.993793917614E+04  0.192375373840E+01  0.111237150769E+04
  0.231208724976E+02  0.547033166885E+01 -0.144199103117E+00
  0.993798244946E+04  0.547033166885E+01  0.111198571740E+04
  0.231208724976E+02  0.547033166885E+01  0.144199103117E+00
  0.993795050236E+04  0.547033166885E+01  0.111227053216E+04
  0.239865016937E+02  0.197561950684E+02  0.108747911453E+01
  0.993785676695E+04  0.197561950684E+02  0.111310620219E+04
  0.244703655243E+02  0.547033166885E+01  0.000000000000E+00
  0.993798324380E+04  0.547033166885E+01  0.111197863570E+04
  0.259222583771E+02  0.113820018768E+02 -0.479614794254E+00
  0.993805441300E+04  0.113820018768E+02  0.111134414794E+04
  0.259222583771E+02  0.113820018768E+02  0.479614794254E+00
  0.993794815507E+04  0.113820018768E+02  0.111229145879E+04
  0.290325775146E+02  0.113820018768E+02 -0.144199386239E+00
  0.993805590433E+04  0.113820018768E+02  0.111133085244E+04
  0.290325775146E+02  0.113820018768E+02  0.144199386239E+00
  0.993802395718E+04  0.113820018768E+02  0.111161566776E+04
  0.303820724487E+02  0.113820018768E+02  0.000000000000E+00
  0.993805669866E+04  0.113820018768E+02  0.111132377081E+04
  0.387563171387E+02  0.197561950684E+02  0.000000000000E+00
  0.993816075136E+04  0.197561950684E+02  0.111039612015E+04
  0.418483314514E+02  0.376179962158E+02 -0.108748543262E+01
  0.993831963602E+04  0.376179962158E+02  0.110897963151E+04
  0.418483314514E+02  0.376179962158E+02  0.108748543262E+01
  0.993807870525E+04  0.376179962158E+02  0.111112757766E+04
  0.446650657654E+02  0.435296669006E+02  0.658133804798E+00
  0.993816126519E+04  0.435296669006E+02  0.111039153923E+04
  0.468944816589E+02  0.292438049316E+02 -0.144200220704E+00
  0.993827784435E+04  0.292438049316E+02  0.110935221260E+04
  0.477600097656E+02  0.435296669006E+02 -0.108748745918E+01
  0.993839309075E+04  0.435296669006E+02  0.110832476778E+04
  0.477600097656E+02  0.435296669006E+02  0.108748745918E+01
  0.993815215954E+04  0.435296669006E+02  0.111047271793E+04
  0.482439842224E+02  0.292438049316E+02  0.000000000000E+00
  0.993827863869E+04  0.292438049316E+02  0.110934513095E+04
  0.507935333252E+02  0.496581344604E+02 -0.771266485397E-15
  0.993831031766E+04  0.496581344604E+02  0.110906270656E+04
  0.529248886108E+02  0.435296669006E+02  0.980759620667E+00
  0.993822815752E+04  0.435296669006E+02  0.110979518065E+04
  0.532303466797E+02  0.490000000000E+02 -0.108748936653E+01
  0.993846106167E+04  0.490000000000E+02  0.110771879344E+04
  0.532303466797E+02  0.490000000000E+02  0.108748936653E+01
  0.993822013003E+04  0.490000000000E+02  0.110986674736E+04
  0.539993209839E+02  0.497689704895E+02  0.768971264362E+00
  0.993826496839E+04  0.497689704895E+02  0.110946700439E+04
  0.543178405762E+02  0.500874900818E+02 -0.157378642191E-15
  0.993835410831E+04  0.500874900818E+02  0.110867230408E+04
  0.552687225342E+02  0.376179962158E+02 -0.144200608134E+00
  0.993838189704E+04  0.376179962158E+02  0.110842456197E+04
  0.552687225342E+02  0.376179962158E+02  0.144200608134E+00
  0.993834994961E+04  0.376179962158E+02  0.110870937971E+04
  0.564714775085E+02  0.470762481689E+02 -0.980760753155E+00
  0.993848951098E+04  0.470762481689E+02  0.110746516208E+04
  0.564714775085E+02  0.470762481689E+02  0.980760753155E+00
  0.993827222491E+04  0.470762481689E+02  0.110940231105E+04
  0.566182289124E+02  0.376179962158E+02  0.000000000000E+00
  0.993838269138E+04  0.376179962158E+02  0.110841748029E+04
  0.625299339294E+02  0.435296669006E+02  0.000000000000E+00
  0.993845614622E+04  0.435296669006E+02  0.110776261560E+04
  0.647270278931E+02  0.470762481689E+02 -0.144201040268E+00
  0.993849941959E+04  0.470762481689E+02  0.110737682487E+04
  0.647270278931E+02  0.470762481689E+02  0.144201040268E+00
  0.993846747206E+04  0.470762481689E+02  0.110766164347E+04
  0.660765380859E+02  0.470762481689E+02  0.000000000000E+00
  0.993850021392E+04  0.470762481689E+02  0.110736974319E+04
  0.667527542114E+02  0.491019668579E+02  0.101965606213E+00
  0.993849732096E+04  0.491019668579E+02  0.110739553451E+04
  0.667949905396E+02  0.491441993713E+02 -0.260488604752E-16
  0.993850914093E+04  0.491441993713E+02  0.110729015716E+04
  0.680002975464E+02  0.490000000000E+02  0.000000000000E+00
  0.993852411726E+04  0.490000000000E+02  0.110715664018E+04
  0.303820724487E+02  0.113820018768E+02  0.000000000000E+00
  0.993805669866E+04  0.113820018768E+02  0.111132377081E+04
  0.387563171387E+02  0.197561950684E+02  0.000000000000E+00
  0.993816075136E+04  0.197561950684E+02  0.111039612015E+04
POLYGONS                  18                  72
3                  32                  33                  29
3                  32                  29                  28
3                  40                  41                  33
3                  40                  33                  32
3                  50                  51                  41
3                  50                  41                  40
3                  52                  53                  51
3                  52                  51                  50
3                  66                  67                  53
3                  66                  53                  52
3                  88                  89                  67
3                  88                  67                  66
3                  90                  91                  89
3                  90                  89                  88
3                  96                  97                  91
3                  96                  91                  90
3                 102                 103                  97
3                 102                  97                  96
CELL_DATA                  18
NORMALS normals float
  0.110782792855E+00 -0.110783451884E+00 -0.987650849033E+00
  0.110782792855E+00 -0.110783451884E+00 -0.987650849033E+00
  0.110782792352E+00 -0.110783492404E+00 -0.987650844545E+00
  0.110782792352E+00 -0.110783492404E+00 -0.987650844545E+00
  0.110782792499E+00 -0.110783480553E+00 -0.987650845857E+00
  0.110782792499E+00 -0.110783480553E+00 -0.987650845857E+00
  0.110782792582E+00 -0.110783473858E+00 -0.987650846599E+00
  0.110782792582E+00 -0.110783473858E+00 -0.987650846599E+00
  0.110782792743E+00 -0.110783460883E+00 -0.987650848036E+00
  0.110782792743E+00 -0.110783460883E+00 -0.987650848036E+00
  0.110782792272E+00 -0.110783498782E+00 -0.987650843838E+00
  0.110782792272E+00 -0.110783498782E+00 -0.987650843838E+00
  0.110782793047E+00 -0.110783436422E+00 -0.987650850746E+00
  0.110782793047E+00 -0.110783436422E+00 -0.987650850746E+00
  0.110782792169E+00 -0.110783507116E+00 -0.987650842915E+00
  0.110782792169E+00 -0.110783507116E+00 -0.987650842915E+00
  0.110782795551E+00 -0.110783234904E+00 -0.987650873069E+00
  0.110782795551E+00 -0.110783234904E+00 -0.987650873069E+00
POINT_DATA                 108
SCALARS mu float 1
LOOKUP_TABLE default
  0.000000000000E+00
  0.000000000000E+00
  0.000000000000E+00
  0.000000000000E+00
  0.000000000000E+00
  0.000000000000E+00
  0.000000000000E+00
  0.000000000000E+00
  0.000000000000E+00
  0.000000000000E+00
  0.000000000000E+00
  0.000000000000E+00
  0.000000000000E+00
  0.000000000000E+00
  0.000000000000E+00
  0.000000000000E+00
  0.000000000000E+00
  0.000000000000E+00
  0.000000000000E+00
  0.000000000000E+00
  0.000000000000E+00
  0.000000000000E+00
  0.000000000000E+00
  0.000000000000E+00
  0.000000000000E+00
  0.000000000000E+00
  0.000000000000E+00
  0.000000000000E+00
 -0.317752868346E+01
 -0.317752868346E+01
  0.000000000000E+00
  0.000000000000E+00
 -0.323050291613E+01
 -0.323050291613E+01
  0.000000000000E+00
  0.000000000000E+00
  0.000000000000E+00
  0.000000000000E+00
  0.000000000000E+00
  0.000000000000E+00
 -0.333869539366E+01
 -0.333869539366E+01
  0.000000000000E+00
  0.000000000000E+00
  0.000000000000E+00
  0.000000000000E+00
  0.000000000000E+00
  0.000000000000E+00
  0.000000000000E+00
  0.000000000000E+00
 -0.347348835819E+01
 -0.347348835819E+01
 -0.355610530744E+01
 -0.355610530744E+01
  0.000000000000E+00
  0.000000000000E+00
  0.000000000000E+00
  0.000000000000E+00
  0.000000000000E+00
  0.000000000000E+00
  0.000000000000E+00
  0.000000000000E+00
  0.000000000000E+00
  0.000000000000E+00
  0.000000000000E+00
  0.000000000000E+00
 -0.346394243148E+01
 -0.346394243148E+01
  0.000000000000E+00
  0.000000000000E+00
  0.000000000000E+00
  0.000000000000E+00
  0.000000000000E+00
  0.000000000000E+00
  0.000000000000E+00
  0.000000000000E+00
  0.000000000000E+00
  0.000000000000E+00
  0.000000000000E+00
  0.000000000000E+00
  0.000000000000E+00
  0.000000000000E+00
  0.000000000000E+00
  0.000000000000E+00
  0.000000000000E+00
  0.000000000000E+00
  0.000000000000E+00
  0.000000000000E+00
 -0.306529845314E+01
 -0.306529845314E+01
 -0.230720373569E+01
 -0.230720373569E+01
  0.000000000000E+00
  0.000000000000E+00
  0.000000000000E+00
  0.000000000000E+00
 -0.126274941672E+01
 -0.126274941672E+01
  0.000000000000E+00
  0.000000000000E+00
  0.000000000000E+00
  0.000000000000E+00
  0.000000000000E+00
  0.000000000000E+00
  0.347348835819E+01
  0.347348835819E+01
  0.355610530744E+01
  0.355610530744E+01
