# vtk DataFile Version 3.0
MachLine results file. Generated by MachLine, USU AeroLab (c) 2022.
ASCII
DATASET POLYDATA
POINTS                 482 float
  0.000000000000E+00  0.000000000000E+00  0.000000000000E+00
  0.473465979099E+00  0.000000000000E+00 -0.436293870211E+00
  0.473465979099E+00  0.000000000000E+00  0.436293870211E+00
  0.757896304131E+00  0.757896304131E+00  0.000000000000E+00
  0.123136246204E+01  0.757896304131E+00 -0.436293989420E+00
  0.123136246204E+01  0.757896304131E+00  0.436293989420E+00
  0.157641971111E+01  0.000000000000E+00 -0.760520398617E+00
  0.157641971111E+01  0.000000000000E+00  0.760520398617E+00
  0.178897356987E+01  0.178897356987E+01  0.000000000000E+00
  0.226243972778E+01  0.178897356987E+01 -0.436294138432E+00
  0.226243972778E+01  0.178897356987E+01  0.436294138432E+00
  0.233431649208E+01  0.757896304131E+00 -0.760520577431E+00
  0.233431649208E+01  0.757896304131E+00  0.760520577431E+00
  0.317279767990E+01  0.317279767990E+01  0.000000000000E+00
  0.336539411545E+01  0.178897356987E+01 -0.760520815849E+00
  0.336539411545E+01  0.178897356987E+01  0.760520815849E+00
  0.342464399338E+01  0.000000000000E+00 -0.102348911762E+01
  0.342464399338E+01  0.000000000000E+00  0.102348911762E+01
  0.364626431465E+01  0.317279767990E+01 -0.436294317245E+00
  0.364626431465E+01  0.317279767990E+01  0.436294317245E+00
  0.418254137039E+01  0.757896304131E+00 -0.102348935604E+01
  0.418254137039E+01  0.757896304131E+00  0.102348935604E+01
  0.474921894073E+01  0.317279767990E+01 -0.760521173477E+00
  0.474921894073E+01  0.317279767990E+01  0.760521173477E+00
  0.499661636353E+01  0.499661636353E+01  0.000000000000E+00
  0.521361970901E+01  0.178897356987E+01 -0.102348971367E+01
  0.521361970901E+01  0.178897356987E+01  0.102348971367E+01
  0.547008323669E+01  0.499661636353E+01 -0.436294585466E+00
  0.547008323669E+01  0.499661636353E+01  0.436294585466E+00
  0.611307668686E+01  0.000000000000E+00 -0.114008128643E+01
  0.611307668686E+01  0.000000000000E+00  0.114008128643E+01
  0.657303857803E+01  0.499661636353E+01 -0.760521650314E+00
  0.657303857803E+01  0.499661636353E+01  0.760521650314E+00
  0.659744548798E+01  0.317279767990E+01 -0.102349019051E+01
  0.659744548798E+01  0.317279767990E+01  0.102349019051E+01
  0.687097454071E+01  0.757896304131E+00 -0.114008152485E+01
  0.687097454071E+01  0.757896304131E+00  0.114008152485E+01
  0.734362459183E+01  0.734362459183E+01  0.000000000000E+00
  0.781709194183E+01  0.734362459183E+01 -0.436294913292E+00
  0.781709194183E+01  0.734362459183E+01  0.436294913292E+00
  0.790205335617E+01  0.178897356987E+01 -0.114008200169E+01
  0.790205335617E+01  0.178897356987E+01  0.114008200169E+01
  0.842126560211E+01  0.499661636353E+01 -0.102349078655E+01
  0.842126560211E+01  0.499661636353E+01  0.102349078655E+01
  0.892004776001E+01  0.734362459183E+01 -0.760522186756E+00
  0.892004776001E+01  0.734362459183E+01  0.760522186756E+00
  0.928588008881E+01  0.317279767990E+01 -0.114008247852E+01
  0.928588008881E+01  0.317279767990E+01  0.114008247852E+01
  0.939508819580E+01  0.000000000000E+00 -0.980745851994E+00
  0.939508819580E+01  0.000000000000E+00  0.980745851994E+00
  0.101529865265E+02  0.757896304131E+00 -0.980746090412E+00
  0.101529865265E+02  0.757896304131E+00  0.980746090412E+00
  0.102728376389E+02  0.102728376389E+02  0.000000000000E+00
  0.107463054657E+02  0.102728376389E+02 -0.436295330524E+00
  0.107463054657E+02  0.102728376389E+02  0.436295330524E+00
  0.107682771683E+02  0.734362459183E+01 -0.102349150181E+01
  0.107682771683E+02  0.734362459183E+01  0.102349150181E+01
  0.111097030640E+02  0.499661636353E+01 -0.114008307457E+01
  0.111097030640E+02  0.499661636353E+01  0.114008307457E+01
  0.111840667725E+02  0.178897356987E+01 -0.980746388435E+00
  0.111840667725E+02  0.178897356987E+01  0.980746388435E+00
  0.118492631912E+02  0.102728376389E+02 -0.760522902012E+00
  0.118492631912E+02  0.102728376389E+02  0.760522902012E+00
  0.125678949356E+02  0.317279767990E+01 -0.980746865273E+00
  0.125678949356E+02  0.317279767990E+01  0.980746865273E+00
  0.126670312881E+02  0.000000000000E+00 -0.678052663803E+00
  0.126670312881E+02  0.000000000000E+00  0.678052663803E+00
  0.134249305725E+02  0.757896304131E+00 -0.678052842617E+00
  0.134249305725E+02  0.757896304131E+00  0.678052842617E+00
  0.134567155838E+02  0.734362459183E+01 -0.114008402824E+01
  0.134567155838E+02  0.734362459183E+01  0.114008402824E+01
  0.136974935532E+02  0.102728376389E+02 -0.102349245548E+01
  0.136974935532E+02  0.102728376389E+02  0.102349245548E+01
  0.137921218872E+02  0.137921218872E+02  0.000000000000E+00
  0.142655897141E+02  0.137921218872E+02 -0.436295837164E+00
  0.142655897141E+02  0.137921218872E+02  0.436295837164E+00
  0.143917188644E+02  0.499661636353E+01 -0.980747401714E+00
  0.143917188644E+02  0.499661636353E+01  0.980747401714E+00
  0.144560117722E+02  0.178897356987E+01 -0.678053081036E+00
  0.144560117722E+02  0.178897356987E+01  0.678053081036E+00
  0.153437566757E+02  0.000000000000E+00 -0.393031150103E+00
  0.153437566757E+02  0.000000000000E+00  0.393031150103E+00
  0.153685483932E+02  0.137921218872E+02 -0.760523796082E+00
  0.153685483932E+02  0.137921218872E+02  0.760523796082E+00
  0.158398418427E+02  0.317279767990E+01 -0.678053379059E+00
  0.158398418427E+02  0.317279767990E+01  0.678053379059E+00
  0.161016559601E+02  0.757896304131E+00 -0.393031239510E+00
  0.161016559601E+02  0.757896304131E+00  0.393031239510E+00
  0.163859348297E+02  0.102728376389E+02 -0.114008510113E+01
  0.163859348297E+02  0.102728376389E+02  0.114008510113E+01
  0.167387351990E+02  0.734362459183E+01 -0.980748176575E+00
  0.167387351990E+02  0.734362459183E+01  0.980748176575E+00
  0.171327381134E+02  0.178897356987E+01 -0.393031388521E+00
  0.171327381134E+02  0.178897356987E+01  0.393031388521E+00
  0.172004318237E+02  0.000000000000E+00 -0.192506864667E+00
  0.172004318237E+02  0.000000000000E+00  0.192506864667E+00
  0.172167816162E+02  0.137921218872E+02 -0.102349364758E+01
  0.172167816162E+02  0.137921218872E+02  0.102349364758E+01
  0.176636676788E+02  0.499661636353E+01 -0.678053736687E+00
  0.176636676788E+02  0.499661636353E+01  0.678053736687E+00
  0.178320064545E+02  0.178320064545E+02  0.000000000000E+00
  0.179583320618E+02  0.757896304131E+00 -0.192506924272E+00
  0.179583320618E+02  0.757896304131E+00  0.192506924272E+00
  0.183054752350E+02  0.178320064545E+02 -0.436296403408E+00
  0.183054752350E+02  0.178320064545E+02  0.436296403408E+00
  0.183450412750E+02  0.000000000000E+00 -0.698660761118E-01
  0.183450412750E+02  0.000000000000E+00  0.698660761118E-01
  0.185165691376E+02  0.317279767990E+01 -0.393031567335E+00
  0.185165691376E+02  0.317279767990E+01  0.393031567335E+00
  0.189894161224E+02  0.178897356987E+01 -0.192506983876E+00
  0.189894161224E+02  0.178897356987E+01  0.192506983876E+00
  0.190000000000E+02  0.000000000000E+00  0.000000000000E+00
  0.191029415131E+02  0.757896304131E+00 -0.698660910130E-01
  0.191029415131E+02  0.757896304131E+00  0.698660910130E-01
  0.194084339142E+02  0.178320064545E+02 -0.760524809361E+00
  0.194084339142E+02  0.178320064545E+02  0.760524809361E+00
  0.196679573059E+02  0.102728376389E+02 -0.980749070644E+00
  0.196679573059E+02  0.102728376389E+02  0.980749070644E+00
  0.197579002380E+02  0.757896304131E+00  0.000000000000E+00
  0.199052257538E+02  0.137921218872E+02 -0.114008641243E+01
  0.199052257538E+02  0.137921218872E+02  0.114008641243E+01
  0.200106849670E+02  0.734362459183E+01 -0.678054273129E+00
  0.200106849670E+02  0.734362459183E+01  0.678054273129E+00
  0.201340255737E+02  0.178897356987E+01 -0.698661133647E-01
  0.201340255737E+02  0.178897356987E+01  0.698661133647E-01
  0.203403968811E+02  0.499661636353E+01 -0.393031775951E+00
  0.203403968811E+02  0.499661636353E+01  0.393031775951E+00
  0.203732471466E+02  0.317279767990E+01 -0.192507073283E+00
  0.203732471466E+02  0.317279767990E+01  0.192507073283E+00
  0.207889842987E+02  0.178897356987E+01  0.000000000000E+00
  0.212566699982E+02  0.178320064545E+02 -0.102349495888E+01
  0.212566699982E+02  0.178320064545E+02  0.102349495888E+01
  0.215178565979E+02  0.317279767990E+01 -0.698661431670E-01
  0.215178565979E+02  0.317279767990E+01  0.698661431670E-01
  0.221728172302E+02  0.317279767990E+01  0.000000000000E+00
  0.221970767975E+02  0.499661636353E+01 -0.192507177591E+00
  0.221970767975E+02  0.499661636353E+01  0.192507177591E+00
  0.222339305878E+02  0.222339305878E+02  0.000000000000E+00
  0.226874179840E+02  0.734362459183E+01 -0.393032073975E+00
  0.226874179840E+02  0.734362459183E+01  0.393032073975E+00
  0.227074012756E+02  0.222339305878E+02 -0.436297029257E+00
  0.227074012756E+02  0.222339305878E+02  0.436297029257E+00
  0.229399108887E+02  0.102728376389E+02 -0.678054928780E+00
  0.229399108887E+02  0.102728376389E+02  0.678054928780E+00
  0.231872520447E+02  0.137921218872E+02 -0.980750203133E+00
  0.231872520447E+02  0.137921218872E+02  0.980750203133E+00
  0.233416862488E+02  0.499661636353E+01 -0.698661878705E-01
  0.233416862488E+02  0.499661636353E+01  0.698661878705E-01
  0.238103618622E+02  0.222339305878E+02 -0.760525882244E+00
  0.238103618622E+02  0.222339305878E+02  0.760525882244E+00
  0.239451179504E+02  0.178320064545E+02 -0.114008784294E+01
  0.239451179504E+02  0.178320064545E+02  0.114008784294E+01
  0.239966468811E+02  0.499661636353E+01  0.000000000000E+00
  0.245440979004E+02  0.734362459183E+01 -0.192507326603E+00
  0.245440979004E+02  0.734362459183E+01  0.192507326603E+00
  0.256166458130E+02  0.102728376389E+02 -0.393032461405E+00
  0.256166458130E+02  0.102728376389E+02  0.393032461405E+00
  0.256585998535E+02  0.222339305878E+02 -0.102349650860E+01
  0.256585998535E+02  0.222339305878E+02  0.102349650860E+01
  0.256887092590E+02  0.734362459183E+01 -0.698662400246E-01
  0.256887092590E+02  0.734362459183E+01  0.698662400246E-01
[...]
CELL_DATA                 904
SCALARS C_p_inc float 1
LOOKUP_TABLE default
  0.151939602341E+00
  0.122359862387E+00
  0.855078683137E-01
  0.634180638839E-01
  0.423203691922E-01
  0.299348397063E-01
  0.435218936840E-02
 -0.532898564342E-02
 -0.322948218098E-01
 -0.398190131012E-01
 -0.443117893377E-01
 -0.474246275283E-01
  0.419186601496E-01
  0.953531317408E-02
  0.182640265707E+00
  0.132912498277E+00
  0.388878196376E+00
  0.325492498156E+00
  0.671634149811E+00
  0.680790718416E+00
 -0.443275733022E-01
  0.246461471908E+00
 -0.459772651808E+00
 -0.240022132096E+00
 -0.450085090664E+00
 -0.375291024296E+00
 -0.460403676568E+00
 -0.434126780794E+00
 -0.418118813567E+00
 -0.434285743110E+00
 -0.336157118863E+00
 -0.311274107703E+00
 -0.225285084953E+00
 -0.198294372345E+00
 -0.131110687641E+00
 -0.983032169645E-01
 -0.493739030123E-01
  0.148347998190E-02
  0.586771219477E-01
  0.124424482360E+00
  0.149176653143E+00
  0.150263300196E+00
  0.931398339489E-01
  0.852758681899E-01
  0.553586265637E-01
  0.423211367243E-01
  0.139604942091E-01
  0.443185602118E-02
 -0.273417326905E-01
 -0.323291784237E-01
 -0.478227076004E-01
 -0.530643855013E-01
  0.111622976754E-01
 -0.118722853406E-01
  0.132535954774E+00
  0.106957028032E+00
  0.305043550052E+00
  0.296177344570E+00
  0.567285057241E+00
  0.551959321613E+00
 -0.238748152993E+00
 -0.860632333327E-01
 -0.582964985972E+00
 -0.435659670787E+00
 -0.525711083553E+00
 -0.447010413651E+00
 -0.494266748505E+00
 -0.463714728929E+00
 -0.413747054859E+00
 -0.423431554985E+00
 -0.310997900946E+00
 -0.289552582571E+00
 -0.197860154717E+00
 -0.168591389034E+00
 -0.981713732537E-01
 -0.615703107904E-01
  0.974240068004E-03
  0.311944673618E-01
  0.120557379448E+00
  0.130656447851E+00
  0.147906849551E+00
  0.148369757266E+00
  0.938887536259E-01
  0.927945160628E-01
  0.621476359987E-01
  0.552772438910E-01
  0.232597155925E-01
  0.140342994093E-01
 -0.217346875022E-01
 -0.273287565551E-01
 -0.530921211402E-01
 -0.551565314048E-01
 -0.104658737432E-01
 -0.226890342258E-01
  0.105192130272E+00
  0.927208124289E-01
  0.284845279596E+00
  0.285994909648E+00
  0.530168585653E+00
  0.512698292423E+00
 -0.383318202786E+00
 -0.254092938391E+00
 -0.691422321637E+00
 -0.568330165748E+00
 -0.590173873505E+00
 -0.519657133700E+00
 -0.522102011419E+00
 -0.496589665256E+00
 -0.410557657536E+00
 -0.420727905908E+00
 -0.289611756552E+00
 -0.267575909820E+00
 -0.168155021888E+00
 -0.138413865893E+00
 -0.615585471909E-01
 -0.351838500404E-01
  0.303789427818E-01
  0.439230489189E-01
  0.128761329502E+00
  0.133638714978E+00
  0.147852517375E+00
  0.147340918036E+00
  0.940313145827E-01
  0.936080188352E-01
  0.642673369192E-01
  0.620181211537E-01
  0.292529814485E-01
  0.233104024590E-01
 -0.155790849796E-01
 -0.216469574479E-01
 -0.553410560858E-01
 -0.533013650656E-01
 -0.221457883064E-01
 -0.254795056095E-01
  0.915331920888E-01
  0.895386533719E-01
  0.280751133011E+00
  0.287577678097E+00
  0.508043368784E+00
  0.490259256672E+00
 -0.504282262477E+00
 -0.389854064527E+00
 -0.782882416844E+00
 -0.682343004214E+00
 -0.642433455090E+00
 -0.587137843842E+00
 -0.543918871512E+00
 -0.526145894404E+00
 -0.405841789942E+00
 -0.418367595421E+00
 -0.267961996877E+00
 -0.246475946824E+00
 -0.138095340217E+00
 -0.115157657105E+00
 -0.352744932509E-01
 -0.204713096111E-01
  0.434770883786E-01
  0.509977213984E-01
  0.132853287146E+00
  0.136132927258E+00
  0.148084929604E+00
  0.147382992304E+00
  0.943026284725E-01
  0.937888345646E-01
  0.650565274036E-01
  0.641367709329E-01
  0.319653096967E-01
  0.292600990179E-01
 -0.106942878769E-01
 -0.154407600233E-01
 -0.535837661193E-01
 -0.487231433747E-01
 -0.253990302798E-01
 -0.219834657306E-01
  0.891430789495E-01
  0.944744503994E-01
  0.286417686046E+00
  0.296834541805E+00
  0.493980120208E+00
  0.476410310835E+00
 -0.604489822287E+00
 -0.506707977014E+00
 -0.855831463789E+00
 -0.778753548531E+00
 -0.681538912251E+00
 -0.642828502524E+00
 -0.558316923414E+00
 -0.549366857861E+00
 -0.400135043006E+00
 -0.413414649539E+00
 -0.246999484838E+00
 -0.230429114846E+00
 -0.115059920949E+00
 -0.101406442050E+00
 -0.205092322198E-01
 -0.123374431126E-01
  0.509053568895E-01
  0.555502762054E-01
  0.136036577009E+00
  0.138627892249E+00
  0.148701603625E+00
  0.147663266793E+00
  0.947482607574E-01
  0.940729663647E-01
  0.656061145889E-01
  0.649234626598E-01
  0.332992235731E-01
  0.319429216172E-01
 -0.764407420962E-02
 -0.105630476591E-01
 -0.489148806132E-01
 -0.437484093748E-01
 -0.220630181968E-01
 -0.152701780101E-01
  0.946063582854E-01
  0.103777336221E+00
  0.297923090523E+00
  0.309685442737E+00
  0.483931233633E+00
  0.467451543323E+00
 -0.683746663764E+00
 -0.605158434409E+00
 -0.910103390986E+00
 -0.855212734916E+00
 -0.708544041921E+00
 -0.684077944456E+00
 -0.567108439780E+00
 -0.563870230764E+00
 -0.396294425736E+00
 -0.406065217828E+00
 -0.231016235787E+00
 -0.221379862096E+00
 -0.101470462587E+00
 -0.942966730257E-01
 -0.123126939347E-01
 -0.779377111846E-02
  0.556674861877E-01
  0.584939952728E-01
  0.138894829860E+00
  0.140550890301E+00
  0.149084747811E+00
  0.148275335237E+00
  0.950867777953E-01
  0.945117158498E-01
  0.660146553771E-01
  0.654633619515E-01
  0.341477657089E-01
  0.332570003100E-01
 -0.565755207209E-02
 -0.754467709486E-02
 -0.438004610674E-01
 -0.396925026508E-01
 -0.153382101960E-01
 -0.845660361243E-02
  0.104095957635E+00
  0.113673279878E+00
  0.311477399833E+00
  0.322356191975E+00
  0.475281704048E+00
  0.460986973278E+00
 -0.743496899820E+00
 -0.683856373900E+00
 -0.948595967870E+00
 -0.911088438135E+00
 -0.726924991646E+00
 -0.711425012811E+00
 -0.573546088760E+00
 -0.571367387035E+00
 -0.395415237122E+00
 -0.400065498088E+00
 -0.221995712321E+00
 -0.217390014814E+00
 -0.944413417639E-01
 -0.908165026174E-01
 -0.774323920662E-02
 -0.516861787796E-02
  0.587094381631E-01
  0.605696991745E-01
  0.141008474626E+00
  0.142377828502E+00
  0.149193020272E+00
  0.148633856474E+00
  0.950716645716E-01
  0.948297530785E-01
  0.660385239930E-01
  0.658555302562E-01
  0.345152522369E-01
  0.340885565543E-01
 -0.440958137169E-02
 -0.558825302683E-02
 -0.396621340666E-01
 -0.367738949441E-01
 -0.847993768041E-02
 -0.310331530783E-02
  0.113939496736E+00
  0.121736380298E+00
  0.323872070820E+00
  0.332430476957E+00
  0.467038564398E+00
  0.455695874153E+00
 -0.787060841140E+00
 -0.743504834209E+00
 -0.975630767626E+00
 -0.949684186382E+00
 -0.739931560727E+00
 -0.729022109048E+00
 -0.578883989148E+00
 -0.576190570658E+00
 -0.396119225484E+00
 -0.397598939684E+00
 -0.217985036395E+00
 -0.215827057126E+00
 -0.909977880782E-01
 -0.888872533027E-01
 -0.511852887581E-02
 -0.328756259770E-02
  0.608183752085E-01
  0.623621236524E-01
  0.142910601037E+00
  0.144154345045E+00
  0.148614148469E+00
  0.148668507116E+00
  0.942997305357E-01
  0.947699156107E-01
  0.652530453013E-01
  0.658510200336E-01
  0.340091728208E-01
  0.344376814684E-01
 -0.417836267370E-02
 -0.436364756860E-02
 -0.367029271637E-01
 -0.352533932968E-01
 -0.310103504500E-02
  0.262541025569E-03
  0.121868214414E+00
  0.127142108189E+00
  0.333359018905E+00
  0.339212964100E+00
  0.459534740024E+00
  0.451392174144E+00
 -0.817154024418E+00
 -0.787063814578E+00
 -0.993872295603E+00
 -0.976325161614E+00
 -0.748707294056E+00
 -0.741215723077E+00
 -0.582609418966E+00
 -0.580486522128E+00
 -0.396692577977E+00
 -0.397517705941E+00
 -0.216377786815E+00
 -0.214678938536E+00
 -0.890880303807E-01
 -0.870114667729E-01
 -0.324832010084E-02
 -0.112272472860E-02
  0.626258665736E-01
  0.646258253260E-01
  0.144748636477E+00
  0.146504592206E+00
  0.147191033045E+00
  0.147938708253E+00
  0.923724866301E-01
  0.939069063967E-01
  0.631298089078E-01
  0.650102784542E-01
  0.320431747068E-01
  0.339044010008E-01
 -0.553627261759E-02
 -0.414996087415E-02
 -0.351462010447E-01
 -0.356382023528E-01
  0.274888048653E-03
  0.124241269911E-02
  0.127124834965E+00
  0.129638534453E+00
  0.339578830699E+00
  0.342771900015E+00
  0.453418214837E+00
  0.448548032682E+00
 -0.834780684076E+00
 -0.817155851259E+00
 -0.100405327352E+01
 -0.994310269490E+00
 -0.753085786778E+00
 -0.749601142570E+00
 -0.583747658780E+00
 -0.583821458792E+00
 -0.395682504439E+00
 -0.397880526022E+00
 -0.215191964165E+00
 -0.212408268290E+00
 -0.872354631684E-01
 -0.838955289779E-01
 -0.109733933710E-02
  0.239084594820E-02
  0.649175062620E-01
  0.682207741522E-01
  0.147204897165E+00
  0.150009809588E+00
  0.144732689300E+00
  0.146212558602E+00
  0.888917336897E-01
  0.917961403435E-01
  0.591033736883E-01
  0.627750494569E-01
  0.279295154387E-01
  0.318874068422E-01
 -0.921226704260E-02
 -0.552357909598E-02
 -0.354808463805E-01
 -0.386128129424E-01
  0.125582865454E-02
 -0.687985296558E-03
  0.129443509303E+00
  0.128942266351E+00
  0.342596914932E+00
  0.343153669791E+00
  0.449096840461E+00
  0.447640879740E+00
 -0.839933331615E+00
 -0.834780823617E+00
 -0.100598758151E+01
 -0.100447823008E+01
 -0.752462436211E+00
 -0.753975495642E+00
 -0.581268755668E+00
 -0.585046684410E+00
 -0.391767263430E+00
 -0.397073396513E+00
 -0.212910434671E+00
 -0.207597793001E+00
 -0.841675620979E-01
 -0.781355225884E-01
  0.239637187273E-02
  0.859724744019E-02
  0.685778167700E-01
  0.743965967118E-01
  0.150938397358E+00
  0.155789222768E+00
  0.141397521454E+00
  0.143209258594E+00
  0.838461229074E-01
  0.879706469652E-01
  0.529320969908E-01
  0.585279596938E-01
  0.211469179574E-01
  0.276691258285E-01
 -0.159587521794E-01
 -0.922282750682E-02
 -0.383836069742E-01
 -0.450019203661E-01
 -0.682337979123E-03
 -0.621525494265E-02
  0.128499068654E+00
  0.124622623343E+00
  0.342343614688E+00
  0.340213705639E+00
  0.446707765935E+00
  0.448835745724E+00
 -0.832533279496E+00
 -0.839933456473E+00
 -0.999363169665E+00
 -0.100658276645E+01
 -0.746213489545E+00
 -0.753635906280E+00
 -0.574157677344E+00
 -0.583045615353E+00
 -0.383559515575E+00
 -0.393775433462E+00
 -0.208124762705E+00
 -0.198646274833E+00
 -0.785080570508E-01
 -0.679924195232E-01
  0.855800154684E-02
  0.192276672643E-01
  0.748647615960E-01
  0.848260821072E-01
  0.157134285913E+00
  0.165496478023E+00
  0.137724092720E+00
  0.139013985762E+00
  0.779390639828E-01
  0.823442087982E-01
  0.453432198989E-01
  0.519526401723E-01
  0.121250121324E-01
  0.206690876054E-01
 -0.260184726040E-01
 -0.160246573509E-01
 -0.446868796317E-01
 -0.556136704117E-01
 -0.623451275207E-02
 -0.162083475509E-01
  0.123799117773E+00
  0.116075018558E+00
  0.338525907316E+00
  0.333628224754E+00
  0.446050780162E+00
  0.451871626296E+00
 -0.813098619170E+00
 -0.832532497495E+00
 -0.984220249460E+00
 -0.100024571154E+01
 -0.733909520145E+00
 -0.747908956670E+00
 -0.561406755748E+00
 -0.576833575210E+00
 -0.369408067519E+00
 -0.386758745955E+00
 -0.199229204418E+00
 -0.183593441995E+00
 -0.685660138389E-01
 -0.515364103788E-01
  0.190589636574E-01
  0.359327559204E-01
  0.854032838035E-01
  0.101013286907E+00
  0.167449510970E+00
  0.180785021312E+00
  0.133341305649E+00
  0.134107850068E+00
  0.713132092636E-01
  0.755675615135E-01
  0.374205247442E-01
  0.437088337962E-01
  0.274655973802E-02
  0.112197195259E-01
 -0.378582038972E-01
 -0.262418732185E-01
 -0.552668929225E-01
 -0.704720672397E-01
 -0.163056116671E-01
 -0.316922087305E-01
  0.114632133855E+00
  0.102402811052E+00
  0.330614343370E+00
  0.322841661044E+00
  0.446450808687E+00
  0.456027758424E+00
 -0.783028588661E+00
 -0.813091783012E+00
 -0.961158317413E+00
 -0.985439009350E+00
 -0.715367734215E+00
 -0.736350361759E+00
 -0.541881380455E+00
 -0.565557402932E+00
 -0.347119891257E+00
 -0.374777961810E+00
 -0.184261781660E+00
 -0.160485907301E+00
 -0.525222927720E-01
 -0.279390644510E-01
  0.353736494321E-01
  0.586830746266E-01
  0.101463677552E+00
  0.122760309665E+00
  0.183277504343E+00
  0.201732484864E+00
  0.124384324070E+00
  0.127767800286E+00
  0.610351676161E-01
  0.676407261549E-01
  0.279648993035E-01
  0.348311116155E-01
 -0.591151903453E-02
  0.111625449380E-02
 -0.481041037631E-01
 -0.385045797907E-01
 -0.703728012610E-01
 -0.866912638800E-01
 -0.320582131895E-01
 -0.532588999074E-01
  0.998691898717E-01
  0.821039371691E-01
  0.317689087468E+00
  0.306809473168E+00
  0.446586389654E+00
  0.460141914952E+00
 -0.744453417525E+00
 -0.783010907369E+00
 -0.931219392595E+00
 -0.962669339315E+00
 -0.690355801386E+00
 -0.718812310784E+00
 -0.513613829122E+00
 -0.548549275392E+00
 -0.314027298150E+00
 -0.356573527659E+00
 -0.161354233988E+00
 -0.129778782238E+00
 -0.297847986094E-01
  0.312451348576E-03
  0.570510430536E-01
  0.848605024222E-01
  0.122233669859E+00
  0.148249266699E+00
  0.203936378238E+00
  0.227674182753E+00
  0.102503145763E+00
  0.115066364062E+00
  0.406593870338E-01
  0.551625126382E-01
  0.128649402552E-01
  0.239669672604E-01
 -0.159035701004E-01
 -0.861015403005E-02
 -0.556259022741E-01
 -0.496455925431E-01
 -0.874915512201E-01
 -0.983607192430E-01
 -0.544777406002E-01
 -0.779940913736E-01
  0.774197793126E-01
  0.527800465874E-01
  0.297889685327E+00
  0.283305058387E+00
  0.444161948100E+00
  0.462575278191E+00
 -0.699713503378E+00
 -0.744439725422E+00
 -0.895312697097E+00
 -0.932847972137E+00
 -0.657290031986E+00
 -0.695359049496E+00
 -0.472267382157E+00
 -0.525347706433E+00
 -0.270828007163E+00
 -0.330919101546E+00
 -0.131196239619E+00
 -0.969016853073E-01
 -0.322788880285E-02
  0.282783335802E-01
  0.807213827515E-01
  0.111199294057E+00
  0.144791395767E+00
  0.176498336500E+00
  0.227396262208E+00
  0.260164752941E+00
  0.486880708599E-01
  0.849772914396E-01
 -0.141905168369E-02
  0.306281668054E-01
 -0.139377963013E-01
  0.656889137898E-02
 -0.311179721059E-01
 -0.201947277774E-01
 -0.632057076899E-01
 -0.587149954509E-01
 -0.100916208573E+00
 -0.104101045262E+00
 -0.812730924291E-01
 -0.963615796081E-01
  0.435088814730E-01
  0.135796489791E-01
  0.266717346165E+00
  0.247138693723E+00
  0.434729721073E+00
  0.460751401595E+00
 -0.650624923226E+00
 -0.699806849849E+00
 -0.852488357935E+00
 -0.896757385564E+00
 -0.608646066469E+00
 -0.666152363969E+00
 -0.415486445429E+00
 -0.494567099953E+00
 -0.226243667110E+00
 -0.299387201440E+00
 -0.994905674907E-01
 -0.688645212966E-01
  0.214727560513E-01
  0.508681445130E-01
  0.101774550578E+00
  0.134751653824E+00
  0.166055804991E+00
  0.209319875532E+00
  0.252253303349E+00
  0.308526351004E+00
 -0.927304672022E-01
  0.104304146943E-01
 -0.902400268168E-01
 -0.205711045235E-01
 -0.629070552264E-01
 -0.250199109662E-01
 -0.576461563596E-01
 -0.384822606559E-01
 -0.759191716430E-01
 -0.690822697355E-01
 -0.109388570461E+00
 -0.108785409076E+00
 -0.103465717274E+00
 -0.104862856013E+00
 -0.433440078033E-02
 -0.237908015667E-01
  0.211318625587E+00
  0.186364961762E+00
  0.405795015034E+00
  0.448615375612E+00
 -0.597196868376E+00
 -0.651348610471E+00
 -0.791297327701E+00
 -0.854192646900E+00
 -0.527457444509E+00
 -0.629827488896E+00
 -0.357035092890E+00
 -0.455754630697E+00
 -0.189001519636E+00
 -0.272720992522E+00
 -0.743578173633E-01
 -0.531778110567E-01
  0.368152016806E-01
  0.603610007950E-01
  0.113265523691E+00
  0.148140489054E+00
  0.181681375889E+00
  0.246895692325E+00
  0.277680360876E+00
  0.398558481915E+00
 -0.480354058002E+00
 -0.196284848453E+00
 -0.281537118040E+00
 -0.148383990675E+00
 -0.178088233473E+00
 -0.972561372722E-01
 -0.123752463432E+00
 -0.777497009171E-01
 -0.109310711432E+00
 -0.904388234545E-01
 -0.122470972743E+00
 -0.122031818591E+00
 -0.120288186312E+00
 -0.117078624087E+00
 -0.599787601497E-01
 -0.585989578384E-01
  0.968152298700E-01
  0.917358212719E-01
  0.276856422184E+00
  0.382912831312E+00
 -0.507783294011E+00
 -0.602644326794E+00
 -0.618466167282E+00
 -0.808603651895E+00
 -0.430987182391E+00
 -0.581686576837E+00
 -0.316704724844E+00
 -0.433253706108E+00
 -0.168372103514E+00
 -0.281821243542E+00
 -0.769270436750E-01
 -0.787792277043E-01
  0.128156600957E-01
  0.159771262835E-01
  0.704480631377E-01
  0.939207058030E-01
  0.139177231712E+00
  0.212937561427E+00
  0.269889391253E+00
  0.493688659326E+00
 -0.121816874759E+01
 -0.120360094799E+01
 -0.618747697989E+00
 -0.607483530235E+00
 -0.319718998964E+00
 -0.323616458040E+00
 -0.185470235481E+00
 -0.204717615092E+00
 -0.147736068210E+00
 -0.168577591247E+00
 -0.163857108216E+00
 -0.158505908444E+00
 -0.167003288969E+00
 -0.130600222345E+00
 -0.150527483359E+00
 -0.792766018792E-01
 -0.104564107673E+00
  0.133118793473E-01
 -0.517489816625E+00
 -0.521780923706E+00
 -0.667177189518E+00
 -0.418057436733E+00
 -0.522195262332E+00
 -0.339771407931E+00
 -0.442935635664E+00
 -0.212801534090E+00
 -0.360662929438E+00
 -0.146772698305E+00
 -0.248591813811E+00
 -0.124259792362E+00
 -0.319237313952E+00
 -0.202097174822E+00
 -0.584379258018E+00
 -0.390089687909E+00
 -0.117843450628E+01
 -0.609622041645E+00
 -0.209960024331E+01
 -0.210369660029E+01
 -0.103668198764E+01
 -0.103661477921E+01
 -0.537477274916E+00
 -0.548988080756E+00
 -0.308654287183E+00
 -0.333136234688E+00
 -0.225910866531E+00
 -0.248064564283E+00
 -0.226303352673E+00
 -0.225276924841E+00
 -0.232476493799E+00
 -0.209156869547E+00
 -0.234495827229E+00
 -0.192659826019E+00
 -0.236832950629E+00
 -0.965748379918E-01
 -0.503047804913E+00
 -0.494183351118E+00
 -0.597106820767E+00
 -0.434015419790E+00
 -0.502332126985E+00
 -0.379211173246E+00
 -0.458035031844E+00
 -0.271626318915E+00
 -0.428165459372E+00
 -0.246321040368E+00
 -0.390240824588E+00
 -0.290945168714E+00
 -0.579729076920E+00
 -0.493527166960E+00
 -0.107648609345E+01
 -0.927628093288E+00
 -0.216566144028E+01
 -0.165741102892E+01
 -0.293539399744E+01
 -0.293698179840E+01
 -0.141827877119E+01
 -0.143023258340E+01
 -0.735089876709E+00
 -0.760237317499E+00
 -0.421964802318E+00
 -0.459785335563E+00
 -0.300494000102E+00
 -0.332687972384E+00
 -0.291544928848E+00
 -0.299766981596E+00
 -0.300372128617E+00
 -0.287017329432E+00
 -0.309730636812E+00
 -0.288339914827E+00
 -0.336074856769E+00
 -0.193825810260E+00
 -0.452658146327E+00
 -0.477037688092E+00
 -0.522649667141E+00
 -0.436343293814E+00
 -0.466306519600E+00
 -0.397188476224E+00
 -0.451683525613E+00
 -0.315493779521E+00
 -0.462308692845E+00
 -0.325397435850E+00
 -0.492683970354E+00
 -0.427322270074E+00
 -0.777200143825E+00
 -0.731917923875E+00
 -0.145962331456E+01
 -0.138201592610E+01
 -0.298614833109E+01
 -0.265576626477E+01
 -0.342127879857E+01
 -0.348258738685E+01
 -0.164380163187E+01
 -0.169596611789E+01
 -0.850521571158E+00
 -0.907853596801E+00
 -0.487138891870E+00
 -0.554502966858E+00
 -0.344709853408E+00
 -0.399601364261E+00
 -0.341547176051E+00
 -0.367189752926E+00
 -0.359469755623E+00
 -0.358701301253E+00
 -0.372533976365E+00
 -0.373578958597E+00
 -0.406394319435E+00
 -0.288856802453E+00
 -0.377607824931E+00
 -0.459648562562E+00
 -0.444453157716E+00
 -0.419476414218E+00
 -0.416031472363E+00
 -0.389854003236E+00
 -0.422505956054E+00
 -0.336384376178E+00
 -0.460127274194E+00
 -0.370984336298E+00
 -0.541550705649E+00
 -0.509628385637E+00
 -0.881709807998E+00
 -0.872712653072E+00
 -0.166729765315E+01
 -0.165429180205E+01
 -0.345220154892E+01
 -0.332327327962E+01
SCALARS sigma float 1
LOOKUP_TABLE default
  0.000000000000E+00
  0.000000000000E+00
  0.000000000000E+00
  0.000000000000E+00
  0.000000000000E+00
  0.000000000000E+00
  0.000000000000E+00
  0.000000000000E+00
  0.000000000000E+00
  0.000000000000E+00
  0.000000000000E+00
  0.000000000000E+00
  0.000000000000E+00
  0.000000000000E+00
  0.000000000000E+00
  0.000000000000E+00
  0.000000000000E+00
  0.000000000000E+00
  0.000000000000E+00
  0.000000000000E+00
  0.000000000000E+00
  0.000000000000E+00
  0.000000000000E+00
  0.000000000000E+00
  0.000000000000E+00
  0.000000000000E+00
  0.000000000000E+00
  0.000000000000E+00
  0.000000000000E+00
  0.000000000000E+00
  0.000000000000E+00
  0.000000000000E+00
  0.000000000000E+00
  0.000000000000E+00
  0.000000000000E+00
  0.000000000000E+00
  0.000000000000E+00
  0.000000000000E+00
  0.000000000000E+00
  0.000000000000E+00
  0.000000000000E+00
  0.000000000000E+00