# vtk DataFile Version 3.0
MachLine results file. Generated by MachLine, USU AeroLab (c) 2022.
ASCII
DATASET POLYDATA
POINTS                 114 float
  0.000000000000E+00  0.000000000000E+00  0.000000000000E+00
  0.994150963972E+04  0.000000000000E+00  0.107999355706E+04
  0.113538098335E+01  0.000000000000E+00 -0.658124566078E+00
  0.994159354395E+04  0.000000000000E+00  0.107922120556E+04
  0.113538098335E+01  0.000000000000E+00  0.658124566078E+00
  0.994145222135E+04  0.000000000000E+00  0.108052210215E+04
  0.192375373840E+01  0.192375373840E+01  0.000000000000E+00
  0.994153207812E+04  0.192375373840E+01  0.107978700812E+04
  0.305913543701E+01  0.192375373840E+01 -0.658124983311E+00
  0.994161598239E+04  0.192375373840E+01  0.107901465613E+04
  0.305913543701E+01  0.192375373840E+01  0.658124983311E+00
  0.994147465971E+04  0.192375373840E+01  0.108031555354E+04
  0.423028087616E+01  0.000000000000E+00 -0.108747220039E+01
  0.994167574048E+04  0.000000000000E+00  0.107846457361E+04
  0.423028087616E+01  0.000000000000E+00  0.108747220039E+01
  0.994144222178E+04  0.000000000000E+00  0.108061414976E+04
  0.615403699875E+01  0.192375373840E+01  0.108747279644E+01
  0.994146466014E+04  0.192375373840E+01  0.108040760115E+04
  0.660571479797E+01  0.547033166885E+01 -0.658125698566E+00
  0.994165734928E+04  0.547033166885E+01  0.107863386748E+04
  0.125173873901E+02  0.113820018768E+02 -0.658127009869E+00
  0.994172630235E+04  0.113820018768E+02  0.107799914371E+04
  0.156122989655E+02  0.113820018768E+02 -0.108747613430E+01
  0.994180849918E+04  0.113820018768E+02  0.107724250903E+04
  0.156122989655E+02  0.113820018768E+02  0.108747613430E+01
  0.994157497963E+04  0.113820018768E+02  0.107939209296E+04
  0.164639663696E+02  0.192375373840E+01 -0.479613333941E+00
  0.994175316810E+04  0.192375373840E+01  0.107775184027E+04
  0.176505107880E+02  0.000000000000E+00 -0.144198849797E+00
  0.994173099512E+04  0.000000000000E+00  0.107795594602E+04
  0.176505107880E+02  0.000000000000E+00  0.144198849797E+00
  0.994170003053E+04  0.000000000000E+00  0.107824097989E+04
  0.190000000000E+02  0.000000000000E+00  0.000000000000E+00
  0.994173125308E+04  0.000000000000E+00  0.107795357145E+04
  0.195742740631E+02  0.192375373840E+01 -0.144198939204E+00
  0.994175343363E+04  0.192375373840E+01  0.107774939596E+04
  0.195742740631E+02  0.192375373840E+01  0.144198939204E+00
  0.994172246903E+04  0.192375373840E+01  0.107803443001E+04
  0.197561950684E+02  0.197561950684E+02  0.000000000000E+00
  0.994174007323E+04  0.197561950684E+02  0.107787238055E+04
  0.209237651825E+02  0.192375373840E+01  0.000000000000E+00
  0.994175369161E+04  0.192375373840E+01  0.107774702128E+04
  0.244703655243E+02  0.547033166885E+01  0.000000000000E+00
  0.994179505866E+04  0.547033166885E+01  0.107736623109E+04
  0.292438049316E+02  0.292438049316E+02  0.000000000000E+00
  0.994185073539E+04  0.292438049316E+02  0.107685371805E+04
  0.303791980743E+02  0.292438049316E+02 -0.658130764961E+00
  0.994193464042E+04  0.292438049316E+02  0.107608135912E+04
  0.303820724487E+02  0.113820018768E+02  0.000000000000E+00
  0.994186401199E+04  0.113820018768E+02  0.107673150493E+04
  0.342964897156E+02  0.197561950684E+02 -0.479616105556E+00
  0.994196116447E+04  0.197561950684E+02  0.107583720116E+04
  0.342964897156E+02  0.197561950684E+02  0.479616105556E+00
  0.994185817395E+04  0.197561950684E+02  0.107678524502E+04
  0.386389808655E+02  0.292438049316E+02  0.980755090714E+00
  0.994185501804E+04  0.292438049316E+02  0.107681429566E+04
  0.387533912659E+02  0.376179962158E+02 -0.658132553101E+00
  0.994203231604E+04  0.376179962158E+02  0.107518223980E+04
  0.387563171387E+02  0.197561950684E+02  0.000000000000E+00
  0.994196168801E+04  0.197561950684E+02  0.107583238184E+04
  0.446650657654E+02  0.435296669006E+02  0.658133804798E+00
  0.994195994455E+04  0.435296669006E+02  0.107584843073E+04
  0.477600097656E+02  0.435296669006E+02 -0.108748745918E+01
  0.994218346682E+04  0.435296669006E+02  0.107379087324E+04
  0.477600097656E+02  0.435296669006E+02  0.108748745918E+01
  0.994194994484E+04  0.435296669006E+02  0.107594047956E+04
  0.482116432190E+02  0.470762481689E+02 -0.658134579659E+00
  0.994214263599E+04  0.470762481689E+02  0.107416672738E+04
  0.482439842224E+02  0.292438049316E+02  0.000000000000E+00
  0.994207235084E+04  0.292438049316E+02  0.107481371319E+04
  0.490000000000E+02  0.490000000000E+02  0.000000000000E+00
  0.994208116890E+04  0.490000000000E+02  0.107473254154E+04
  0.501353988647E+02  0.490000000000E+02 -0.658134996891E+00
  0.994216507446E+04  0.490000000000E+02  0.107396017782E+04
  0.501353988647E+02  0.490000000000E+02  0.658134996891E+00
  0.994202374962E+04  0.490000000000E+02  0.107526109502E+04
  0.566182289124E+02  0.376179962158E+02  0.000000000000E+00
  0.994217002687E+04  0.376179962158E+02  0.107391459011E+04
  0.580700759888E+02  0.435296669006E+02  0.479619771242E+00
  0.994213546535E+04  0.435296669006E+02  0.107423273423E+04
  0.583952369690E+02  0.490000000000E+02 -0.980761349201E+00
  0.994229605570E+04  0.490000000000E+02  0.107275447502E+04
  0.611804275513E+02  0.435296669006E+02 -0.144200876355E+00
  0.994223872223E+04  0.435296669006E+02  0.107328223856E+04
  0.611804275513E+02  0.435296669006E+02  0.144200876355E+00
  0.994220775720E+04  0.435296669006E+02  0.107356727643E+04
  0.625299339294E+02  0.435296669006E+02  0.000000000000E+00
  0.994223898017E+04  0.435296669006E+02  0.107327986415E+04
  0.635404319763E+02  0.490000000000E+02  0.479620635509E+00
  0.994219927073E+04  0.490000000000E+02  0.107364539574E+04
  0.638795776367E+02  0.493391418457E+02 -0.339143037796E+00
  0.994229113522E+04  0.493391418457E+02  0.107279976874E+04
  0.660765380859E+02  0.470762481689E+02  0.000000000000E+00
  0.994228034727E+04  0.470762481689E+02  0.107289907355E+04
  0.666507873535E+02  0.490000000000E+02  0.144201144576E+00
  0.994227156269E+04  0.490000000000E+02  0.107297993695E+04
  0.667527542114E+02  0.491019668579E+02 -0.101965606213E+00
  0.994229918237E+04  0.491019668579E+02  0.107272569351E+04
  0.667527542114E+02  0.491019668579E+02  0.101965606213E+00
  0.994227728675E+04  0.491019668579E+02  0.107292724610E+04
  0.680002975464E+02  0.490000000000E+02  0.000000000000E+00
  0.994230278573E+04  0.490000000000E+02  0.107269252399E+04
  0.244703655243E+02  0.547033166885E+01  0.000000000000E+00
  0.994179505866E+04  0.547033166885E+01  0.107736623109E+04
  0.303820724487E+02  0.113820018768E+02  0.000000000000E+00
  0.994186401199E+04  0.113820018768E+02  0.107673150493E+04
  0.387563171387E+02  0.197561950684E+02  0.000000000000E+00
  0.994196168801E+04  0.197561950684E+02  0.107583238184E+04
  0.482439842224E+02  0.292438049316E+02  0.000000000000E+00
  0.994207235084E+04  0.292438049316E+02  0.107481371319E+04
  0.625299339294E+02  0.435296669006E+02  0.000000000000E+00
  0.994223898017E+04  0.435296669006E+02  0.107327986415E+04
  0.660765380859E+02  0.470762481689E+02  0.000000000000E+00
  0.994228034727E+04  0.470762481689E+02  0.107289907355E+04
POLYGONS                  18                  72
3                  40                  41                  33
3                  40                  33                  32
3                  42                  43                  41
3                  42                  41                  40
3                  48                  49                  43
3                  48                  43                  42
3                  58                  59                  49
3                  58                  49                  48
3                  68                  69                  59
3                  68                  59                  58
3                  76                  77                  69
3                  76                  69                  68
3                  86                  87                  77
3                  86                  77                  76
3                  92                  93                  87
3                  92                  87                  86
3                 100                 101                  93
3                 100                  93                  92
CELL_DATA                  18
NORMALS normals float
  0.107374960416E+00 -0.107375599172E+00 -0.988403307652E+00
  0.107374960416E+00 -0.107375599172E+00 -0.988403307652E+00
  0.107374959958E+00 -0.107375638476E+00 -0.988403303432E+00
  0.107374959958E+00 -0.107375638476E+00 -0.988403303432E+00
  0.107374960092E+00 -0.107375626981E+00 -0.988403304667E+00
  0.107374960092E+00 -0.107375626981E+00 -0.988403304667E+00
  0.107374960167E+00 -0.107375620486E+00 -0.988403305364E+00
  0.107374960167E+00 -0.107375620486E+00 -0.988403305364E+00
  0.107374960314E+00 -0.107375607901E+00 -0.988403306715E+00
  0.107374960314E+00 -0.107375607901E+00 -0.988403306715E+00
  0.107374959886E+00 -0.107375644662E+00 -0.988403302768E+00
  0.107374959886E+00 -0.107375644662E+00 -0.988403302768E+00
  0.107374960591E+00 -0.107375584174E+00 -0.988403309263E+00
  0.107374960591E+00 -0.107375584174E+00 -0.988403309263E+00
  0.107374959791E+00 -0.107375652746E+00 -0.988403301900E+00
  0.107374959791E+00 -0.107375652746E+00 -0.988403301900E+00
  0.107374962871E+00 -0.107375388709E+00 -0.988403330249E+00
  0.107374962871E+00 -0.107375388709E+00 -0.988403330249E+00
POINT_DATA                 114
SCALARS mu float 1
LOOKUP_TABLE default
  0.000000000000E+00
  0.000000000000E+00
  0.000000000000E+00
  0.000000000000E+00
  0.000000000000E+00
  0.000000000000E+00
  0.000000000000E+00
  0.000000000000E+00
  0.000000000000E+00
  0.000000000000E+00
  0.000000000000E+00
  0.000000000000E+00
  0.000000000000E+00
  0.000000000000E+00
  0.000000000000E+00
  0.000000000000E+00
  0.000000000000E+00
  0.000000000000E+00
  0.000000000000E+00
  0.000000000000E+00
  0.000000000000E+00
  0.000000000000E+00
  0.000000000000E+00
  0.000000000000E+00
  0.000000000000E+00
  0.000000000000E+00
  0.000000000000E+00
  0.000000000000E+00
  0.000000000000E+00
  0.000000000000E+00
  0.000000000000E+00
  0.000000000000E+00
 -0.307864370287E+01
 -0.307864370287E+01
  0.000000000000E+00
  0.000000000000E+00
  0.000000000000E+00
  0.000000000000E+00
  0.000000000000E+00
  0.000000000000E+00
 -0.312994183336E+01
 -0.312994183336E+01
 -0.323479458196E+01
 -0.323479458196E+01
  0.000000000000E+00
  0.000000000000E+00
  0.000000000000E+00
  0.000000000000E+00
 -0.336533239484E+01
 -0.336533239484E+01
  0.000000000000E+00
  0.000000000000E+00
  0.000000000000E+00
  0.000000000000E+00
  0.000000000000E+00
  0.000000000000E+00
  0.000000000000E+00
  0.000000000000E+00
 -0.344535242193E+01
 -0.344535242193E+01
  0.000000000000E+00
  0.000000000000E+00
  0.000000000000E+00
  0.000000000000E+00
  0.000000000000E+00
  0.000000000000E+00
  0.000000000000E+00
  0.000000000000E+00
 -0.335611563961E+01
 -0.335611563961E+01
  0.000000000000E+00
  0.000000000000E+00
  0.000000000000E+00
  0.000000000000E+00
  0.000000000000E+00
  0.000000000000E+00
 -0.297005986871E+01
 -0.297005986871E+01
  0.000000000000E+00
  0.000000000000E+00
  0.000000000000E+00
  0.000000000000E+00
  0.000000000000E+00
  0.000000000000E+00
  0.000000000000E+00
  0.000000000000E+00
 -0.223576525117E+01
 -0.223576525117E+01
  0.000000000000E+00
  0.000000000000E+00
  0.000000000000E+00
  0.000000000000E+00
 -0.122395384306E+01
 -0.122395384306E+01
  0.000000000000E+00
  0.000000000000E+00
  0.000000000000E+00
  0.000000000000E+00
  0.000000000000E+00
  0.000000000000E+00
  0.000000000000E+00
  0.000000000000E+00
  0.323479458196E+01
  0.323479458196E+01
  0.336533239484E+01
  0.336533239484E+01
  0.344535242193E+01
  0.344535242193E+01
  0.335611563961E+01
  0.335611563961E+01
  0.223576525117E+01
  0.223576525117E+01
  0.122395384306E+01
  0.122395384306E+01
