# vtk DataFile Version 3.0
MachLine results file. Generated by MachLine, USU AeroLab (c) 2022.
ASCII
DATASET POLYDATA
POINTS                1848 float
  0.000000000000E+00  0.000000000000E+00  0.000000000000E+00
  0.147665724158E+00  0.000000000000E+00 -0.234920635819E+00
  0.147665724158E+00  0.000000000000E+00  0.234920635819E+00
  0.339639574289E+00  0.339639574289E+00  0.000000000000E+00
  0.473465979099E+00  0.000000000000E+00 -0.436293870211E+00
  0.473465979099E+00  0.000000000000E+00  0.436293870211E+00
  0.487305283546E+00  0.339639574289E+00 -0.234920650721E+00
  0.487305283546E+00  0.339639574289E+00  0.234920650721E+00
  0.735364913940E+00  0.735364913940E+00  0.000000000000E+00
  0.813105583191E+00  0.339639574289E+00 -0.436293929815E+00
  0.813105583191E+00  0.339639574289E+00  0.436293929815E+00
  0.883030653000E+00  0.735364913940E+00 -0.234920680523E+00
  0.883030653000E+00  0.735364913940E+00  0.234920680523E+00
  0.944064557552E+00  0.000000000000E+00 -0.604293465614E+00
  0.944064557552E+00  0.000000000000E+00  0.604293465614E+00
  0.119528055191E+01  0.119528055191E+01  0.000000000000E+00
  0.120883107185E+01  0.735364913940E+00 -0.436293989420E+00
  0.120883107185E+01  0.735364913940E+00  0.436293989420E+00
  0.128370416164E+01  0.339639574289E+00 -0.604293525219E+00
  0.128370416164E+01  0.339639574289E+00  0.604293525219E+00
  0.134294629097E+01  0.119528055191E+01 -0.234920725226E+00
  0.134294629097E+01  0.119528055191E+01  0.234920725226E+00
  0.157641971111E+01  0.000000000000E+00 -0.760520398617E+00
  0.157641971111E+01  0.000000000000E+00  0.760520398617E+00
  0.166874670982E+01  0.119528055191E+01 -0.436294049025E+00
  0.166874670982E+01  0.119528055191E+01  0.436294049025E+00
  0.167942965031E+01  0.735364913940E+00 -0.604293584824E+00
  0.167942965031E+01  0.735364913940E+00  0.604293584824E+00
  0.172824025154E+01  0.172824025154E+01  0.000000000000E+00
  0.187590610981E+01  0.172824025154E+01 -0.234920769930E+00
  0.187590610981E+01  0.172824025154E+01  0.234920769930E+00
  0.191605937481E+01  0.339639574289E+00 -0.760520458221E+00
  0.191605937481E+01  0.339639574289E+00  0.760520458221E+00
  0.213934540749E+01  0.119528055191E+01 -0.604293704033E+00
  0.213934540749E+01  0.119528055191E+01  0.604293704033E+00
  0.220170640945E+01  0.172824025154E+01 -0.436294138432E+00
  0.220170640945E+01  0.172824025154E+01  0.436294138432E+00
  0.231178498268E+01  0.735364913940E+00 -0.760520577431E+00
  0.231178498268E+01  0.735364913940E+00  0.760520577431E+00
  0.234375929832E+01  0.234375929832E+01  0.000000000000E+00
  0.239635515213E+01  0.000000000000E+00 -0.902061045170E+00
  0.239635515213E+01  0.000000000000E+00  0.902061045170E+00
  0.249142503738E+01  0.234375929832E+01 -0.234920814633E+00
  0.249142503738E+01  0.234375929832E+01  0.234920814633E+00
  0.267230534554E+01  0.172824025154E+01 -0.604293823242E+00
  0.267230534554E+01  0.172824025154E+01  0.604293823242E+00
  0.273599505424E+01  0.339639574289E+00 -0.902061164379E+00
  0.273599505424E+01  0.339639574289E+00  0.902061164379E+00
  0.277170085907E+01  0.119528055191E+01 -0.760520696640E+00
  0.277170085907E+01  0.119528055191E+01  0.760520696640E+00
  0.281722569466E+01  0.234375929832E+01 -0.436294227839E+00
  0.281722569466E+01  0.234375929832E+01  0.436294227839E+00
  0.305185556412E+01  0.305185556412E+01  0.000000000000E+00
  0.313172078133E+01  0.735364913940E+00 -0.902061283588E+00
  0.313172078133E+01  0.735364913940E+00  0.902061283588E+00
  0.319952154160E+01  0.305185556412E+01 -0.234920859337E+00
  0.319952154160E+01  0.305185556412E+01  0.234920859337E+00
  0.328782463074E+01  0.234375929832E+01 -0.604293942451E+00
  0.328782463074E+01  0.234375929832E+01  0.604293942451E+00
  0.330466079712E+01  0.172824025154E+01 -0.760520815849E+00
  0.330466079712E+01  0.172824025154E+01  0.760520815849E+00
  0.342464399338E+01  0.000000000000E+00 -0.102348911762E+01
  0.342464399338E+01  0.000000000000E+00  0.102348911762E+01
  0.352532196045E+01  0.305185556412E+01 -0.436294317245E+00
  0.352532196045E+01  0.305185556412E+01  0.436294317245E+00
  0.359163665771E+01  0.119528055191E+01 -0.902061402798E+00
  0.359163665771E+01  0.119528055191E+01  0.902061402798E+00
  0.376428389549E+01  0.339639574289E+00 -0.102348923683E+01
  0.376428389549E+01  0.339639574289E+00  0.102348923683E+01
  0.386280250549E+01  0.386280250549E+01  0.000000000000E+00
  0.392018008232E+01  0.234375929832E+01 -0.760520994663E+00
  0.392018008232E+01  0.234375929832E+01  0.760520994663E+00
  0.399592113495E+01  0.305185556412E+01 -0.604294061661E+00
  0.399592113495E+01  0.305185556412E+01  0.604294061661E+00
  0.401046848297E+01  0.386280250549E+01 -0.234920918941E+00
  0.401046848297E+01  0.386280250549E+01  0.234920918941E+00
  0.412459707260E+01  0.172824025154E+01 -0.902061522007E+00
  0.412459707260E+01  0.172824025154E+01  0.902061522007E+00
  0.416000986099E+01  0.735364913940E+00 -0.102348935604E+01
  0.416000986099E+01  0.735364913940E+00  0.102348935604E+01
  0.433626890182E+01  0.386280250549E+01 -0.436294436455E+00
  0.433626890182E+01  0.386280250549E+01  0.436294436455E+00
  0.461992597580E+01  0.119528055191E+01 -0.102348947525E+01
  0.461992597580E+01  0.119528055191E+01  0.102348947525E+01
  0.462827682495E+01  0.305185556412E+01 -0.760521173477E+00
  0.462827682495E+01  0.305185556412E+01  0.760521173477E+00
  0.466872262955E+01  0.000000000000E+00 -0.111146688461E+01
  0.466872262955E+01  0.000000000000E+00  0.111146688461E+01
  0.474011659622E+01  0.234375929832E+01 -0.902061700821E+00
  0.474011659622E+01  0.234375929832E+01  0.902061700821E+00
  0.478677463531E+01  0.478677463531E+01  0.000000000000E+00
  0.480686807632E+01  0.386280250549E+01 -0.604294240475E+00
  0.480686807632E+01  0.386280250549E+01  0.604294240475E+00
  0.493444061279E+01  0.478677463531E+01 -0.234920993447E+00
  0.493444061279E+01  0.478677463531E+01  0.234920993447E+00
  0.500836277008E+01  0.339639574289E+00 -0.111146700382E+01
  0.500836277008E+01  0.339639574289E+00  0.111146700382E+01
  0.515288639069E+01  0.172824025154E+01 -0.102348971367E+01
  0.515288639069E+01  0.172824025154E+01  0.102348971367E+01
  0.526024150848E+01  0.478677463531E+01 -0.436294555664E+00
  0.526024150848E+01  0.478677463531E+01  0.436294555664E+00
  0.540408849716E+01  0.735364913940E+00 -0.111146712303E+01
  0.540408849716E+01  0.735364913940E+00  0.111146712303E+01
  0.543922424316E+01  0.386280250549E+01 -0.760521352291E+00
  0.543922424316E+01  0.386280250549E+01  0.760521352291E+00
  0.544821310043E+01  0.305185556412E+01 -0.902061939240E+00
  0.544821310043E+01  0.305185556412E+01  0.902061939240E+00
  0.573084068298E+01  0.478677463531E+01 -0.604294419289E+00
  0.573084068298E+01  0.478677463531E+01  0.604294419289E+00
  0.576840591431E+01  0.234375929832E+01 -0.102348983288E+01
  0.576840591431E+01  0.234375929832E+01  0.102348983288E+01
  0.583337688446E+01  0.583337688446E+01  0.000000000000E+00
  0.586400508881E+01  0.119528055191E+01 -0.111146736145E+01
  0.586400508881E+01  0.119528055191E+01  0.111146736145E+01
  0.598104286194E+01  0.583337688446E+01 -0.234921067953E+00
  0.598104286194E+01  0.583337688446E+01  0.234921067953E+00
  0.611307668686E+01  0.000000000000E+00 -0.114008128643E+01
  0.611307668686E+01  0.000000000000E+00  0.114008128643E+01
  0.625916051865E+01  0.386280250549E+01 -0.902062177658E+00
  0.625916051865E+01  0.386280250549E+01  0.902062177658E+00
  0.630684375763E+01  0.583337688446E+01 -0.436294704676E+00
  0.630684375763E+01  0.583337688446E+01  0.436294704676E+00
  0.636319684982E+01  0.478677463531E+01 -0.760521590710E+00
  0.636319684982E+01  0.478677463531E+01  0.760521590710E+00
  0.639696550369E+01  0.172824025154E+01 -0.111146748066E+01
  0.639696550369E+01  0.172824025154E+01  0.111146748066E+01
  0.645271682739E+01  0.339639574289E+00 -0.114008140564E+01
  0.645271682739E+01  0.339639574289E+00  0.114008140564E+01
  0.647650289536E+01  0.305185556412E+01 -0.102349007130E+01
  0.647650289536E+01  0.305185556412E+01  0.102349007130E+01
  0.677744340897E+01  0.583337688446E+01 -0.604294598103E+00
  0.677744340897E+01  0.583337688446E+01  0.604294598103E+00
  0.684844303131E+01  0.735364913940E+00 -0.114008152485E+01
  0.684844303131E+01  0.735364913940E+00  0.114008152485E+01
  0.701104879379E+01  0.701104879379E+01  0.000000000000E+00
  0.701248550415E+01  0.234375929832E+01 -0.111146771908E+01
  0.701248550415E+01  0.234375929832E+01  0.111146771908E+01
  0.715871477127E+01  0.701104879379E+01 -0.234921157360E+00
  0.715871477127E+01  0.701104879379E+01  0.234921157360E+00
  0.718313360214E+01  0.478677463531E+01 -0.902062416077E+00
  0.718313360214E+01  0.478677463531E+01  0.902062416077E+00
  0.728745079041E+01  0.386280250549E+01 -0.102349042892E+01
  0.728745079041E+01  0.386280250549E+01  0.102349042892E+01
  0.730835962296E+01  0.119528055191E+01 -0.114008176327E+01
  0.730835962296E+01  0.119528055191E+01  0.114008176327E+01
  0.740979957581E+01  0.583337688446E+01 -0.760521829128E+00
  0.740979957581E+01  0.583337688446E+01  0.760521829128E+00
  0.748451566696E+01  0.701104879379E+01 -0.436294883490E+00
  0.748451566696E+01  0.701104879379E+01  0.436294883490E+00
  0.771254587173E+01  0.000000000000E+00 -0.108925735950E+01
  0.771254587173E+01  0.000000000000E+00  0.108925735950E+01
  0.772058296204E+01  0.305185556412E+01 -0.111146795750E+01
  0.772058296204E+01  0.305185556412E+01  0.111146795750E+01
  0.784132003784E+01  0.172824025154E+01 -0.114008188248E+01
  0.784132003784E+01  0.172824025154E+01  0.114008188248E+01
  0.795511531830E+01  0.701104879379E+01 -0.604294836521E+00
  0.795511531830E+01  0.701104879379E+01  0.604294836521E+00
  0.805218601227E+01  0.339639574289E+00 -0.108925747871E+01
  0.805218601227E+01  0.339639574289E+00  0.108925747871E+01
  0.821142387390E+01  0.478677463531E+01 -0.102349066734E+01
  0.821142387390E+01  0.478677463531E+01  0.102349066734E+01
[...]
CELL_DATA                3576
SCALARS C_p_inc float 1
LOOKUP_TABLE default
  0.186005355347E+00
  0.153980744013E+00
  0.124074139223E+00
  0.995969262246E-01
  0.901539162902E-01
  0.759992570744E-01
  0.669946938729E-01
  0.583261649917E-01
  0.486316963892E-01
  0.423591247117E-01
  0.316908627479E-01
  0.266566882074E-01
  0.145484997057E-01
  0.100117754101E-01
 -0.372680804360E-02
 -0.806360080716E-02
 -0.226795339561E-01
 -0.267501592562E-01
 -0.378611310340E-01
 -0.404884248093E-01
 -0.453416260024E-01
 -0.448511472337E-01
 -0.349046899316E-01
 -0.389001724281E-01
  0.114932666148E-01
 -0.292326991227E-02
  0.808217178264E-01
  0.604601712303E-01
  0.155440364436E+00
  0.131045930125E+00
  0.237203389581E+00
  0.205674060053E+00
  0.337658860432E+00
  0.296151444656E+00
  0.467036476201E+00
  0.418654592456E+00
  0.648240562315E+00
  0.623515046294E+00
  0.767874747333E+00
  0.761759547375E+00
  0.257442080299E+00
  0.423231631409E+00
 -0.227051768120E+00
  0.195450184617E-01
 -0.349721199102E+00
 -0.205578558576E+00
 -0.374108472603E+00
 -0.297988455249E+00
 -0.397536695577E+00
 -0.356573676914E+00
 -0.419780614432E+00
 -0.395426198131E+00
 -0.447431660058E+00
 -0.430385539481E+00
 -0.469401846805E+00
 -0.461358111294E+00
 -0.457035495444E+00
 -0.463025394209E+00
 -0.411060239817E+00
 -0.421367053270E+00
 -0.367418576739E+00
 -0.356003436241E+00
 -0.309452240302E+00
 -0.296915761709E+00
 -0.251517448742E+00
 -0.238998278012E+00
 -0.199509865269E+00
 -0.186663036514E+00
 -0.153207437469E+00
 -0.139230943663E+00
 -0.110993061809E+00
 -0.944924611599E-01
 -0.705568033834E-01
 -0.494639111889E-01
 -0.292912833945E-01
  0.102440670437E-02
  0.190377816498E-01
  0.653428233988E-01
  0.106198860142E+00
  0.161957305925E+00
  0.182701755051E+00
  0.184064731229E+00
  0.129428109380E+00
  0.123738456425E+00
  0.101760097228E+00
  0.900814542663E-01
  0.767986749381E-01
  0.669724417696E-01
  0.557825632315E-01
  0.486257296871E-01
  0.372332189308E-01
  0.316951149914E-01
  0.192028986627E-01
  0.145624828657E-01
  0.340340080518E-03
 -0.370488086307E-02
 -0.193701002927E-01
 -0.226667522837E-01
 -0.361858317977E-01
 -0.379225240337E-01
 -0.450481305363E-01
 -0.457952108147E-01
 -0.390086089510E-01
 -0.445222112837E-01
 -0.246979991140E-02
 -0.154440008916E-01
  0.611057209701E-01
  0.436049026126E-01
  0.131275593983E+00
  0.111742227628E+00
  0.204611035838E+00
  0.183974664734E+00
  0.290549014490E+00
  0.271286922157E+00
  0.398396690989E+00
  0.386208724732E+00
  0.551171045764E+00
  0.550854179922E+00
  0.621785518645E+00
  0.592120526998E+00
  0.737358073786E-01
  0.156950477593E+00
 -0.345958103677E+00
 -0.217989655153E+00
 -0.442847256720E+00
 -0.337514023184E+00
 -0.441427455633E+00
 -0.369841433341E+00
 -0.443738483332E+00
 -0.396786865363E+00
 -0.451022893721E+00
 -0.420219050012E+00
 -0.468545779287E+00
 -0.448355455656E+00
 -0.480496345080E+00
 -0.471075534843E+00
 -0.456442829230E+00
 -0.459082464097E+00
 -0.403773461106E+00
 -0.412491845655E+00
 -0.355952972510E+00
 -0.346045570899E+00
 -0.296748119869E+00
 -0.285059044445E+00
 -0.238859928123E+00
 -0.226195612141E+00
 -0.186574787137E+00
 -0.172802907925E+00
 -0.139186203700E+00
 -0.123533824289E+00
 -0.944867018983E-01
 -0.756146656442E-01
 -0.495101521170E-01
 -0.257668047622E-01
  0.844316243881E-03
  0.282054914737E-01
  0.645499134935E-01
  0.842543680941E-01
  0.158020357986E+00
  0.164020971916E+00
  0.177298063130E+00
  0.181704299101E+00
  0.128677393391E+00
  0.128971162393E+00
  0.105757385251E+00
  0.101548182117E+00
  0.842703847524E-01
  0.767256901884E-01
  0.631058863128E-01
  0.557599717025E-01
  0.432245880613E-01
  0.372337348245E-01
  0.241290953442E-01
  0.192200245263E-01
  0.447054451548E-02
  0.370819507276E-03
 -0.161640443618E-01
 -0.193465755560E-01
 -0.346084218163E-01
 -0.362455520767E-01
 -0.459627984832E-01
 -0.468012237095E-01
 -0.443268957202E-01
 -0.494502250073E-01
 -0.145520955416E-01
 -0.253787873741E-01
  0.444536177196E-01
  0.298046927877E-01
  0.111632555559E+00
  0.959702653800E-01
  0.181840868884E+00
  0.167264659461E+00
  0.264748817944E+00
  0.253828621999E+00
  0.371095185125E+00
  0.366921850429E+00
  0.520752841528E+00
  0.521478840560E+00
  0.557585975973E+00
  0.526692508735E+00
 -0.401718179742E-01
  0.307223967300E-01
 -0.446200377023E+00
 -0.343166042494E+00
 -0.521187365835E+00
 -0.432194828867E+00
 -0.500249593445E+00
 -0.434339467426E+00
 -0.487199796109E+00
 -0.439918583893E+00
 -0.482307004969E+00
 -0.449382733931E+00
 -0.489768664889E+00
 -0.468427062667E+00
 -0.491524190888E+00
 -0.482037842859E+00
 -0.457449443142E+00
 -0.459113956662E+00
 -0.397879132201E+00
 -0.406162022473E+00
 -0.345995092563E+00
 -0.336449290825E+00
 -0.284833648646E+00
 -0.273130425985E+00
 -0.225997039551E+00
 -0.212787300375E+00
 -0.172671281889E+00
 -0.157832963594E+00
 -0.123469084528E+00
 -0.106367421978E+00
 -0.756281147585E-01
 -0.557957326001E-01
 -0.259249505019E-01
 -0.527248292354E-02
  0.276806443845E-01
  0.434855818955E-01
  0.830571083631E-01
  0.917262713714E-01
  0.161700588381E+00
  0.167123060592E+00
  0.178961305784E+00
  0.176814185558E+00
  0.128404383976E+00
  0.128326811761E+00
  0.106673686791E+00
  0.105516297048E+00
  0.879486483808E-01
  0.841407530594E-01
  0.689240276463E-01
  0.630562866738E-01
  0.491483363985E-01
  0.432177340382E-01
  0.292547708230E-01
  0.241475564485E-01
  0.872774853048E-02
  0.450568478165E-02
 -0.129114913241E-01
 -0.161360138672E-01
 -0.329181814256E-01
 -0.346616667355E-01
 -0.469564222205E-01
 -0.475092777550E-01
 -0.492190764626E-01
 -0.534890764946E-01
 -0.245852001788E-01
 -0.332886925309E-01
  0.304657171785E-01
  0.187040190244E-01
  0.955931845958E-01
  0.834081450711E-01
  0.164980137567E+00
  0.154669573460E+00
  0.248233830912E+00
  0.241986903250E+00
  0.356198673984E+00
  0.355583898778E+00
  0.503999759177E+00
  0.504784453157E+00
  0.511250542786E+00
  0.480806660816E+00
 -0.133454549087E+00
 -0.673637709672E-01
 -0.533638836584E+00
 -0.443402167709E+00
 -0.591123075349E+00
 -0.512252218354E+00
 -0.554255553587E+00
 -0.493378210334E+00
 -0.528618288389E+00
 -0.482847425612E+00
 -0.512972447226E+00
 -0.480159731886E+00
 -0.510703795511E+00
 -0.489554281675E+00
 -0.502555188108E+00
 -0.493330783859E+00
 -0.459210954019E+00
 -0.460523054563E+00
 -0.392684568379E+00
 -0.400853756113E+00
 -0.336504764151E+00
 -0.327025475154E+00
 -0.272916035953E+00
 -0.261000441448E+00
 -0.212560656265E+00
 -0.198755172417E+00
 -0.157670211575E+00
 -0.141980966836E+00
 -0.106292880912E+00
 -0.887956602111E-01
 -0.558545256690E-01
 -0.381563113358E-01
 -0.556799228447E-02
  0.870996577346E-02
  0.428451618729E-01
  0.517766574279E-01
  0.906765361932E-01
  0.948514957646E-01
  0.165168727018E+00
  0.163341332141E+00
  0.177800661193E+00
  0.178353511495E+00
  0.128269783784E+00
  0.128106322235E+00
  0.107032190982E+00
  0.106461218000E+00
  0.895367291116E-01
  0.878037988721E-01
  0.724655685824E-01
  0.688470732866E-01
  0.540782589050E-01
  0.491276450431E-01
  0.342445040585E-01
  0.292708742675E-01
  0.130647486768E-01
  0.876576347749E-02
 -0.954695787369E-02
 -0.128775588953E-01
 -0.310024201351E-01
 -0.329551004661E-01
 -0.476749607484E-01
 -0.477197298667E-01
 -0.533113467146E-01
 -0.564875389831E-01
 -0.326743344620E-01
 -0.392676510839E-01
  0.191755250338E-01
  0.103524661417E-01
  0.829536661771E-01
  0.740175477049E-01
  0.152629079969E+00
  0.145677947831E+00
  0.237557179850E+00
  0.234390000738E+00
  0.348003192238E+00
  0.349366749209E+00
  0.494051702931E+00
  0.494770577625E+00
  0.473784082582E+00
  0.444031048976E+00
 -0.215889581160E+00
 -0.152178761942E+00
 -0.613098692202E+00
 -0.530824356817E+00
 -0.655308158702E+00
 -0.583658610705E+00
 -0.604413993360E+00
 -0.548169322054E+00
 -0.567649113326E+00
 -0.524527026272E+00
 -0.542091301223E+00
 -0.510961100301E+00
 -0.530569338570E+00
 -0.510762549366E+00
 -0.513267821544E+00
 -0.504711439415E+00
 -0.461247062913E+00
 -0.462634949167E+00
 -0.387835878220E+00
 -0.396098898152E+00
 -0.327220642651E+00
 -0.317663003003E+00
 -0.260833686867E+00
 -0.248651499992E+00
 -0.198527391001E+00
 -0.184298139678E+00
 -0.141807584185E+00
 -0.126019908378E+00
 -0.887348689022E-01
 -0.727485091119E-01
 -0.382720283108E-01
 -0.247194345250E-01
  0.837393857336E-02
  0.177487708590E-01
  0.512195944818E-01
  0.567609713954E-01
  0.940802767602E-01
  0.968910683878E-01
  0.162357644636E+00
  0.163849635649E+00
  0.178771921873E+00
  0.177386214979E+00
  0.128395873625E+00
  0.128006883708E+00
  0.107204826475E+00
  0.106840293972E+00
  0.902867212233E-01
  0.893983931067E-01
  0.743739129255E-01
  0.723767460823E-01
  0.574714862199E-01
  0.540415396494E-01
  0.385362968216E-01
  0.342533847619E-01
  0.172706398478E-01
  0.131037307569E-01
 -0.608218497866E-02
 -0.950462850764E-02
 -0.287889272399E-01
 -0.310137871382E-01
 -0.479014163996E-01
 -0.472959503407E-01
 -0.563904082048E-01
 -0.583186565495E-01
 -0.388366140576E-01
 -0.433464251253E-01
  0.106632143297E-01
  0.461259309061E-02
  0.735967633134E-01
  0.676544659414E-01
  0.144043795968E+00
  0.139941438453E+00
  0.231083423184E+00
  0.230235148312E+00
  0.344130656045E+00
  0.346801912084E+00
  0.488259943025E+00
  0.488902412851E+00
  0.441643836285E+00
  0.412564134185E+00
 -0.291361143800E+00
 -0.229229655978E+00
 -0.686751397647E+00
 -0.610393887690E+00
 -0.714841073294E+00
 -0.649180741840E+00
 -0.650948005303E+00
 -0.599365217742E+00
 -0.603898941973E+00
 -0.564271625813E+00
 -0.569083019983E+00
 -0.540622402515E+00
 -0.548925049699E+00
 -0.531104031371E+00
 -0.523223740606E+00
 -0.515782523339E+00
 -0.463104045750E+00
 -0.464958665313E+00
 -0.383037443887E+00
 -0.391562395845E+00
 -0.317990448106E+00
 -0.308281331498E+00
 -0.248545454986E+00
 -0.236208274992E+00
 -0.184088023182E+00
 -0.169971475895E+00
 -0.125859287328E+00
 -0.111254048221E+00
 -0.727194166521E-01
 -0.597182380935E-01
 -0.248564467095E-01
 -0.151078491615E-01
  0.174631331460E-01
  0.239407180045E-01
  0.563549898228E-01
  0.603491834573E-01
  0.963710814123E-01
  0.984408058058E-01
  0.163066958542E+00
  0.162713563204E+00
  0.176915141476E+00
  0.178308744608E+00
  0.127939013139E+00
  0.128150024658E+00
  0.107176093712E+00
  0.107028759560E+00
  0.906464784877E-01
  0.901569833001E-01
  0.753937600306E-01
  0.742839799473E-01
  0.595422269647E-01
  0.574237415274E-01
  0.417262620046E-01
  0.385341996459E-01
  0.209861594304E-01
  0.173070641255E-01
 -0.265062115357E-02
 -0.603087526946E-02
 -0.262800363055E-01
 -0.287701390185E-01
 -0.474904415327E-01
 -0.461897986974E-01
 -0.583071731203E-01
 -0.589421185022E-01
 -0.430838188828E-01
 -0.456042445442E-01
  0.479916659960E-02
  0.126630792223E-02
  0.673217427047E-01
  0.640679453828E-01
  0.138755371789E+00
  0.137128194083E+00
  0.227944221345E+00
  0.228995360003E+00
  0.343407149081E+00
  0.347063384448E+00
  0.485346860043E+00
  0.485909124523E+00
  0.413133586266E+00
  0.384688227200E+00
 -0.361501606066E+00
 -0.300928033103E+00
 -0.755384107336E+00
 -0.684285789667E+00
 -0.769994653063E+00
 -0.709986085558E+00
 -0.693741718059E+00
 -0.647052562717E+00
 -0.637014415708E+00
 -0.601457598600E+00
 -0.593558429421E+00
 -0.568350502378E+00
 -0.565452861997E+00
 -0.550018298377E+00
 -0.532057366307E+00
 -0.526098727700E+00
 -0.464434780921E+00
 -0.467041780549E+00
 -0.378096432771E+00
 -0.386949949516E+00
 -0.308708740946E+00
 -0.298911646853E+00
 -0.236160790178E+00
 -0.224050084827E+00
 -0.169795406630E+00
 -0.156693730607E+00
 -0.111128764576E+00
 -0.988445160946E-01
 -0.597165204755E-01
 -0.498503776763E-01
 -0.152245204774E-01
 -0.815234261884E-02
  0.237393939486E-01
  0.285603191180E-01
  0.600879044544E-01
  0.633773160247E-01
  0.981379974558E-01
  0.100622231123E+00
  0.162399991312E+00
  0.165231582751E+00
  0.176993205008E+00
  0.176626235904E+00
  0.127846357036E+00
  0.127732970616E+00
  0.107131519717E+00
  0.107015695037E+00
  0.908062698046E-01
  0.905244868900E-01
  0.759463336172E-01
  0.753057111484E-01
  0.607569822868E-01
  0.594890312215E-01
  0.438502593555E-01
  0.417133063792E-01
  0.239114021629E-01
  0.210156401899E-01
  0.499877254788E-03
 -0.259316006547E-02
 -0.235885360121E-01
 -0.262321104104E-01
 -0.463849865285E-01
 -0.444547924924E-01
 -0.590031281656E-01
 -0.584171377218E-01
 -0.454810162972E-01
 -0.461824271292E-01
  0.136367858916E-02
  0.513988684112E-04
  0.638404044494E-01
  0.629174013168E-01
  0.136363130590E+00
  0.136856157067E+00
  0.227580375975E+00
  0.230219189824E+00
  0.345147349849E+00
  0.349582180062E+00
  0.484569023204E+00
  0.485036675756E+00
  0.387332505765E+00
  0.359544390361E+00
 -0.426890880091E+00
 -0.368276746235E+00
 -0.819083898680E+00
 -0.753268405185E+00
 -0.820658403320E+00
 -0.766356132213E+00
 -0.732582638974E+00
 -0.691010922332E+00
 -0.666736257199E+00
 -0.635562986748E+00
 -0.615270318052E+00
 -0.593599359144E+00
 -0.579896872269E+00
 -0.567095360347E+00
 -0.539493455206E+00
 -0.535249565425E+00
 -0.465028121263E+00
 -0.468505819537E+00
 -0.372977834900E+00
 -0.382045653664E+00
 -0.299395547648E+00
 -0.289794046519E+00
 -0.224054945188E+00
 -0.212828007445E+00
 -0.156568555500E+00
 -0.145366660203E+00
 -0.987646087526E-01
 -0.891533219582E-01
 -0.498593685793E-01
 -0.425212954634E-01
 -0.822955328078E-02
 -0.293476643804E-02
  0.284424444455E-01
  0.322340883630E-01
  0.632329749147E-01
  0.659701078198E-01
  0.100444467131E+00
  0.102366337086E+00
  0.164927945785E+00
  0.165905066486E+00
  0.177629744818E+00
  0.176702665416E+00
  0.128147215821E+00
  0.127660884544E+00
  0.107300704852E+00
  0.106986141320E+00
  0.909910691424E-01
  0.906921348514E-01
  0.763029192401E-01
  0.758607136426E-01
  0.614929291140E-01
  0.607010669739E-01
  0.452044628841E-01
  0.438289320963E-01
  0.260106746097E-01
  0.239313263188E-01
  0.313531547062E-02
  0.557904734861E-03
 -0.209269243180E-01
 -0.235178247037E-01
 -0.446322116001E-01
 -0.422541668684E-01
 -0.585249846811E-01
 -0.569089556512E-01
 -0.461618933924E-01
 -0.453033335626E-01
  0.896923258482E-04
  0.655461734617E-03
  0.627912149138E-01
  0.638110177751E-01
  0.136449159392E+00
  0.138690014079E+00
  0.229519621889E+00
  0.233441422920E+00
  0.348834201851E+00
  0.353856057941E+00
  0.485376542219E+00
  0.485726149561E+00
  0.363669240294E+00
  0.336657364376E+00
 -0.487608065693E+00
 -0.431563848132E+00
 -0.877643799704E+00
 -0.817391751453E+00
 -0.866609552230E+00
 -0.818145900386E+00
 -0.767288899713E+00
 -0.730935895096E+00
 -0.692906965628E+00
 -0.666208234507E+00
 -0.634076386352E+00
 -0.616016682743E+00
 -0.592108896855E+00
 -0.582008109657E+00
 -0.545403620894E+00
 -0.542901079412E+00
 -0.464857921422E+00
 -0.469091552155E+00
 -0.367862460760E+00
 -0.376780158951E+00
 -0.290294722377E+00
 -0.281393684616E+00
 -0.212883426409E+00
 -0.203228243986E+00
 -0.145302907713E+00
 -0.136402412817E+00
 -0.891139810661E-01
 -0.818831577292E-01
 -0.425288348873E-01
 -0.370714692372E-01
 -0.297189411386E-02
  0.103254709518E-02
  0.321831466690E-01
  0.350911908772E-01
  0.659113734601E-01
  0.679766411669E-01
  0.102299491956E+00
  0.103633553955E+00
  0.165823666263E+00
  0.166253558520E+00
  0.177433633804E+00
  0.177320146601E+00
  0.128255269563E+00
  0.127959640146E+00
  0.107467481211E+00
  0.107158104058E+00
  0.911967689044E-01
  0.908800711720E-01
  0.765999667722E-01
  0.762185453638E-01
  0.619987699697E-01
  0.614350906037E-01
  0.460960276702E-01
  0.451769667987E-01
  0.274650347661E-01
  0.260210747136E-01
  0.518386172758E-02
  0.318842225984E-02
 -0.185132204157E-01
 -0.208433676966E-01
 -0.423951955931E-01
 -0.398340648472E-01
 -0.570327343319E-01
 -0.546818280029E-01
 -0.453465910973E-01
 -0.432745238399E-01
  0.659607142630E-03
  0.270954665175E-02
  0.637714684197E-01
  0.663192192889E-01
  0.138564074524E+00
  0.142159494891E+00
  0.233290144514E+00
  0.238170767014E+00
  0.353986347145E+00
  0.359387032660E+00
  0.487284894730E+00
  0.487491630507E+00
  0.341759313134E+00
  0.315739207240E+00
 -0.543520488338E+00
 -0.490715247617E+00
 -0.930794356386E+00
 -0.876399996042E+00
 -0.907657343441E+00
 -0.865084003722E+00
 -0.797769850099E+00
 -0.766574231169E+00
 -0.715486817448E+00
 -0.693155415797E+00
 -0.649965312782E+00
 -0.635386873248E+00
 -0.602101133150E+00
 -0.594543756884E+00
 -0.549859150618E+00
 -0.548865039051E+00
 -0.464121204645E+00
 -0.468728073868E+00
 -0.363129224879E+00
 -0.371318013256E+00
 -0.281886957930E+00
 -0.274234021863E+00
 -0.203335019848E+00
 -0.195628985987E+00
 -0.136397868812E+00
 -0.129681697082E+00
 -0.818740884249E-01
 -0.765415243431E-01
 -0.370732793998E-01
 -0.330299163677E-01
  0.102905981491E-02
  0.404981227736E-02
  0.350955040380E-01
  0.373600152336E-01
  0.679962135286E-01
  0.697247779784E-01
  0.103678538025E+00
  0.105062205383E+00
  0.166360301011E+00
  0.167643364883E+00
  0.177733663433E+00
  0.177165242862E+00
  0.128486069283E+00
  0.128077098851E+00
  0.107666313437E+00
  0.107327311465E+00
  0.914044648713E-01
  0.910860833765E-01
  0.768647332842E-01
  0.765148348007E-01
  0.623947160701E-01
  0.619386403540E-01
  0.467385312272E-01
  0.460635789252E-01
  0.285037709590E-01
  0.274671719993E-01
  0.673847510206E-02
  0.522897587830E-02
 -0.164577306766E-01
 -0.184269710593E-01
 -0.399280909806E-01
 -0.374389092088E-01
 -0.547935588319E-01
 -0.520568786880E-01
 -0.433457710747E-01
 -0.404692933309E-01
  0.269883484708E-02
  0.579446885737E-02
  0.663459484939E-01
  0.699816043472E-01
  0.142235202947E+00
  0.146774265860E+00
  0.238406102557E+00
  0.243905019619E+00
  0.360124748463E+00
  0.365681997819E+00
  0.489848237408E+00
  0.489894857376E+00
  0.321353500747E+00
  0.296608669308E+00
 -0.594443587925E+00
 -0.545496589362E+00
 -0.978340498308E+00
 -0.929973765812E+00
 -0.943730741858E+00
 -0.906935879021E+00
 -0.824072856825E+00
 -0.797784953441E+00
 -0.734591826202E+00
 -0.716310741499E+00
 -0.663098024396E+00
 -0.651645068083E+00
 -0.610083842009E+00
 -0.604663323441E+00
 -0.553143828239E+00
 -0.553171425516E+00
 -0.463192727355E+00
 -0.467599877732E+00
 -0.359192569655E+00
 -0.366074784169E+00
 -0.274711918408E+00
 -0.268636414490E+00
 -0.195783050121E+00
 -0.189995902396E+00
 -0.129725186585E+00
 -0.124825648629E+00
 -0.765538993459E-01
 -0.726735000048E-01
 -0.330264054068E-01
 -0.300357155956E-01
  0.407194897061E-02
  0.637393254608E-02
  0.374056520811E-01
  0.391966687600E-01
  0.697981445946E-01
  0.712036492456E-01
  0.105167382737E+00
  0.106253699583E+00
  0.167798601544E+00
  0.168526936864E+00
  0.177838672945E+00
  0.177460067276E+00
  0.128695535112E+00
  0.128309335855E+00
  0.107883701771E+00
  0.107527327302E+00
  0.916282598259E-01
  0.912936168018E-01
  0.771215074669E-01
  0.767781516979E-01
  0.627369208248E-01
  0.623318990393E-01
  0.472492217010E-01
  0.467016796876E-01
  0.292995184652E-01
  0.284989281222E-01
  0.794915635197E-02
  0.677483750309E-02
 -0.147454081055E-01
 -0.163761191325E-01
 -0.374878016548E-01
 -0.352238857332E-01
 -0.521392206793E-01
 -0.493313158712E-01
 -0.405411330485E-01
 -0.372737462487E-01
  0.578186456979E-02
  0.947311325710E-02
  0.700517215271E-01
  0.743282407785E-01
  0.146976020585E+00
  0.152044979176E+00
  0.244378597936E+00
  0.250154548780E+00
  0.366781527990E+00
  0.372274653670E+00
  0.492669869032E+00
  0.492553408827E+00
  0.302312653329E+00
  0.279148739694E+00
 -0.640248829732E+00
 -0.595640604523E+00
 -0.102025714486E+01
 -0.977875743509E+00
 -0.974947799886E+00
 -0.943600408256E+00
 -0.846424771271E+00
 -0.824585755021E+00
 -0.750521693265E+00
 -0.735759783827E+00
 -0.673820334084E+00
 -0.664923920031E+00
 -0.616445609037E+00
 -0.612557724776E+00
 -0.555679440806E+00
 -0.556108266143E+00
 -0.462467820798E+00
 -0.466129008226E+00
 -0.356296143046E+00
 -0.361557657539E+00
 -0.269098164163E+00
 -0.264607859449E+00
 -0.190186825198E+00
 -0.186034835615E+00
 -0.124904104349E+00
 -0.121412735830E+00
 -0.727012749901E-01
 -0.699035130191E-01