# vtk DataFile Version 3.0
MachLine results file. Generated by MachLine, USU AeroLab (c) 2022.
ASCII
DATASET POLYDATA
POINTS                3061 float
  0.567128181962E+01  0.000000000000E+00  0.000000000000E+00
  0.557676045596E+01  0.166666666667E-01  0.000000000000E+00
  0.557676045596E+01  0.166337788071E-01  0.104650865882E-02
  0.557676045596E+01  0.165352450219E-01  0.208888722607E-02
  0.557676045596E+01  0.163714541788E-01  0.312302190976E-02
  0.557676045596E+01  0.161430526855E-01  0.414483145275E-02
  0.557676045596E+01  0.158509419383E-01  0.515028323958E-02
  0.557676045596E+01  0.154962747648E-01  0.613540921141E-02
  0.557676045596E+01  0.150804508744E-01  0.709632152608E-02
  0.557676045596E+01  0.146051113341E-01  0.802922790170E-02
  0.557676045596E+01  0.140721320917E-01  0.893044658298E-02
  0.557676045596E+01  0.134836165729E-01  0.979642087154E-02
  0.557676045596E+01  0.128418873796E-01  0.106237331625E-01
  0.557676045596E+01  0.121494771237E-01  0.114091184321E-01
  0.557676045596E+01  0.114091184321E-01  0.121494771237E-01
  0.557676045596E+01  0.106237331625E-01  0.128418873796E-01
  0.557676045596E+01  0.979642087154E-02  0.134836165729E-01
  0.557676045596E+01  0.893044658298E-02  0.140721320917E-01
  0.557676045596E+01  0.802922790170E-02  0.146051113341E-01
  0.557676045596E+01  0.709632152608E-02  0.150804508744E-01
  0.557676045596E+01  0.613540921141E-02  0.154962747648E-01
  0.557676045596E+01  0.515028323958E-02  0.158509419383E-01
  0.557676045596E+01  0.414483145275E-02  0.161430526855E-01
  0.557676045596E+01  0.312302190976E-02  0.163714541788E-01
  0.557676045596E+01  0.208888722607E-02  0.165352450219E-01
  0.557676045596E+01  0.104650865882E-02  0.166337788071E-01
  0.557676045596E+01 -0.268020441613E-17  0.166666666667E-01
  0.557676045596E+01 -0.104650865882E-02  0.166337788071E-01
  0.557676045596E+01 -0.208888722607E-02  0.165352450219E-01
  0.557676045596E+01 -0.312302190976E-02  0.163714541788E-01
  0.557676045596E+01 -0.414483145275E-02  0.161430526855E-01
  0.557676045596E+01 -0.515028323958E-02  0.158509419383E-01
  0.557676045596E+01 -0.613540921141E-02  0.154962747648E-01
  0.557676045596E+01 -0.709632152608E-02  0.150804508744E-01
  0.557676045596E+01 -0.802922790170E-02  0.146051113341E-01
  0.557676045596E+01 -0.893044658298E-02  0.140721320917E-01
  0.557676045596E+01 -0.979642087154E-02  0.134836165729E-01
  0.557676045596E+01 -0.106237331625E-01  0.128418873796E-01
  0.557676045596E+01 -0.114091184321E-01  0.121494771237E-01
  0.557676045596E+01 -0.121494771237E-01  0.114091184321E-01
  0.557676045596E+01 -0.128418873796E-01  0.106237331625E-01
  0.557676045596E+01 -0.134836165729E-01  0.979642087154E-02
  0.557676045596E+01 -0.140721320917E-01  0.893044658298E-02
  0.557676045596E+01 -0.146051113341E-01  0.802922790170E-02
  0.557676045596E+01 -0.150804508744E-01  0.709632152608E-02
  0.557676045596E+01 -0.154962747648E-01  0.613540921141E-02
  0.557676045596E+01 -0.158509419383E-01  0.515028323958E-02
  0.557676045596E+01 -0.161430526855E-01  0.414483145275E-02
  0.557676045596E+01 -0.163714541788E-01  0.312302190976E-02
  0.557676045596E+01 -0.165352450219E-01  0.208888722607E-02
  0.557676045596E+01 -0.166337788071E-01  0.104650865882E-02
  0.557676045596E+01 -0.166666666667E-01  0.204107799858E-17
  0.548223909230E+01  0.333333333333E-01  0.000000000000E+00
  0.548223909230E+01  0.332675576143E-01  0.209301731764E-02
  0.548223909230E+01  0.330704900438E-01  0.417777445214E-02
  0.548223909230E+01  0.327429083576E-01  0.624604381952E-02
  0.548223909230E+01  0.322861053710E-01  0.828966290550E-02
  0.548223909230E+01  0.317018838765E-01  0.103005664792E-01
  0.548223909230E+01  0.309925495296E-01  0.122708184228E-01
  0.548223909230E+01  0.301609017489E-01  0.141926430522E-01
  0.548223909230E+01  0.292102226681E-01  0.160584558034E-01
  0.548223909230E+01  0.281442641834E-01  0.178608931660E-01
  0.548223909230E+01  0.269672331458E-01  0.195928417431E-01
  0.548223909230E+01  0.256837747592E-01  0.212474663250E-01
  0.548223909230E+01  0.242989542474E-01  0.228182368643E-01
  0.548223909230E+01  0.228182368643E-01  0.242989542474E-01
  0.548223909230E+01  0.212474663250E-01  0.256837747592E-01
  0.548223909230E+01  0.195928417431E-01  0.269672331458E-01
  0.548223909230E+01  0.178608931660E-01  0.281442641834E-01
  0.548223909230E+01  0.160584558034E-01  0.292102226681E-01
  0.548223909230E+01  0.141926430522E-01  0.301609017489E-01
  0.548223909230E+01  0.122708184228E-01  0.309925495296E-01
  0.548223909230E+01  0.103005664792E-01  0.317018838765E-01
  0.548223909230E+01  0.828966290550E-02  0.322861053710E-01
  0.548223909230E+01  0.624604381952E-02  0.327429083576E-01
  0.548223909230E+01  0.417777445214E-02  0.330704900438E-01
  0.548223909230E+01  0.209301731764E-02  0.332675576143E-01
  0.548223909230E+01 -0.536040883226E-17  0.333333333333E-01
  0.548223909230E+01 -0.209301731764E-02  0.332675576143E-01
  0.548223909230E+01 -0.417777445214E-02  0.330704900438E-01
  0.548223909230E+01 -0.624604381952E-02  0.327429083576E-01
  0.548223909230E+01 -0.828966290550E-02  0.322861053710E-01
  0.548223909230E+01 -0.103005664792E-01  0.317018838765E-01
  0.548223909230E+01 -0.122708184228E-01  0.309925495296E-01
  0.548223909230E+01 -0.141926430522E-01  0.301609017489E-01
  0.548223909230E+01 -0.160584558034E-01  0.292102226681E-01
  0.548223909230E+01 -0.178608931660E-01  0.281442641834E-01
  0.548223909230E+01 -0.195928417431E-01  0.269672331458E-01
  0.548223909230E+01 -0.212474663250E-01  0.256837747592E-01
  0.548223909230E+01 -0.228182368643E-01  0.242989542474E-01
  0.548223909230E+01 -0.242989542474E-01  0.228182368643E-01
  0.548223909230E+01 -0.256837747592E-01  0.212474663250E-01
  0.548223909230E+01 -0.269672331458E-01  0.195928417431E-01
  0.548223909230E+01 -0.281442641834E-01  0.178608931660E-01
  0.548223909230E+01 -0.292102226681E-01  0.160584558034E-01
  0.548223909230E+01 -0.301609017489E-01  0.141926430522E-01
  0.548223909230E+01 -0.309925495296E-01  0.122708184228E-01
  0.548223909230E+01 -0.317018838765E-01  0.103005664792E-01
  0.548223909230E+01 -0.322861053710E-01  0.828966290550E-02
  0.548223909230E+01 -0.327429083576E-01  0.624604381952E-02
  0.548223909230E+01 -0.330704900438E-01  0.417777445214E-02
  0.548223909230E+01 -0.332675576143E-01  0.209301731764E-02
  0.548223909230E+01 -0.333333333333E-01  0.408215599716E-17
  0.538771772864E+01  0.500000000000E-01  0.000000000000E+00
  0.538771772864E+01  0.499013364214E-01  0.313952597647E-02
  0.538771772864E+01  0.496057350657E-01  0.626666167822E-02
  0.538771772864E+01  0.491143625364E-01  0.936906572929E-02
  0.538771772864E+01  0.484291580564E-01  0.124344943582E-01
  0.538771772864E+01  0.475528258148E-01  0.154508497187E-01
  0.538771772864E+01  0.464888242944E-01  0.184062276342E-01
  0.538771772864E+01  0.452413526233E-01  0.212889645783E-01
  0.538771772864E+01  0.438153340022E-01  0.240876837051E-01
  0.538771772864E+01  0.422163962751E-01  0.267913397489E-01
  0.538771772864E+01  0.404508497187E-01  0.293892626146E-01
  0.538771772864E+01  0.385256621388E-01  0.318711994874E-01
  0.538771772864E+01  0.364484313711E-01  0.342273552964E-01
  0.538771772864E+01  0.342273552964E-01  0.364484313711E-01
  0.538771772864E+01  0.318711994874E-01  0.385256621388E-01
  0.538771772864E+01  0.293892626146E-01  0.404508497187E-01
  0.538771772864E+01  0.267913397489E-01  0.422163962751E-01
  0.538771772864E+01  0.240876837051E-01  0.438153340022E-01
  0.538771772864E+01  0.212889645783E-01  0.452413526233E-01
  0.538771772864E+01  0.184062276342E-01  0.464888242944E-01
  0.538771772864E+01  0.154508497187E-01  0.475528258148E-01
  0.538771772864E+01  0.124344943582E-01  0.484291580564E-01
  0.538771772864E+01  0.936906572929E-02  0.491143625364E-01
  0.538771772864E+01  0.626666167822E-02  0.496057350657E-01
  0.538771772864E+01  0.313952597647E-02  0.499013364214E-01
  0.538771772864E+01 -0.804061324838E-17  0.500000000000E-01
  0.538771772864E+01 -0.313952597647E-02  0.499013364214E-01
  0.538771772864E+01 -0.626666167822E-02  0.496057350657E-01
  0.538771772864E+01 -0.936906572929E-02  0.491143625364E-01
  0.538771772864E+01 -0.124344943582E-01  0.484291580564E-01
  0.538771772864E+01 -0.154508497187E-01  0.475528258148E-01
  0.538771772864E+01 -0.184062276342E-01  0.464888242944E-01
  0.538771772864E+01 -0.212889645783E-01  0.452413526233E-01
  0.538771772864E+01 -0.240876837051E-01  0.438153340022E-01
  0.538771772864E+01 -0.267913397489E-01  0.422163962751E-01
  0.538771772864E+01 -0.293892626146E-01  0.404508497187E-01
  0.538771772864E+01 -0.318711994874E-01  0.385256621388E-01
  0.538771772864E+01 -0.342273552964E-01  0.364484313711E-01
  0.538771772864E+01 -0.364484313711E-01  0.342273552964E-01
  0.538771772864E+01 -0.385256621388E-01  0.318711994874E-01
  0.538771772864E+01 -0.404508497187E-01  0.293892626146E-01
  0.538771772864E+01 -0.422163962751E-01  0.267913397489E-01
  0.538771772864E+01 -0.438153340022E-01  0.240876837051E-01
  0.538771772864E+01 -0.452413526233E-01  0.212889645783E-01
  0.538771772864E+01 -0.464888242944E-01  0.184062276342E-01
  0.538771772864E+01 -0.475528258148E-01  0.154508497187E-01
  0.538771772864E+01 -0.484291580564E-01  0.124344943582E-01
  0.538771772864E+01 -0.491143625364E-01  0.936906572929E-02
  0.538771772864E+01 -0.496057350657E-01  0.626666167822E-02
  0.538771772864E+01 -0.499013364214E-01  0.313952597647E-02
  0.538771772864E+01 -0.500000000000E-01  0.612323399574E-17
  0.529319636498E+01  0.666666666667E-01  0.000000000000E+00
  0.529319636498E+01  0.665351152286E-01  0.418603463529E-02
  0.529319636498E+01  0.661409800876E-01  0.835554890429E-02
  0.529319636498E+01  0.654858167152E-01  0.124920876390E-01
  0.529319636498E+01  0.645722107419E-01  0.165793258110E-01
  0.529319636498E+01  0.634037677530E-01  0.206011329583E-01
  0.529319636498E+01  0.619850990592E-01  0.245416368456E-01
[...]
CELL_DATA                5950
SCALARS C_p_ise float 1
LOOKUP_TABLE default
  0.130793945453E+00
  0.130793945432E+00
  0.130793945428E+00
  0.130793945426E+00
  0.130793945437E+00
  0.130793945441E+00
  0.130793945436E+00
  0.130793945439E+00
  0.130793945432E+00
  0.130793945418E+00
  0.130793945412E+00
  0.130793945423E+00
  0.130793945444E+00
  0.130793945443E+00
  0.130793945435E+00
  0.130793945448E+00
  0.130793945440E+00
  0.130793945425E+00
  0.130793945431E+00
  0.130793945443E+00
  0.130793945442E+00
  0.130793945435E+00
  0.130793945429E+00
  0.130793945429E+00
  0.130793945435E+00
  0.130793945436E+00
  0.130793945436E+00
  0.130793945425E+00
  0.130793945423E+00
  0.130793945437E+00
  0.130793945438E+00
  0.130793945433E+00
  0.130793945430E+00
  0.130793945423E+00
  0.130793945418E+00
  0.130793945409E+00
  0.130793945419E+00
  0.130793945443E+00
  0.130793945440E+00
  0.130793945431E+00
  0.130793945447E+00
  0.130793945442E+00
  0.130793945430E+00
  0.130793945438E+00
  0.130793945449E+00
  0.130793945444E+00
  0.130793945432E+00
  0.130793945429E+00
  0.130793945429E+00
  0.130793945529E+00
  0.130793945017E+00
  0.130793945051E+00
  0.130793945033E+00
  0.130793945043E+00
  0.130793945054E+00
  0.130793945097E+00
  0.130793945079E+00
  0.130793945032E+00
  0.130793945039E+00
  0.130793945026E+00
  0.130793945041E+00
  0.130793945075E+00
  0.130793945071E+00
  0.130793945076E+00
  0.130793945069E+00
  0.130793945042E+00
  0.130793945049E+00
  0.130793945092E+00
  0.130793945094E+00
  0.130793945139E+00
  0.130793945122E+00
  0.130793945086E+00
  0.130793945093E+00
  0.130793945079E+00
  0.130793945093E+00
  0.130793945075E+00
  0.130793945067E+00
  0.130793945045E+00
  0.130793945034E+00
  0.130793945024E+00
  0.130793945052E+00
  0.130793945097E+00
  0.130793945086E+00
  0.130793945074E+00
  0.130793945066E+00
  0.130793945088E+00
  0.130793945091E+00
  0.130793945082E+00
  0.130793945077E+00
  0.130793945026E+00
  0.130793945033E+00
  0.130793945059E+00
  0.130793945056E+00
  0.130793945067E+00
  0.130793945063E+00
  0.130793945068E+00
  0.130793945066E+00
  0.130793945064E+00
  0.130793945069E+00
  0.130793945065E+00
  0.130793945049E+00
  0.130793944998E+00
  0.130793945014E+00
  0.130793945060E+00
  0.130793945060E+00
  0.130793945094E+00
  0.130793945075E+00
  0.130793945024E+00
  0.130793945038E+00
  0.130793945039E+00
  0.130793945046E+00
  0.130793945063E+00
  0.130793945066E+00
  0.130793945092E+00
  0.130793945086E+00
  0.130793945077E+00
  0.130793945077E+00
  0.130793945097E+00
  0.130793945100E+00
  0.130793945123E+00
  0.130793945116E+00
  0.130793945119E+00
  0.130793945117E+00
  0.130793945083E+00
  0.130793945101E+00
  0.130793945084E+00
  0.130793945065E+00
  0.130793945018E+00
  0.130793945008E+00
  0.130793945006E+00
  0.130793945033E+00
  0.130793945068E+00
  0.130793945068E+00
  0.130793945083E+00
  0.130793945075E+00
  0.130793945089E+00
  0.130793945097E+00
  0.130793945100E+00
  0.130793945091E+00
  0.130793945030E+00
  0.130793945029E+00
  0.130793945042E+00
  0.130793945035E+00
  0.130793945051E+00
  0.130793945050E+00
  0.130793945060E+00
  0.130793945062E+00
  0.130793945067E+00
  0.130793945263E+00
  0.130793945554E+00
  0.130793945015E+00
  0.130793945080E+00
  0.130793945068E+00
  0.130793945039E+00
  0.130793945027E+00
  0.130793944901E+00
  0.130793944912E+00
  0.130793944987E+00
  0.130793945002E+00
  0.130793945119E+00
  0.130793945102E+00
  0.130793944963E+00
  0.130793944979E+00
  0.130793945020E+00
  0.130793945056E+00
  0.130793945262E+00
  0.130793945226E+00
  0.130793945053E+00
  0.130793945048E+00
  0.130793944943E+00
  0.130793944964E+00
  0.130793945083E+00
  0.130793945055E+00
  0.130793944946E+00
  0.130793944958E+00
  0.130793944968E+00
  0.130793944971E+00
  0.130793945060E+00
  0.130793945039E+00
  0.130793945030E+00
  0.130793945040E+00
  0.130793944961E+00
  0.130793944994E+00
  0.130793945142E+00
  0.130793945111E+00
  0.130793945016E+00
  0.130793945032E+00
  0.130793945057E+00
  0.130793945051E+00
  0.130793945060E+00
  0.130793945051E+00
  0.130793945056E+00
  0.130793945072E+00
  0.130793945131E+00
  0.130793945137E+00
  0.130793945170E+00
  0.130793945153E+00
  0.130793945068E+00
  0.130793945069E+00
  0.130793945057E+00
  0.130793945052E+00
  0.130793945117E+00
  0.130793945102E+00
  0.130793945032E+00
  0.130793945024E+00
  0.130793944904E+00
  0.130793944918E+00
  0.130793945024E+00
  0.130793945034E+00
  0.130793945096E+00
  0.130793945102E+00
  0.130793945097E+00
  0.130793945089E+00
  0.130793945007E+00
  0.130793945036E+00
  0.130793945170E+00
  0.130793945137E+00
  0.130793944991E+00
  0.130793944987E+00
  0.130793944918E+00
  0.130793944949E+00
  0.130793945102E+00
  0.130793945083E+00
  0.130793944989E+00
  0.130793945002E+00
  0.130793945032E+00
  0.130793945008E+00
  0.130793945017E+00
  0.130793945009E+00
  0.130793945096E+00
  0.130793945102E+00
  0.130793944997E+00
  0.130793945016E+00
  0.130793945053E+00
  0.130793945043E+00
  0.130793945006E+00
  0.130793945025E+00
  0.130793945055E+00
  0.130793945061E+00
  0.130793945133E+00
  0.130793945103E+00
  0.130793945061E+00
  0.130793945059E+00
  0.130793945058E+00
  0.130793945079E+00
  0.130793945154E+00
  0.130793945156E+00
  0.130793945141E+00
  0.130793945428E+00
  0.130793945869E+00
  0.130793943938E+00
  0.130793943698E+00
  0.130793943689E+00
  0.130793943617E+00
  0.130793943593E+00
  0.130793943550E+00
  0.130793943552E+00
  0.130793943668E+00
  0.130793943678E+00
  0.130793943542E+00
  0.130793943568E+00
  0.130793943703E+00
  0.130793943679E+00
  0.130793943590E+00
  0.130793943593E+00
  0.130793943302E+00
  0.130793943347E+00
  0.130793943631E+00
  0.130793943596E+00
  0.130793943629E+00
  0.130793943623E+00
  0.130793943580E+00
  0.130793943596E+00
  0.130793943729E+00
  0.130793943719E+00
  0.130793943716E+00
  0.130793943736E+00
  0.130793943835E+00
  0.130793943811E+00
  0.130793943658E+00
  0.130793943666E+00
  0.130793943672E+00
  0.130793943673E+00
  0.130793943553E+00
  0.130793943548E+00
  0.130793943529E+00
  0.130793943527E+00
  0.130793943531E+00
  0.130793943536E+00
  0.130793943579E+00
  0.130793943602E+00
  0.130793943808E+00
  0.130793943798E+00
  0.130793943609E+00
  0.130793943629E+00
  0.130793943642E+00
  0.130793943645E+00
  0.130793943736E+00
  0.130793943731E+00
  0.130793943806E+00
  0.130793943778E+00
  0.130793943629E+00
  0.130793943613E+00
  0.130793943517E+00
  0.130793943506E+00
  0.130793943587E+00
  0.130793943590E+00
  0.130793943681E+00
  0.130793943695E+00
  0.130793943580E+00
  0.130793943592E+00
  0.130793943549E+00
  0.130793943536E+00
  0.130793943500E+00
  0.130793943508E+00
  0.130793943474E+00
  0.130793943471E+00
  0.130793943487E+00
  0.130793943482E+00
  0.130793943680E+00
  0.130793943675E+00
  0.130793943518E+00
  0.130793943545E+00
  0.130793943651E+00
  0.130793943654E+00
  0.130793943710E+00
  0.130793943713E+00
  0.130793943851E+00
  0.130793943815E+00
  0.130793943611E+00
  0.130793943649E+00
  0.130793943757E+00
  0.130793943749E+00
  0.130793943707E+00
  0.130793943679E+00
  0.130793943502E+00
  0.130793943512E+00
  0.130793943505E+00
  0.130793943502E+00
  0.130793943395E+00
  0.130793943433E+00
  0.130793943808E+00
  0.130793943796E+00
  0.130793943787E+00
  0.130793943789E+00
  0.130793943661E+00
  0.130793943662E+00
  0.130793943549E+00
  0.130793943885E+00
  0.130793944259E+00
  0.130793945449E+00
  0.130793945151E+00
  0.130793945189E+00
  0.130793945916E+00
  0.130793945828E+00
  0.130793945339E+00
  0.130793945322E+00
  0.130793945200E+00
  0.130793945254E+00
  0.130793945501E+00
  0.130793945488E+00
  0.130793945313E+00
  0.130793945323E+00
  0.130793945463E+00
  0.130793945476E+00
  0.130793945679E+00
  0.130793945663E+00
  0.130793945486E+00
  0.130793945482E+00
  0.130793945398E+00
  0.130793945393E+00
  0.130793945359E+00
  0.130793945384E+00
  0.130793945531E+00
  0.130793945504E+00
  0.130793945179E+00
  0.130793945209E+00
  0.130793945307E+00
  0.130793945333E+00
  0.130793945661E+00
  0.130793945596E+00
  0.130793945132E+00
  0.130793945167E+00
  0.130793945468E+00
  0.130793945433E+00
  0.130793945308E+00
  0.130793945319E+00
  0.130793945468E+00
  0.130793945457E+00
  0.130793945309E+00
  0.130793945292E+00
  0.130793944882E+00
  0.130793944939E+00
  0.130793945270E+00
  0.130793945271E+00
  0.130793945346E+00
  0.130793945330E+00
  0.130793945146E+00
  0.130793945160E+00
  0.130793945212E+00
  0.130793945186E+00
  0.130793945111E+00
  0.130793945174E+00
  0.130793946075E+00
  0.130793945992E+00
  0.130793945470E+00
  0.130793945450E+00
  0.130793945145E+00
  0.130793945215E+00
  0.130793945597E+00
  0.130793945579E+00
  0.130793945457E+00
  0.130793945449E+00
  0.130793945560E+00
  0.130793945533E+00
  0.130793945265E+00
  0.130793945299E+00
  0.130793945675E+00
  0.130793945668E+00
  0.130793945625E+00
  0.130793945590E+00
  0.130793945069E+00
  0.130793945120E+00
  0.130793945546E+00
  0.130793945521E+00
  0.130793945134E+00
  0.130793945168E+00
  0.130793945383E+00
  0.130793945372E+00
  0.130793945419E+00
  0.130793945394E+00
  0.130793945089E+00
  0.130793945108E+00
  0.130793945212E+00
  0.130793945187E+00
  0.130793945269E+00
  0.130793945277E+00
  0.130793945490E+00
  0.130793945500E+00
  0.130793945624E+00
  0.130793945580E+00
  0.130793944974E+00
  0.130793945047E+00
  0.130793945327E+00
  0.130793945344E+00
  0.130793945488E+00
  0.130793945454E+00
  0.130793945308E+00
  0.130793945754E+00
  0.130793946884E+00
  0.130793944512E+00
  0.130793944840E+00
  0.130793944732E+00
  0.130793943502E+00
  0.130793943621E+00
  0.130793945016E+00
  0.130793944918E+00
  0.130793944623E+00
  0.130793944607E+00
  0.130793943979E+00
  0.130793944007E+00
  0.130793944160E+00
  0.130793944162E+00
  0.130793944282E+00
  0.130793944268E+00
  0.130793943805E+00
  0.130793943825E+00
  0.130793943979E+00
  0.130793944010E+00
  0.130793944606E+00
  0.130793944574E+00
  0.130793944390E+00
  0.130793944366E+00
  0.130793943865E+00
  0.130793943902E+00
  0.130793944435E+00
  0.130793944407E+00
  0.130793944162E+00
  0.130793944158E+00
  0.130793943713E+00
  0.130793943750E+00
  0.130793944472E+00
  0.130793944423E+00
  0.130793944071E+00
  0.130793944069E+00
  0.130793944074E+00
  0.130793944079E+00
  0.130793944163E+00
  0.130793944135E+00
  0.130793943761E+00
  0.130793943796E+00
  0.130793944545E+00
  0.130793944548E+00
  0.130793944458E+00
  0.130793944500E+00
  0.130793944546E+00
  0.130793944529E+00
  0.130793944433E+00
  0.130793944415E+00
  0.130793944294E+00
  0.130793944288E+00
  0.130793944444E+00
  0.130793944408E+00
  0.130793943417E+00
  0.130793943565E+00
  0.130793945007E+00
  0.130793944891E+00
  0.130793944472E+00
  0.130793944492E+00
  0.130793944312E+00
  0.130793944311E+00
  0.130793944020E+00
  0.130793944009E+00
  0.130793944121E+00
  0.130793944126E+00
  0.130793944336E+00
  0.130793944330E+00
  0.130793944224E+00
  0.130793944247E+00
  0.130793944128E+00
  0.130793944131E+00
  0.130793944604E+00
  0.130793944527E+00
  0.130793943748E+00
  0.130793943817E+00
  0.130793944345E+00
  0.130793944337E+00
  0.130793944340E+00
  0.130793944336E+00
  0.130793944144E+00
  0.130793944149E+00
  0.130793944417E+00
  0.130793944379E+00
  0.130793944124E+00
  0.130793944121E+00
  0.130793944230E+00
  0.130793944245E+00
  0.130793944215E+00
  0.130793944209E+00
  0.130793943777E+00
  0.130793943832E+00
  0.130793944768E+00
  0.130793944725E+00
  0.130793944194E+00
  0.130793944236E+00
  0.130793944174E+00
  0.130793944191E+00
  0.130793944578E+00
  0.130793945019E+00
  0.130793945144E+00
  0.130793946238E+00
  0.130793947036E+00
  0.130793947007E+00
  0.130793947644E+00
  0.130793947600E+00
  0.130793946922E+00
  0.130793947077E+00
  0.130793948718E+00
  0.130793948644E+00
  0.130793948235E+00
  0.130793948193E+00
  0.130793948013E+00
  0.130793948048E+00
  0.130793948309E+00
  0.130793948306E+00
  0.130793948309E+00
  0.130793948243E+00
  0.130793947662E+00
  0.130793947709E+00
  0.130793947737E+00
  0.130793947805E+00
  0.130793948397E+00
  0.130793948325E+00
  0.130793947915E+00
  0.130793947893E+00
  0.130793947711E+00
  0.130793947748E+00
  0.130793947976E+00
  0.130793947940E+00
  0.130793947799E+00
  0.130793947823E+00
  0.130793948182E+00
  0.130793948227E+00
  0.130793948594E+00
  0.130793948569E+00
  0.130793948676E+00
  0.130793948643E+00
  0.130793948149E+00
  0.130793948171E+00
  0.130793948718E+00
  0.130793948657E+00
  0.130793947855E+00
  0.130793947881E+00
  0.130793947294E+00
  0.130793947341E+00
  0.130793947501E+00
  0.130793947465E+00
  0.130793947155E+00
  0.130793947205E+00
  0.130793948187E+00
  0.130793948167E+00
  0.130793948114E+00
  0.130793948095E+00
  0.130793948126E+00
  0.130793948088E+00
  0.130793946838E+00
  0.130793946990E+00
  0.130793948760E+00
  0.130793948636E+00
  0.130793947262E+00
  0.130793947319E+00
  0.130793948299E+00
  0.130793948289E+00
  0.130793948638E+00
  0.130793948628E+00
  0.130793948300E+00
  0.130793948251E+00
  0.130793947452E+00
  0.130793947504E+00
  0.130793948013E+00
  0.130793948047E+00
  0.130793948588E+00
  0.130793948533E+00
  0.130793948271E+00
  0.130793948236E+00
  0.130793947796E+00
  0.130793947828E+00
  0.130793947727E+00
  0.130793947705E+00
  0.130793947471E+00
  0.130793947550E+00
  0.130793948738E+00
  0.130793948698E+00
  0.130793948347E+00
  0.130793948331E+00
  0.130793948478E+00
  0.130793948467E+00
  0.130793948001E+00
  0.130793948004E+00
  0.130793948157E+00
  0.130793948140E+00
  0.130793947718E+00
  0.130793947726E+00
  0.130793947298E+00
  0.130793947310E+00
  0.130793947550E+00
  0.130793947559E+00
  0.130793947511E+00
  0.130793948186E+00
  0.130793950769E+00
  0.130793942430E+00
  0.130793942385E+00
  0.130793942377E+00
  0.130793941764E+00
  0.130793941803E+00
  0.130793942323E+00
  0.130793942307E+00
  0.130793940527E+00
  0.130793940622E+00
  0.130793941279E+00
  0.130793941228E+00
  0.130793941580E+00
  0.130793941628E+00
  0.130793942017E+00
  0.130793941951E+00
  0.130793940714E+00
  0.130793940781E+00
  0.130793942773E+00
  0.130793942698E+00
  0.130793941544E+00
  0.130793941595E+00
  0.130793941288E+00
  0.130793941299E+00
  0.130793941870E+00
  0.130793941863E+00
  0.130793942561E+00
  0.130793942546E+00
  0.130793941962E+00
  0.130793941949E+00
  0.130793942041E+00
  0.130793941988E+00
  0.130793940986E+00
  0.130793941106E+00
  0.130793941810E+00
  0.130793941767E+00
  0.130793941078E+00
  0.130793941097E+00
  0.130793941754E+00
  0.130793941799E+00
  0.130793942721E+00
  0.130793942651E+00
  0.130793941885E+00
  0.130793941827E+00
  0.130793941491E+00
  0.130793941510E+00
  0.130793941788E+00
  0.130793941722E+00
  0.130793941091E+00
  0.130793941112E+00
  0.130793941052E+00
  0.130793941070E+00
  0.130793940514E+00
  0.130793940518E+00
  0.130793940925E+00
  0.130793940960E+00
  0.130793942011E+00
  0.130793941978E+00
  0.130793940654E+00
  0.130793940743E+00
  0.130793941891E+00
  0.130793941803E+00
  0.130793941219E+00
  0.130793941285E+00
  0.130793941297E+00
  0.130793941311E+00
  0.130793941280E+00
  0.130793941271E+00
  0.130793942244E+00
  0.130793942197E+00
  0.130793941623E+00
  0.130793941673E+00
  0.130793941321E+00
  0.130793941340E+00
  0.130793941812E+00
  0.130793941812E+00
  0.130793942632E+00
  0.130793942604E+00
  0.130793942210E+00
  0.130793942183E+00
  0.130793942233E+00
  0.130793942169E+00
  0.130793940294E+00
  0.130793940453E+00
  0.130793942084E+00
  0.130793941986E+00
  0.130793941153E+00
  0.130793941191E+00
  0.130793941750E+00
  0.130793941803E+00
  0.130793943093E+00
  0.130793942986E+00
  0.130793941466E+00
  0.130793941462E+00
  0.130793941746E+00
  0.130793941752E+00
  0.130793942153E+00
  0.130793942087E+00
  0.130793940705E+00
  0.130793941494E+00
  0.130793943255E+00
  0.130793943662E+00
  0.130793944014E+00
  0.130793944050E+00
  0.130793944860E+00
  0.130793944860E+00
  0.130793944887E+00
  0.130793944847E+00
  0.130793943843E+00
  0.130793943896E+00
  0.130793945183E+00
  0.130793945190E+00
  0.130793945421E+00
  0.130793945366E+00
  0.130793943218E+00
  0.130793943316E+00
  0.130793945667E+00
  0.130793945572E+00
  0.130793944228E+00
  0.130793944172E+00
  0.130793942242E+00
  0.130793942324E+00
  0.130793944163E+00
  0.130793944115E+00
  0.130793943451E+00
  0.130793943480E+00
  0.130793943440E+00
  0.130793943509E+00
  0.130793944153E+00
  0.130793944133E+00
  0.130793944668E+00
  0.130793944608E+00
  0.130793944390E+00
  0.130793944400E+00
  0.130793943658E+00
  0.130793943759E+00
  0.130793945411E+00
  0.130793945308E+00
  0.130793944004E+00
  0.130793944018E+00
  0.130793942759E+00
  0.130793942836E+00
  0.130793944286E+00
  0.130793944236E+00
  0.130793945248E+00
  0.130793945233E+00
  0.130793945031E+00
  0.130793945056E+00
  0.130793946270E+00
  0.130793946079E+00
  0.130793943202E+00
  0.130793943344E+00
  0.130793945533E+00
  0.130793945436E+00
  0.130793944335E+00
  0.130793944439E+00
  0.130793945161E+00
  0.130793945151E+00
  0.130793944356E+00
  0.130793944398E+00
  0.130793945109E+00
  0.130793945129E+00
  0.130793945657E+00
  0.130793945541E+00
  0.130793943109E+00
  0.130793943218E+00
  0.130793944818E+00
  0.130793944732E+00
  0.130793943447E+00
  0.130793943434E+00
  0.130793942905E+00
  0.130793942991E+00
  0.130793944254E+00
  0.130793944234E+00
  0.130793943974E+00
  0.130793943976E+00
  0.130793943494E+00
  0.130793943551E+00
  0.130793944071E+00
  0.130793944044E+00
  0.130793944481E+00
  0.130793944435E+00
  0.130793944674E+00
  0.130793944671E+00
  0.130793944034E+00
  0.130793944091E+00
  0.130793944872E+00
  0.130793944781E+00
  0.130793943533E+00
  0.130793943632E+00
  0.130793943775E+00
  0.130793943793E+00
  0.130793944450E+00
  0.130793944389E+00
  0.130793945151E+00
  0.130793945153E+00
  0.130793944765E+00
  0.130793944795E+00
  0.130793945960E+00
  0.130793946551E+00
  0.130793944754E+00
  0.130793949240E+00
  0.130793946472E+00
  0.130793946543E+00
  0.130793946817E+00
  0.130793946711E+00
  0.130793943806E+00
  0.130793943985E+00
  0.130793948112E+00
  0.130793948053E+00
  0.130793947052E+00
  0.130793947066E+00
  0.130793945760E+00
  0.130793945777E+00
  0.130793946899E+00
  0.130793946854E+00
  0.130793946513E+00
  0.130793946549E+00
  0.130793946401E+00
  0.130793946386E+00
  0.130793948651E+00
  0.130793948486E+00
  0.130793945961E+00
  0.130793946088E+00
  0.130793947357E+00
  0.130793947345E+00
  0.130793947321E+00
  0.130793947269E+00
  0.130793945018E+00
  0.130793945076E+00
  0.130793945858E+00
  0.130793945870E+00
  0.130793946656E+00
  0.130793946627E+00
  0.130793946158E+00
  0.130793946260E+00
  0.130793947100E+00
  0.130793947084E+00
  0.130793946895E+00
  0.130793946890E+00
  0.130793947988E+00
  0.130793947951E+00
  0.130793947204E+00
  0.130793947271E+00
  0.130793947867E+00
  0.130793947802E+00
  0.130793945724E+00
  0.130793945842E+00
  0.130793947853E+00
  0.130793947755E+00
  0.130793948145E+00
  0.130793948088E+00
  0.130793947517E+00
  0.130793947553E+00
  0.130793947652E+00
  0.130793947485E+00
  0.130793943559E+00
  0.130793943811E+00
  0.130793947979E+00
  0.130793947892E+00
  0.130793946317E+00
  0.130793946352E+00
  0.130793945829E+00
  0.130793945799E+00
  0.130793946836E+00
  0.130793946824E+00
  0.130793947243E+00
  0.130793947235E+00
  0.130793946948E+00
  0.130793946884E+00
  0.130793947346E+00
  0.130793947360E+00
  0.130793946566E+00
  0.130793946629E+00
  0.130793946800E+00
  0.130793946831E+00
  0.130793947665E+00
  0.130793947529E+00
  0.130793944380E+00
  0.130793944513E+00
  0.130793946959E+00
  0.130793946889E+00
  0.130793945957E+00
  0.130793945975E+00
  0.130793946105E+00
  0.130793946211E+00
  0.130793947853E+00
  0.130793947809E+00
  0.130793947829E+00
  0.130793947812E+00
  0.130793947004E+00
  0.130793947072E+00
  0.130793947864E+00
  0.130793947846E+00
  0.130793947924E+00
  0.130793947857E+00
  0.130793945701E+00
  0.130793945780E+00
  0.130793947150E+00