# vtk DataFile Version 3.0
MachLine results file. Generated by MachLine, USU AeroLab (c) 2022.
ASCII
DATASET POLYDATA
POINTS                3061 float
  0.114300523028E+02  0.000000000000E+00  0.000000000000E+00
  0.112395514310E+02  0.166666666667E-01  0.000000000000E+00
  0.112395514310E+02  0.166337788071E-01  0.104650865882E-02
  0.112395514310E+02  0.165352450219E-01  0.208888722607E-02
  0.112395514310E+02  0.163714541788E-01  0.312302190976E-02
  0.112395514310E+02  0.161430526855E-01  0.414483145275E-02
  0.112395514310E+02  0.158509419383E-01  0.515028323958E-02
  0.112395514310E+02  0.154962747648E-01  0.613540921141E-02
  0.112395514310E+02  0.150804508744E-01  0.709632152608E-02
  0.112395514310E+02  0.146051113341E-01  0.802922790170E-02
  0.112395514310E+02  0.140721320917E-01  0.893044658298E-02
  0.112395514310E+02  0.134836165729E-01  0.979642087154E-02
  0.112395514310E+02  0.128418873796E-01  0.106237331625E-01
  0.112395514310E+02  0.121494771237E-01  0.114091184321E-01
  0.112395514310E+02  0.114091184321E-01  0.121494771237E-01
  0.112395514310E+02  0.106237331625E-01  0.128418873796E-01
  0.112395514310E+02  0.979642087154E-02  0.134836165729E-01
  0.112395514310E+02  0.893044658298E-02  0.140721320917E-01
  0.112395514310E+02  0.802922790170E-02  0.146051113341E-01
  0.112395514310E+02  0.709632152608E-02  0.150804508744E-01
  0.112395514310E+02  0.613540921141E-02  0.154962747648E-01
  0.112395514310E+02  0.515028323958E-02  0.158509419383E-01
  0.112395514310E+02  0.414483145275E-02  0.161430526855E-01
  0.112395514310E+02  0.312302190976E-02  0.163714541788E-01
  0.112395514310E+02  0.208888722607E-02  0.165352450219E-01
  0.112395514310E+02  0.104650865882E-02  0.166337788071E-01
  0.112395514310E+02 -0.268020441613E-17  0.166666666667E-01
  0.112395514310E+02 -0.104650865882E-02  0.166337788071E-01
  0.112395514310E+02 -0.208888722607E-02  0.165352450219E-01
  0.112395514310E+02 -0.312302190976E-02  0.163714541788E-01
  0.112395514310E+02 -0.414483145275E-02  0.161430526855E-01
  0.112395514310E+02 -0.515028323958E-02  0.158509419383E-01
  0.112395514310E+02 -0.613540921141E-02  0.154962747648E-01
  0.112395514310E+02 -0.709632152608E-02  0.150804508744E-01
  0.112395514310E+02 -0.802922790170E-02  0.146051113341E-01
  0.112395514310E+02 -0.893044658298E-02  0.140721320917E-01
  0.112395514310E+02 -0.979642087154E-02  0.134836165729E-01
  0.112395514310E+02 -0.106237331625E-01  0.128418873796E-01
  0.112395514310E+02 -0.114091184321E-01  0.121494771237E-01
  0.112395514310E+02 -0.121494771237E-01  0.114091184321E-01
  0.112395514310E+02 -0.128418873796E-01  0.106237331625E-01
  0.112395514310E+02 -0.134836165729E-01  0.979642087154E-02
  0.112395514310E+02 -0.140721320917E-01  0.893044658298E-02
  0.112395514310E+02 -0.146051113341E-01  0.802922790170E-02
  0.112395514310E+02 -0.150804508744E-01  0.709632152608E-02
  0.112395514310E+02 -0.154962747648E-01  0.613540921141E-02
  0.112395514310E+02 -0.158509419383E-01  0.515028323958E-02
  0.112395514310E+02 -0.161430526855E-01  0.414483145275E-02
  0.112395514310E+02 -0.163714541788E-01  0.312302190976E-02
  0.112395514310E+02 -0.165352450219E-01  0.208888722607E-02
  0.112395514310E+02 -0.166337788071E-01  0.104650865882E-02
  0.112395514310E+02 -0.166666666667E-01  0.204107799858E-17
  0.110490505593E+02  0.333333333333E-01  0.000000000000E+00
  0.110490505593E+02  0.332675576143E-01  0.209301731764E-02
  0.110490505593E+02  0.330704900438E-01  0.417777445214E-02
  0.110490505593E+02  0.327429083576E-01  0.624604381952E-02
  0.110490505593E+02  0.322861053710E-01  0.828966290550E-02
  0.110490505593E+02  0.317018838765E-01  0.103005664792E-01
  0.110490505593E+02  0.309925495296E-01  0.122708184228E-01
  0.110490505593E+02  0.301609017489E-01  0.141926430522E-01
  0.110490505593E+02  0.292102226681E-01  0.160584558034E-01
  0.110490505593E+02  0.281442641834E-01  0.178608931660E-01
  0.110490505593E+02  0.269672331458E-01  0.195928417431E-01
  0.110490505593E+02  0.256837747592E-01  0.212474663250E-01
  0.110490505593E+02  0.242989542474E-01  0.228182368643E-01
  0.110490505593E+02  0.228182368643E-01  0.242989542474E-01
  0.110490505593E+02  0.212474663250E-01  0.256837747592E-01
  0.110490505593E+02  0.195928417431E-01  0.269672331458E-01
  0.110490505593E+02  0.178608931660E-01  0.281442641834E-01
  0.110490505593E+02  0.160584558034E-01  0.292102226681E-01
  0.110490505593E+02  0.141926430522E-01  0.301609017489E-01
  0.110490505593E+02  0.122708184228E-01  0.309925495296E-01
  0.110490505593E+02  0.103005664792E-01  0.317018838765E-01
  0.110490505593E+02  0.828966290550E-02  0.322861053710E-01
  0.110490505593E+02  0.624604381952E-02  0.327429083576E-01
  0.110490505593E+02  0.417777445214E-02  0.330704900438E-01
  0.110490505593E+02  0.209301731764E-02  0.332675576143E-01
  0.110490505593E+02 -0.536040883226E-17  0.333333333333E-01
  0.110490505593E+02 -0.209301731764E-02  0.332675576143E-01
  0.110490505593E+02 -0.417777445214E-02  0.330704900438E-01
  0.110490505593E+02 -0.624604381952E-02  0.327429083576E-01
  0.110490505593E+02 -0.828966290550E-02  0.322861053710E-01
  0.110490505593E+02 -0.103005664792E-01  0.317018838765E-01
  0.110490505593E+02 -0.122708184228E-01  0.309925495296E-01
  0.110490505593E+02 -0.141926430522E-01  0.301609017489E-01
  0.110490505593E+02 -0.160584558034E-01  0.292102226681E-01
  0.110490505593E+02 -0.178608931660E-01  0.281442641834E-01
  0.110490505593E+02 -0.195928417431E-01  0.269672331458E-01
  0.110490505593E+02 -0.212474663250E-01  0.256837747592E-01
  0.110490505593E+02 -0.228182368643E-01  0.242989542474E-01
  0.110490505593E+02 -0.242989542474E-01  0.228182368643E-01
  0.110490505593E+02 -0.256837747592E-01  0.212474663250E-01
  0.110490505593E+02 -0.269672331458E-01  0.195928417431E-01
  0.110490505593E+02 -0.281442641834E-01  0.178608931660E-01
  0.110490505593E+02 -0.292102226681E-01  0.160584558034E-01
  0.110490505593E+02 -0.301609017489E-01  0.141926430522E-01
  0.110490505593E+02 -0.309925495296E-01  0.122708184228E-01
  0.110490505593E+02 -0.317018838765E-01  0.103005664792E-01
  0.110490505593E+02 -0.322861053710E-01  0.828966290550E-02
  0.110490505593E+02 -0.327429083576E-01  0.624604381952E-02
  0.110490505593E+02 -0.330704900438E-01  0.417777445214E-02
  0.110490505593E+02 -0.332675576143E-01  0.209301731764E-02
  0.110490505593E+02 -0.333333333333E-01  0.408215599716E-17
  0.108585496876E+02  0.500000000000E-01  0.000000000000E+00
  0.108585496876E+02  0.499013364214E-01  0.313952597647E-02
  0.108585496876E+02  0.496057350657E-01  0.626666167822E-02
  0.108585496876E+02  0.491143625364E-01  0.936906572929E-02
  0.108585496876E+02  0.484291580564E-01  0.124344943582E-01
  0.108585496876E+02  0.475528258148E-01  0.154508497187E-01
  0.108585496876E+02  0.464888242944E-01  0.184062276342E-01
  0.108585496876E+02  0.452413526233E-01  0.212889645783E-01
  0.108585496876E+02  0.438153340022E-01  0.240876837051E-01
  0.108585496876E+02  0.422163962751E-01  0.267913397489E-01
  0.108585496876E+02  0.404508497187E-01  0.293892626146E-01
  0.108585496876E+02  0.385256621388E-01  0.318711994874E-01
  0.108585496876E+02  0.364484313711E-01  0.342273552964E-01
  0.108585496876E+02  0.342273552964E-01  0.364484313711E-01
  0.108585496876E+02  0.318711994874E-01  0.385256621388E-01
  0.108585496876E+02  0.293892626146E-01  0.404508497187E-01
  0.108585496876E+02  0.267913397489E-01  0.422163962751E-01
  0.108585496876E+02  0.240876837051E-01  0.438153340022E-01
  0.108585496876E+02  0.212889645783E-01  0.452413526233E-01
  0.108585496876E+02  0.184062276342E-01  0.464888242944E-01
  0.108585496876E+02  0.154508497187E-01  0.475528258148E-01
  0.108585496876E+02  0.124344943582E-01  0.484291580564E-01
  0.108585496876E+02  0.936906572929E-02  0.491143625364E-01
  0.108585496876E+02  0.626666167822E-02  0.496057350657E-01
  0.108585496876E+02  0.313952597647E-02  0.499013364214E-01
  0.108585496876E+02 -0.804061324838E-17  0.500000000000E-01
  0.108585496876E+02 -0.313952597647E-02  0.499013364214E-01
  0.108585496876E+02 -0.626666167822E-02  0.496057350657E-01
  0.108585496876E+02 -0.936906572929E-02  0.491143625364E-01
  0.108585496876E+02 -0.124344943582E-01  0.484291580564E-01
  0.108585496876E+02 -0.154508497187E-01  0.475528258148E-01
  0.108585496876E+02 -0.184062276342E-01  0.464888242944E-01
  0.108585496876E+02 -0.212889645783E-01  0.452413526233E-01
  0.108585496876E+02 -0.240876837051E-01  0.438153340022E-01
  0.108585496876E+02 -0.267913397489E-01  0.422163962751E-01
  0.108585496876E+02 -0.293892626146E-01  0.404508497187E-01
  0.108585496876E+02 -0.318711994874E-01  0.385256621388E-01
  0.108585496876E+02 -0.342273552964E-01  0.364484313711E-01
  0.108585496876E+02 -0.364484313711E-01  0.342273552964E-01
  0.108585496876E+02 -0.385256621388E-01  0.318711994874E-01
  0.108585496876E+02 -0.404508497187E-01  0.293892626146E-01
  0.108585496876E+02 -0.422163962751E-01  0.267913397489E-01
  0.108585496876E+02 -0.438153340022E-01  0.240876837051E-01
  0.108585496876E+02 -0.452413526233E-01  0.212889645783E-01
  0.108585496876E+02 -0.464888242944E-01  0.184062276342E-01
  0.108585496876E+02 -0.475528258148E-01  0.154508497187E-01
  0.108585496876E+02 -0.484291580564E-01  0.124344943582E-01
  0.108585496876E+02 -0.491143625364E-01  0.936906572929E-02
  0.108585496876E+02 -0.496057350657E-01  0.626666167822E-02
  0.108585496876E+02 -0.499013364214E-01  0.313952597647E-02
  0.108585496876E+02 -0.500000000000E-01  0.612323399574E-17
  0.106680488159E+02  0.666666666667E-01  0.000000000000E+00
  0.106680488159E+02  0.665351152286E-01  0.418603463529E-02
  0.106680488159E+02  0.661409800876E-01  0.835554890429E-02
  0.106680488159E+02  0.654858167152E-01  0.124920876390E-01
  0.106680488159E+02  0.645722107419E-01  0.165793258110E-01
  0.106680488159E+02  0.634037677530E-01  0.206011329583E-01
  0.106680488159E+02  0.619850990592E-01  0.245416368456E-01
[...]
CELL_DATA                5950
SCALARS C_p_ise float 1
LOOKUP_TABLE default
  0.372450358948E-01
  0.372450358774E-01
  0.372450358766E-01
  0.372450358770E-01
  0.372450358770E-01
  0.372450358763E-01
  0.372450358792E-01
  0.372450358818E-01
  0.372450358805E-01
  0.372450358804E-01
  0.372450358816E-01
  0.372450358827E-01
  0.372450358811E-01
  0.372450358811E-01
  0.372450358815E-01
  0.372450358807E-01
  0.372450358810E-01
  0.372450358818E-01
  0.372450358806E-01
  0.372450358809E-01
  0.372450358798E-01
  0.372450358765E-01
  0.372450358773E-01
  0.372450358778E-01
  0.372450358778E-01
  0.372450358783E-01
  0.372450358776E-01
  0.372450358766E-01
  0.372450358769E-01
  0.372450358778E-01
  0.372450358782E-01
  0.372450358803E-01
  0.372450358818E-01
  0.372450358806E-01
  0.372450358805E-01
  0.372450358817E-01
  0.372450358828E-01
  0.372450358812E-01
  0.372450358811E-01
  0.372450358815E-01
  0.372450358807E-01
  0.372450358810E-01
  0.372450358818E-01
  0.372450358810E-01
  0.372450358796E-01
  0.372450358782E-01
  0.372450358767E-01
  0.372450358774E-01
  0.372450358776E-01
  0.372450358711E-01
  0.372450357273E-01
  0.372450357688E-01
  0.372450357489E-01
  0.372450357411E-01
  0.372450357417E-01
  0.372450357459E-01
  0.372450357501E-01
  0.372450357614E-01
  0.372450357596E-01
  0.372450357545E-01
  0.372450357543E-01
  0.372450357556E-01
  0.372450357560E-01
  0.372450357483E-01
  0.372450357508E-01
  0.372450357507E-01
  0.372450357488E-01
  0.372450357467E-01
  0.372450357478E-01
  0.372450357516E-01
  0.372450357520E-01
  0.372450357492E-01
  0.372450357493E-01
  0.372450357461E-01
  0.372450357482E-01
  0.372450357595E-01
  0.372450357573E-01
  0.372450357508E-01
  0.372450357502E-01
  0.372450357472E-01
  0.372450357448E-01
  0.372450357401E-01
  0.372450357408E-01
  0.372450357421E-01
  0.372450357424E-01
  0.372450357408E-01
  0.372450357434E-01
  0.372450357545E-01
  0.372450357492E-01
  0.372450357322E-01
  0.372450357361E-01
  0.372450357514E-01
  0.372450357491E-01
  0.372450357523E-01
  0.372450357521E-01
  0.372450357491E-01
  0.372450357502E-01
  0.372450357517E-01
  0.372450357512E-01
  0.372450357497E-01
  0.372450357490E-01
  0.372450357455E-01
  0.372450357460E-01
  0.372450357496E-01
  0.372450357479E-01
  0.372450357459E-01
  0.372450357500E-01
  0.372450357615E-01
  0.372450357597E-01
  0.372450357520E-01
  0.372450357527E-01
  0.372450357534E-01
  0.372450357540E-01
  0.372450357495E-01
  0.372450357510E-01
  0.372450357511E-01
  0.372450357491E-01
  0.372450357466E-01
  0.372450357476E-01
  0.372450357507E-01
  0.372450357519E-01
  0.372450357517E-01
  0.372450357513E-01
  0.372450357467E-01
  0.372450357487E-01
  0.372450357596E-01
  0.372450357574E-01
  0.372450357511E-01
  0.372450357505E-01
  0.372450357473E-01
  0.372450357447E-01
  0.372450357392E-01
  0.372450357402E-01
  0.372450357424E-01
  0.372450357428E-01
  0.372450357415E-01
  0.372450357431E-01
  0.372450357501E-01
  0.372450357460E-01
  0.372450357379E-01
  0.372450357397E-01
  0.372450357495E-01
  0.372450357490E-01
  0.372450357522E-01
  0.372450357521E-01
  0.372450357496E-01
  0.372450357506E-01
  0.372450357530E-01
  0.372450357770E-01
  0.372450358683E-01
  0.372450358011E-01
  0.372450358159E-01
  0.372450358141E-01
  0.372450358358E-01
  0.372450358286E-01
  0.372450358026E-01
  0.372450358073E-01
  0.372450358029E-01
  0.372450358054E-01
  0.372450358077E-01
  0.372450358066E-01
  0.372450358108E-01
  0.372450358109E-01
  0.372450358075E-01
  0.372450358084E-01
  0.372450358132E-01
  0.372450358140E-01
  0.372450358277E-01
  0.372450358248E-01
  0.372450358084E-01
  0.372450358086E-01
  0.372450358014E-01
  0.372450358012E-01
  0.372450358051E-01
  0.372450358073E-01
  0.372450358132E-01
  0.372450358112E-01
  0.372450357934E-01
  0.372450357969E-01
  0.372450358283E-01
  0.372450358255E-01
  0.372450358287E-01
  0.372450358271E-01
  0.372450358233E-01
  0.372450358242E-01
  0.372450358255E-01
  0.372450358264E-01
  0.372450358207E-01
  0.372450358187E-01
  0.372450358172E-01
  0.372450358179E-01
  0.372450358298E-01
  0.372450358284E-01
  0.372450358068E-01
  0.372450358136E-01
  0.372450358430E-01
  0.372450358392E-01
  0.372450358199E-01
  0.372450358175E-01
  0.372450358055E-01
  0.372450358074E-01
  0.372450358228E-01
  0.372450358223E-01
  0.372450358234E-01
  0.372450358198E-01
  0.372450358041E-01
  0.372450358068E-01
  0.372450358027E-01
  0.372450358053E-01
  0.372450358075E-01
  0.372450358065E-01
  0.372450358105E-01
  0.372450358107E-01
  0.372450358079E-01
  0.372450358086E-01
  0.372450358125E-01
  0.372450358126E-01
  0.372450358229E-01
  0.372450358208E-01
  0.372450358097E-01
  0.372450358096E-01
  0.372450357978E-01
  0.372450357995E-01
  0.372450358108E-01
  0.372450358116E-01
  0.372450358133E-01
  0.372450358112E-01
  0.372450357932E-01
  0.372450357966E-01
  0.372450358275E-01
  0.372450358258E-01
  0.372450358357E-01
  0.372450358328E-01
  0.372450358224E-01
  0.372450358237E-01
  0.372450358248E-01
  0.372450358257E-01
  0.372450358248E-01
  0.372450358218E-01
  0.372450358160E-01
  0.372450358163E-01
  0.372450358218E-01
  0.372450358214E-01
  0.372450358054E-01
  0.372450358131E-01
  0.372450358469E-01
  0.372450358427E-01
  0.372450358208E-01
  0.372450358571E-01
  0.372450359147E-01
  0.372450357649E-01
  0.372450357517E-01
  0.372450357535E-01
  0.372450357575E-01
  0.372450357526E-01
  0.372450357381E-01
  0.372450357406E-01
  0.372450357615E-01
  0.372450357641E-01
  0.372450357706E-01
  0.372450357696E-01
  0.372450357669E-01
  0.372450357624E-01
  0.372450357248E-01
  0.372450357334E-01
  0.372450357919E-01
  0.372450357953E-01
  0.372450358072E-01
  0.372450358026E-01
  0.372450357712E-01
  0.372450357698E-01
  0.372450357819E-01
  0.372450357798E-01
  0.372450357760E-01
  0.372450357746E-01
  0.372450357437E-01
  0.372450357470E-01
  0.372450357758E-01
  0.372450357721E-01
  0.372450357466E-01
  0.372450357552E-01
  0.372450357907E-01
  0.372450357857E-01
  0.372450357568E-01
  0.372450357562E-01
  0.372450357506E-01
  0.372450357539E-01
  0.372450357692E-01
  0.372450357652E-01
  0.372450357591E-01
  0.372450357579E-01
  0.372450357469E-01
  0.372450357490E-01
  0.372450357578E-01
  0.372450357558E-01
  0.372450357248E-01
  0.372450357298E-01
  0.372450357499E-01
  0.372450357501E-01
  0.372450357949E-01
  0.372450357916E-01
  0.372450357720E-01
  0.372450357747E-01
  0.372450357756E-01
  0.372450357680E-01
  0.372450357391E-01
  0.372450357415E-01
  0.372450357623E-01
  0.372450357649E-01
  0.372450357713E-01
  0.372450357704E-01
  0.372450357678E-01
  0.372450357633E-01
  0.372450357244E-01
  0.372450357331E-01
  0.372450357928E-01
  0.372450357961E-01
  0.372450358130E-01
  0.372450358077E-01
  0.372450357711E-01
  0.372450357705E-01
  0.372450357825E-01
  0.372450357805E-01
  0.372450357703E-01
  0.372450357699E-01
  0.372450357451E-01
  0.372450357475E-01
  0.372450357770E-01
  0.372450357753E-01
  0.372450357650E-01
  0.372450357714E-01
  0.372450357850E-01
  0.372450357810E-01
  0.372450357596E-01
  0.372450357579E-01
  0.372450357512E-01
  0.372450357547E-01
  0.372450357709E-01
  0.372450357665E-01
  0.372450357578E-01
  0.372450357570E-01
  0.372450357572E-01
  0.372450357581E-01
  0.372450357595E-01
  0.372450357586E-01
  0.372450357212E-01
  0.372450357283E-01
  0.372450357601E-01
  0.372450358087E-01
  0.372450359256E-01
  0.372450355343E-01
  0.372450355445E-01
  0.372450355443E-01
  0.372450355429E-01
  0.372450355391E-01
  0.372450355448E-01
  0.372450355416E-01
  0.372450355099E-01
  0.372450355177E-01
  0.372450355387E-01
  0.372450355351E-01
  0.372450355034E-01
  0.372450355033E-01
  0.372450355464E-01
  0.372450355431E-01
  0.372450354848E-01
  0.372450354988E-01
  0.372450355190E-01
  0.372450355200E-01
  0.372450355558E-01
  0.372450355553E-01
  0.372450356032E-01
  0.372450355966E-01
  0.372450355402E-01
  0.372450355401E-01
  0.372450355574E-01
  0.372450355542E-01
  0.372450355349E-01
  0.372450355353E-01
  0.372450355350E-01
  0.372450355304E-01
  0.372450354442E-01
  0.372450354545E-01
  0.372450355472E-01
  0.372450355405E-01
  0.372450355226E-01
  0.372450355276E-01
  0.372450355495E-01
  0.372450355469E-01
  0.372450355399E-01
  0.372450355322E-01
  0.372450354808E-01
  0.372450354872E-01
  0.372450355398E-01
  0.372450355430E-01
  0.372450355787E-01
  0.372450355701E-01
  0.372450354876E-01
  0.372450354927E-01
  0.372450355116E-01
  0.372450355129E-01
  0.372450354970E-01
  0.372450354998E-01
  0.372450355249E-01
  0.372450355202E-01
  0.372450355443E-01
  0.372450355391E-01
  0.372450355069E-01
  0.372450355148E-01
  0.372450355356E-01
  0.372450355320E-01
  0.372450354999E-01
  0.372450355000E-01
  0.372450355443E-01
  0.372450355409E-01
  0.372450354822E-01
  0.372450354963E-01
  0.372450355172E-01
  0.372450355183E-01
  0.372450355536E-01
  0.372450355532E-01
  0.372450356019E-01
  0.372450355952E-01
  0.372450355383E-01
  0.372450355384E-01
  0.372450355566E-01
  0.372450355534E-01
  0.372450355343E-01
  0.372450355346E-01
  0.372450355143E-01
  0.372450355122E-01
  0.372450354483E-01
  0.372450354565E-01
  0.372450355481E-01
  0.372450355414E-01
  0.372450355244E-01
  0.372450355295E-01
  0.372450355526E-01
  0.372450355500E-01
  0.372450355447E-01
  0.372450355366E-01
  0.372450354828E-01
  0.372450354895E-01
  0.372450355415E-01
  0.372450355450E-01
  0.372450355819E-01
  0.372450355735E-01
  0.372450354822E-01
  0.372450355665E-01
  0.372450358467E-01
  0.372450361071E-01
  0.372450361213E-01
  0.372450361210E-01
  0.372450361081E-01
  0.372450361070E-01
  0.372450361378E-01
  0.372450361314E-01
  0.372450360885E-01
  0.372450361006E-01
  0.372450361853E-01
  0.372450361904E-01
  0.372450362603E-01
  0.372450362452E-01
  0.372450361185E-01
  0.372450361228E-01
  0.372450361538E-01
  0.372450361558E-01
  0.372450360946E-01
  0.372450361009E-01
  0.372450361340E-01
  0.372450361245E-01
  0.372450359820E-01
  0.372450359966E-01
  0.372450361721E-01
  0.372450361612E-01
  0.372450361112E-01
  0.372450361120E-01
  0.372450361364E-01
  0.372450361382E-01
  0.372450361773E-01
  0.372450361787E-01
  0.372450362456E-01
  0.372450362346E-01
  0.372450361059E-01
  0.372450361167E-01
  0.372450361955E-01
  0.372450361925E-01
  0.372450361272E-01
  0.372450361289E-01
  0.372450361485E-01
  0.372450361415E-01
  0.372450361586E-01
  0.372450361586E-01
  0.372450361515E-01
  0.372450361606E-01
  0.372450361606E-01
  0.372450361573E-01
  0.372450361720E-01
  0.372450361675E-01
  0.372450361619E-01
  0.372450361600E-01
  0.372450361011E-01
  0.372450361028E-01
  0.372450361110E-01
  0.372450361120E-01
  0.372450361445E-01
  0.372450361380E-01
  0.372450360953E-01
  0.372450361073E-01
  0.372450361925E-01
  0.372450361976E-01
  0.372450362683E-01
  0.372450362532E-01
  0.372450361257E-01
  0.372450361301E-01
  0.372450361620E-01
  0.372450361638E-01
  0.372450361008E-01
  0.372450361072E-01
  0.372450361405E-01
  0.372450361309E-01
  0.372450359868E-01
  0.372450360014E-01
  0.372450361756E-01
  0.372450361649E-01
  0.372450361151E-01
  0.372450361161E-01
  0.372450361403E-01
  0.372450361423E-01
  0.372450361837E-01
  0.372450361849E-01
  0.372450362466E-01
  0.372450362363E-01
  0.372450361115E-01
  0.372450361221E-01
  0.372450361994E-01
  0.372450361965E-01
  0.372450361295E-01
  0.372450361312E-01
  0.372450361509E-01
  0.372450361396E-01
  0.372450361111E-01
  0.372450361154E-01
  0.372450361543E-01
  0.372450361633E-01
  0.372450361610E-01
  0.372450361591E-01
  0.372450361854E-01
  0.372450362483E-01
  0.372450361249E-01
  0.372450351918E-01
  0.372450351623E-01
  0.372450351470E-01
  0.372450349362E-01
  0.372450349433E-01
  0.372450350648E-01
  0.372450350751E-01
  0.372450352561E-01
  0.372450352489E-01
  0.372450350494E-01
  0.372450350612E-01
  0.372450350488E-01
  0.372450350473E-01
  0.372450351422E-01
  0.372450351369E-01
  0.372450351615E-01
  0.372450351590E-01
  0.372450350640E-01
  0.372450350634E-01
  0.372450350465E-01
  0.372450350448E-01
  0.372450351070E-01
  0.372450351043E-01
  0.372450350477E-01
  0.372450350559E-01
  0.372450350956E-01
  0.372450350860E-01
  0.372450350084E-01
  0.372450350069E-01
  0.372450349343E-01
  0.372450349444E-01
  0.372450350123E-01
  0.372450350096E-01
  0.372450350373E-01
  0.372450350306E-01
  0.372450349544E-01
  0.372450349573E-01
  0.372450349404E-01
  0.372450349416E-01
  0.372450350126E-01
  0.372450350101E-01
  0.372450350454E-01
  0.372450350396E-01
  0.372450349428E-01
  0.372450349538E-01
  0.372450349861E-01
  0.372450349908E-01
  0.372450350952E-01
  0.372450350912E-01
  0.372450350811E-01
  0.372450350827E-01
  0.372450351354E-01
  0.372450351180E-01
  0.372450349388E-01
  0.372450349498E-01
  0.372450350694E-01
  0.372450350797E-01
  0.372450352589E-01
  0.372450352516E-01
  0.372450350502E-01
  0.372450350620E-01
  0.372450350477E-01
  0.372450350464E-01
  0.372450351425E-01
  0.372450351372E-01
  0.372450351612E-01
  0.372450351594E-01
  0.372450350743E-01
  0.372450350728E-01
  0.372450350433E-01
  0.372450350417E-01
  0.372450351064E-01
  0.372450351035E-01
  0.372450350460E-01
  0.372450350520E-01
  0.372450350635E-01
  0.372450350563E-01
  0.372450350089E-01
  0.372450350071E-01
  0.372450349289E-01
  0.372450349392E-01
  0.372450350088E-01
  0.372450350062E-01
  0.372450350332E-01
  0.372450350266E-01
  0.372450349510E-01
  0.372450349536E-01
  0.372450349348E-01
  0.372450349360E-01
  0.372450350085E-01
  0.372450350057E-01
  0.372450350921E-01
  0.372450350840E-01
  0.372450349575E-01
  0.372450349709E-01
  0.372450349832E-01
  0.372450349882E-01
  0.372450350796E-01
  0.372450351619E-01
  0.372450353825E-01
  0.372450365257E-01
  0.372450366522E-01
  0.372450366526E-01
  0.372450369215E-01
  0.372450369070E-01
  0.372450368269E-01
  0.372450368371E-01
  0.372450366951E-01
  0.372450367015E-01
  0.372450366971E-01
  0.372450366918E-01
  0.372450366656E-01
  0.372450366541E-01
  0.372450365164E-01
  0.372450365315E-01
  0.372450367278E-01
  0.372450367219E-01
  0.372450366438E-01
  0.372450366335E-01
  0.372450365978E-01
  0.372450366036E-01
  0.372450367352E-01
  0.372450367384E-01
  0.372450367563E-01
  0.372450367608E-01
  0.372450367717E-01
  0.372450367752E-01
  0.372450369263E-01
  0.372450369171E-01
  0.372450368920E-01
  0.372450368901E-01
  0.372450367930E-01
  0.372450367978E-01
  0.372450368323E-01
  0.372450368245E-01
  0.372450367760E-01
  0.372450367736E-01
  0.372450367832E-01
  0.372450367795E-01
  0.372450367255E-01
  0.372450367364E-01
  0.372450368551E-01
  0.372450368589E-01
  0.372450369613E-01
  0.372450369477E-01
  0.372450366920E-01
  0.372450367027E-01
  0.372450367549E-01
  0.372450367554E-01
  0.372450367021E-01
  0.372450367039E-01
  0.372450367178E-01
  0.372450367146E-01
  0.372450368662E-01
  0.372450368603E-01
  0.372450368130E-01
  0.372450368233E-01
  0.372450366853E-01
  0.372450366917E-01
  0.372450366906E-01
  0.372450366852E-01
  0.372450366599E-01
  0.372450366485E-01
  0.372450365122E-01
  0.372450365274E-01
  0.372450367243E-01
  0.372450367225E-01
  0.372450366942E-01
  0.372450366809E-01
  0.372450366035E-01
  0.372450366085E-01
  0.372450367404E-01
  0.372450367437E-01
  0.372450367641E-01
  0.372450367685E-01
  0.372450368112E-01
  0.372450368126E-01
  0.372450369276E-01
  0.372450369208E-01
  0.372450369009E-01
  0.372450368987E-01
  0.372450368001E-01
  0.372450368048E-01
  0.372450368339E-01
  0.372450368283E-01
  0.372450368110E-01
  0.372450368084E-01
  0.372450368171E-01
  0.372450368110E-01
  0.372450367240E-01
  0.372450367349E-01
  0.372450368570E-01
  0.372450368603E-01
  0.372450369320E-01
  0.372450369202E-01
  0.372450366875E-01
  0.372450366969E-01
  0.372450367498E-01
  0.372450368597E-01
  0.372450371669E-01
  0.372450349142E-01
  0.372450348501E-01
  0.372450348539E-01
  0.372450347680E-01
  0.372450347686E-01
  0.372450347207E-01
  0.372450347153E-01
  0.372450345413E-01
  0.372450345638E-01
  0.372450349983E-01
  0.372450349698E-01
  0.372450345806E-01
  0.372450345848E-01
  0.372450348833E-01
  0.372450348701E-01
  0.372450345459E-01
  0.372450345657E-01
  0.372450347797E-01
  0.372450347613E-01
  0.372450347116E-01
  0.372450347186E-01
  0.372450347799E-01
  0.372450347872E-01
  0.372450347063E-01
  0.372450347021E-01
  0.372450345330E-01
  0.372450345493E-01
  0.372450347553E-01
  0.372450347480E-01
  0.372450346098E-01
  0.372450346131E-01
  0.372450347293E-01
  0.372450347232E-01
  0.372450346480E-01
  0.372450346420E-01
  0.372450346351E-01
  0.372450346431E-01
  0.372450348746E-01
  0.372450348735E-01
  0.372450349062E-01
  0.372450348914E-01
  0.372450345158E-01
  0.372450345414E-01
  0.372450347789E-01
  0.372450347627E-01
  0.372450346015E-01
  0.372450346058E-01
  0.372450347867E-01
  0.372450347847E-01
  0.372450346825E-01
  0.372450346796E-01
  0.372450346610E-01
  0.372450346630E-01
  0.372450347373E-01
  0.372450347406E-01
  0.372450347255E-01
  0.372450347181E-01
  0.372450344716E-01
  0.372450344982E-01
  0.372450349975E-01
  0.372450349614E-01
  0.372450344414E-01
  0.372450344533E-01
  0.372450348789E-01
  0.372450348659E-01
  0.372450345411E-01
  0.372450345610E-01
  0.372450347067E-01
  0.372450346962E-01
  0.372450347750E-01
  0.372450347744E-01
  0.372450347686E-01
  0.372450347758E-01
  0.372450346909E-01
  0.372450346867E-01
  0.372450345175E-01
  0.372450345343E-01
  0.372450347468E-01
  0.372450347396E-01
  0.372450346033E-01
  0.372450346065E-01
  0.372450347213E-01
  0.372450347153E-01
  0.372450346456E-01
  0.372450346397E-01
  0.372450346029E-01
  0.372450346129E-01
  0.372450348473E-01
  0.372450348463E-01
  0.372450349209E-01
  0.372450349036E-01
  0.372450345220E-01
  0.372450345397E-01
  0.372450346446E-01
  0.372450346368E-01
  0.372450346222E-01
  0.372450346251E-01
  0.372450347779E-01
  0.372450349019E-01
  0.372450350840E-01
  0.372450359782E-01
  0.372450358108E-01
  0.372450357974E-01
  0.372450355424E-01
  0.372450355420E-01
  0.372450356183E-01
  0.372450356224E-01
  0.372450358550E-01
  0.372450358549E-01
  0.372450356194E-01
  0.372450356330E-01
  0.372450359468E-01
  0.372450359275E-01
  0.372450359163E-01
  0.372450359252E-01
  0.372450360106E-01
  0.372450360022E-01
  0.372450358272E-01
  0.372450358408E-01
  0.372450362097E-01
  0.372450362006E-01
  0.372450359509E-01
  0.372450359586E-01
  0.372450358982E-01
  0.372450359000E-01
  0.372450361048E-01
  0.372450360751E-01
  0.372450353877E-01
  0.372450354351E-01
  0.372450362430E-01
  0.372450362169E-01
  0.372450358128E-01
  0.372450358260E-01
  0.372450360644E-01
  0.372450360518E-01
  0.372450360101E-01
  0.372450359985E-01
  0.372450356331E-01
  0.372450356606E-01
  0.372450359462E-01
  0.372450359363E-01
  0.372450359925E-01
  0.372450359934E-01
  0.372450359427E-01
  0.372450359549E-01
  0.372450362295E-01
  0.372450362028E-01
  0.372450357949E-01
  0.372450358109E-01
  0.372450359521E-01
  0.372450359538E-01
  0.372450361545E-01
  0.372450361302E-01
  0.372450356519E-01
  0.372450356576E-01
  0.372450356213E-01
  0.372450356294E-01
  0.372450359407E-01
  0.372450359363E-01
  0.372450356231E-01
  0.372450356407E-01
  0.372450361029E-01
  0.372450360759E-01
  0.372450359185E-01
  0.372450359351E-01
  0.372450360212E-01
  0.372450360128E-01
  0.372450358388E-01
  0.372450358524E-01
  0.372450361471E-01
  0.372450361422E-01
  0.372450359708E-01
  0.372450359749E-01
  0.372450359214E-01
  0.372450359231E-01
  0.372450361288E-01
  0.372450360993E-01
  0.372450354104E-01
  0.372450354580E-01
  0.372450362628E-01
  0.372450362363E-01
  0.372450358240E-01
  0.372450358381E-01
  0.372450360919E-01
  0.372450360793E-01
  0.372450360285E-01
  0.372450360170E-01
  0.372450356475E-01
  0.372450356751E-01
  0.372450359578E-01
  0.372450359564E-01
  0.372450361760E-01
  0.372450361679E-01
  0.372450361049E-01
  0.372450360971E-01
  0.372450359807E-01
  0.372450359728E-01
  0.372450357842E-01