# vtk DataFile Version 3.0
MachLine results file. Generated by MachLine, USU AeroLab (c) 2022.
ASCII
DATASET POLYDATA
POINTS                 781 float
  0.567128181962E+01  0.000000000000E+00  0.000000000000E+00
  0.548223909230E+01  0.333333333333E-01  0.000000000000E+00
  0.548223909230E+01  0.330704900438E-01  0.417777445214E-02
  0.548223909230E+01  0.322861053710E-01  0.828966290550E-02
  0.548223909230E+01  0.309925495296E-01  0.122708184228E-01
  0.548223909230E+01  0.292102226681E-01  0.160584558034E-01
  0.548223909230E+01  0.269672331458E-01  0.195928417431E-01
  0.548223909230E+01  0.242989542474E-01  0.228182368643E-01
  0.548223909230E+01  0.212474663250E-01  0.256837747592E-01
  0.548223909230E+01  0.178608931660E-01  0.281442641834E-01
  0.548223909230E+01  0.141926430522E-01  0.301609017489E-01
  0.548223909230E+01  0.103005664792E-01  0.317018838765E-01
  0.548223909230E+01  0.624604381952E-02  0.327429083576E-01
  0.548223909230E+01  0.209301731764E-02  0.332675576143E-01
  0.548223909230E+01 -0.209301731764E-02  0.332675576143E-01
  0.548223909230E+01 -0.624604381952E-02  0.327429083576E-01
  0.548223909230E+01 -0.103005664792E-01  0.317018838765E-01
  0.548223909230E+01 -0.141926430522E-01  0.301609017489E-01
  0.548223909230E+01 -0.178608931660E-01  0.281442641834E-01
  0.548223909230E+01 -0.212474663250E-01  0.256837747592E-01
  0.548223909230E+01 -0.242989542474E-01  0.228182368643E-01
  0.548223909230E+01 -0.269672331458E-01  0.195928417431E-01
  0.548223909230E+01 -0.292102226681E-01  0.160584558034E-01
  0.548223909230E+01 -0.309925495296E-01  0.122708184228E-01
  0.548223909230E+01 -0.322861053710E-01  0.828966290550E-02
  0.548223909230E+01 -0.330704900438E-01  0.417777445214E-02
  0.548223909230E+01 -0.333333333333E-01  0.408215599716E-17
  0.529319636498E+01  0.666666666667E-01  0.000000000000E+00
  0.529319636498E+01  0.661409800876E-01  0.835554890429E-02
  0.529319636498E+01  0.645722107419E-01  0.165793258110E-01
  0.529319636498E+01  0.619850990592E-01  0.245416368456E-01
  0.529319636498E+01  0.584204453363E-01  0.321169116068E-01
  0.529319636498E+01  0.539344662917E-01  0.391856834862E-01
  0.529319636498E+01  0.485979084948E-01  0.456364737286E-01
  0.529319636498E+01  0.424949326499E-01  0.513675495184E-01
  0.529319636498E+01  0.357217863319E-01  0.562885283668E-01
  0.529319636498E+01  0.283852861043E-01  0.603218034977E-01
  0.529319636498E+01  0.206011329583E-01  0.634037677530E-01
  0.529319636498E+01  0.124920876390E-01  0.654858167152E-01
  0.529319636498E+01  0.418603463529E-02  0.665351152286E-01
  0.529319636498E+01 -0.418603463529E-02  0.665351152286E-01
  0.529319636498E+01 -0.124920876390E-01  0.654858167152E-01
  0.529319636498E+01 -0.206011329583E-01  0.634037677530E-01
  0.529319636498E+01 -0.283852861043E-01  0.603218034977E-01
  0.529319636498E+01 -0.357217863319E-01  0.562885283668E-01
  0.529319636498E+01 -0.424949326499E-01  0.513675495184E-01
  0.529319636498E+01 -0.485979084948E-01  0.456364737286E-01
  0.529319636498E+01 -0.539344662917E-01  0.391856834862E-01
  0.529319636498E+01 -0.584204453363E-01  0.321169116068E-01
  0.529319636498E+01 -0.619850990592E-01  0.245416368456E-01
  0.529319636498E+01 -0.645722107419E-01  0.165793258110E-01
  0.529319636498E+01 -0.661409800876E-01  0.835554890429E-02
  0.529319636498E+01 -0.666666666667E-01  0.816431199432E-17
  0.510415363766E+01  0.100000000000E+00  0.000000000000E+00
  0.510415363766E+01  0.992114701314E-01  0.125333233564E-01
  0.510415363766E+01  0.968583161129E-01  0.248689887165E-01
  0.510415363766E+01  0.929776485888E-01  0.368124552685E-01
  0.510415363766E+01  0.876306680044E-01  0.481753674102E-01
  0.510415363766E+01  0.809016994375E-01  0.587785252292E-01
  0.510415363766E+01  0.728968627421E-01  0.684547105929E-01
  0.510415363766E+01  0.637423989749E-01  0.770513242776E-01
  0.510415363766E+01  0.535826794979E-01  0.844327925502E-01
  0.510415363766E+01  0.425779291565E-01  0.904827052466E-01
  0.510415363766E+01  0.309016994375E-01  0.951056516295E-01
  0.510415363766E+01  0.187381314586E-01  0.982287250729E-01
  0.510415363766E+01  0.627905195293E-02  0.998026728428E-01
  0.510415363766E+01 -0.627905195293E-02  0.998026728428E-01
  0.510415363766E+01 -0.187381314586E-01  0.982287250729E-01
  0.510415363766E+01 -0.309016994375E-01  0.951056516295E-01
  0.510415363766E+01 -0.425779291565E-01  0.904827052466E-01
  0.510415363766E+01 -0.535826794979E-01  0.844327925502E-01
  0.510415363766E+01 -0.637423989749E-01  0.770513242776E-01
  0.510415363766E+01 -0.728968627421E-01  0.684547105929E-01
  0.510415363766E+01 -0.809016994375E-01  0.587785252292E-01
  0.510415363766E+01 -0.876306680044E-01  0.481753674102E-01
  0.510415363766E+01 -0.929776485888E-01  0.368124552685E-01
  0.510415363766E+01 -0.968583161129E-01  0.248689887165E-01
  0.510415363766E+01 -0.992114701314E-01  0.125333233564E-01
  0.510415363766E+01 -0.100000000000E+00  0.122464679915E-16
  0.491511091034E+01  0.133333333333E+00  0.000000000000E+00
  0.491511091034E+01  0.132281960175E+00  0.167110978086E-01
  0.491511091034E+01  0.129144421484E+00  0.331586516220E-01
  0.491511091034E+01  0.123970198118E+00  0.490832736913E-01
  0.491511091034E+01  0.116840890673E+00  0.642338232136E-01
  0.491511091034E+01  0.107868932583E+00  0.783713669723E-01
  0.491511091034E+01  0.971958169895E-01  0.912729474572E-01
  0.491511091034E+01  0.849898652998E-01  0.102735099037E+00
  0.491511091034E+01  0.714435726639E-01  0.112577056734E+00
  0.491511091034E+01  0.567705722087E-01  0.120643606995E+00
  0.491511091034E+01  0.412022659167E-01  0.126807535506E+00
  0.491511091034E+01  0.249841752781E-01  0.130971633430E+00
  0.491511091034E+01  0.837206927058E-02  0.133070230457E+00
  0.491511091034E+01 -0.837206927058E-02  0.133070230457E+00
  0.491511091034E+01 -0.249841752781E-01  0.130971633430E+00
  0.491511091034E+01 -0.412022659167E-01  0.126807535506E+00
  0.491511091034E+01 -0.567705722087E-01  0.120643606995E+00
  0.491511091034E+01 -0.714435726639E-01  0.112577056734E+00
  0.491511091034E+01 -0.849898652998E-01  0.102735099037E+00
  0.491511091034E+01 -0.971958169895E-01  0.912729474572E-01
  0.491511091034E+01 -0.107868932583E+00  0.783713669723E-01
  0.491511091034E+01 -0.116840890673E+00  0.642338232136E-01
  0.491511091034E+01 -0.123970198118E+00  0.490832736913E-01
  0.491511091034E+01 -0.129144421484E+00  0.331586516220E-01
  0.491511091034E+01 -0.132281960175E+00  0.167110978086E-01
  0.491511091034E+01 -0.133333333333E+00  0.163286239886E-16
  0.472606818301E+01  0.166666666667E+00  0.000000000000E+00
  0.472606818301E+01  0.165352450219E+00  0.208888722607E-01
  0.472606818301E+01  0.161430526855E+00  0.414483145275E-01
  0.472606818301E+01  0.154962747648E+00  0.613540921141E-01
  0.472606818301E+01  0.146051113341E+00  0.802922790170E-01
  0.472606818301E+01  0.134836165729E+00  0.979642087154E-01
  0.472606818301E+01  0.121494771237E+00  0.114091184321E+00
  0.472606818301E+01  0.106237331625E+00  0.128418873796E+00
  0.472606818301E+01  0.893044658298E-01  0.140721320917E+00
  0.472606818301E+01  0.709632152608E-01  0.150804508744E+00
  0.472606818301E+01  0.515028323958E-01  0.158509419383E+00
  0.472606818301E+01  0.312302190976E-01  0.163714541788E+00
  0.472606818301E+01  0.104650865882E-01  0.166337788071E+00
  0.472606818301E+01 -0.104650865882E-01  0.166337788071E+00
  0.472606818301E+01 -0.312302190976E-01  0.163714541788E+00
  0.472606818301E+01 -0.515028323958E-01  0.158509419383E+00
  0.472606818301E+01 -0.709632152608E-01  0.150804508744E+00
  0.472606818301E+01 -0.893044658298E-01  0.140721320917E+00
  0.472606818301E+01 -0.106237331625E+00  0.128418873796E+00
  0.472606818301E+01 -0.121494771237E+00  0.114091184321E+00
  0.472606818301E+01 -0.134836165729E+00  0.979642087154E-01
  0.472606818301E+01 -0.146051113341E+00  0.802922790170E-01
  0.472606818301E+01 -0.154962747648E+00  0.613540921141E-01
  0.472606818301E+01 -0.161430526855E+00  0.414483145275E-01
  0.472606818301E+01 -0.165352450219E+00  0.208888722607E-01
  0.472606818301E+01 -0.166666666667E+00  0.204107799858E-16
  0.453702545569E+01  0.200000000000E+00  0.000000000000E+00
  0.453702545569E+01  0.198422940263E+00  0.250666467129E-01
  0.453702545569E+01  0.193716632226E+00  0.497379774330E-01
  0.453702545569E+01  0.185955297178E+00  0.736249105369E-01
  0.453702545569E+01  0.175261336009E+00  0.963507348203E-01
  0.453702545569E+01  0.161803398875E+00  0.117557050458E+00
  0.453702545569E+01  0.145793725484E+00  0.136909421186E+00
  0.453702545569E+01  0.127484797950E+00  0.154102648555E+00
  0.453702545569E+01  0.107165358996E+00  0.168865585100E+00
  0.453702545569E+01  0.851558583130E-01  0.180965410493E+00
  0.453702545569E+01  0.618033988750E-01  0.190211303259E+00
  0.453702545569E+01  0.374762629171E-01  0.196457450146E+00
  0.453702545569E+01  0.125581039059E-01  0.199605345686E+00
  0.453702545569E+01 -0.125581039059E-01  0.199605345686E+00
  0.453702545569E+01 -0.374762629171E-01  0.196457450146E+00
  0.453702545569E+01 -0.618033988750E-01  0.190211303259E+00
  0.453702545569E+01 -0.851558583130E-01  0.180965410493E+00
  0.453702545569E+01 -0.107165358996E+00  0.168865585100E+00
  0.453702545569E+01 -0.127484797950E+00  0.154102648555E+00
  0.453702545569E+01 -0.145793725484E+00  0.136909421186E+00
  0.453702545569E+01 -0.161803398875E+00  0.117557050458E+00
  0.453702545569E+01 -0.175261336009E+00  0.963507348203E-01
  0.453702545569E+01 -0.185955297178E+00  0.736249105369E-01
  0.453702545569E+01 -0.193716632226E+00  0.497379774330E-01
  0.453702545569E+01 -0.198422940263E+00  0.250666467129E-01
  0.453702545569E+01 -0.200000000000E+00  0.244929359829E-16
  0.434798272837E+01  0.233333333333E+00  0.000000000000E+00
  0.434798272837E+01  0.231493430307E+00  0.292444211650E-01
  0.434798272837E+01  0.226002737597E+00  0.580276403385E-01
  0.434798272837E+01  0.216947846707E+00  0.858957289598E-01
[...]
CELL_DATA                1475
SCALARS C_p_ise float 1
LOOKUP_TABLE default
  0.115298873673E+00
  0.115298873602E+00
  0.115298873603E+00
  0.115298873590E+00
  0.115298873597E+00
  0.115298873629E+00
  0.115298873643E+00
  0.115298873640E+00
  0.115298873627E+00
  0.115298873613E+00
  0.115298873614E+00
  0.115298873609E+00
  0.115298873606E+00
  0.115298873601E+00
  0.115298873612E+00
  0.115298873627E+00
  0.115298873640E+00
  0.115298873637E+00
  0.115298873622E+00
  0.115298873615E+00
  0.115298873612E+00
  0.115298873610E+00
  0.115298873608E+00
  0.115298873605E+00
  0.115298873589E+00
  0.115298872665E+00
  0.115298872848E+00
  0.115298872747E+00
  0.115298872656E+00
  0.115298872689E+00
  0.115298872786E+00
  0.115298872780E+00
  0.115298872803E+00
  0.115298872775E+00
  0.115298872669E+00
  0.115298872706E+00
  0.115298872721E+00
  0.115298872747E+00
  0.115298872780E+00
  0.115298872765E+00
  0.115298872728E+00
  0.115298872725E+00
  0.115298872753E+00
  0.115298872719E+00
  0.115298872660E+00
  0.115298872697E+00
  0.115298872802E+00
  0.115298872763E+00
  0.115298872664E+00
  0.115298872660E+00
  0.115298872658E+00
  0.115298872663E+00
  0.115298872694E+00
  0.115298872673E+00
  0.115298872574E+00
  0.115298872612E+00
  0.115298872680E+00
  0.115298872700E+00
  0.115298872719E+00
  0.115298872718E+00
  0.115298872723E+00
  0.115298872706E+00
  0.115298872702E+00
  0.115298872709E+00
  0.115298872752E+00
  0.115298872724E+00
  0.115298872650E+00
  0.115298872675E+00
  0.115298872756E+00
  0.115298872773E+00
  0.115298872830E+00
  0.115298872825E+00
  0.115298872818E+00
  0.115298872961E+00
  0.115298873438E+00
  0.115298872634E+00
  0.115298872902E+00
  0.115298872878E+00
  0.115298872959E+00
  0.115298872951E+00
  0.115298872896E+00
  0.115298872900E+00
  0.115298872789E+00
  0.115298872780E+00
  0.115298872840E+00
  0.115298872831E+00
  0.115298872781E+00
  0.115298872796E+00
  0.115298872716E+00
  0.115298872700E+00
  0.115298872640E+00
  0.115298872665E+00
  0.115298872867E+00
  0.115298872827E+00
  0.115298872746E+00
  0.115298872778E+00
  0.115298872854E+00
  0.115298872883E+00
  0.115298873046E+00
  0.115298873015E+00
  0.115298873045E+00
  0.115298873034E+00
  0.115298872956E+00
  0.115298872940E+00
  0.115298872918E+00
  0.115298872921E+00
  0.115298872914E+00
  0.115298872947E+00
  0.115298872903E+00
  0.115298872931E+00
  0.115298873042E+00
  0.115298873000E+00
  0.115298872864E+00
  0.115298872856E+00
  0.115298872786E+00
  0.115298872767E+00
  0.115298872739E+00
  0.115298872751E+00
  0.115298872812E+00
  0.115298872810E+00
  0.115298872582E+00
  0.115298872633E+00
  0.115298872819E+00
  0.115298873054E+00
  0.115298873527E+00
  0.115298872166E+00
  0.115298872368E+00
  0.115298872384E+00
  0.115298872294E+00
  0.115298872259E+00
  0.115298871958E+00
  0.115298872010E+00
  0.115298872414E+00
  0.115298872411E+00
  0.115298872605E+00
  0.115298872593E+00
  0.115298872482E+00
  0.115298872467E+00
  0.115298872326E+00
  0.115298872320E+00
  0.115298872504E+00
  0.115298872479E+00
  0.115298872213E+00
  0.115298872295E+00
  0.115298872867E+00
  0.115298872770E+00
  0.115298871981E+00
  0.115298872100E+00
  0.115298872624E+00
  0.115298872600E+00
  0.115298872414E+00
  0.115298872416E+00
  0.115298872464E+00
  0.115298872431E+00
  0.115298872420E+00
  0.115298872440E+00
  0.115298872587E+00
  0.115298872529E+00
  0.115298871900E+00
  0.115298871977E+00
  0.115298872384E+00
  0.115298872413E+00
  0.115298872756E+00
  0.115298872716E+00
  0.115298872683E+00
  0.115298872668E+00
  0.115298872788E+00
  0.115298872758E+00
  0.115298872501E+00
  0.115298872533E+00
  0.115298872684E+00
  0.115298872678E+00
  0.115298872593E+00
  0.115298872913E+00
  0.115298873249E+00
  0.115298872861E+00
  0.115298871729E+00
  0.115298871814E+00
  0.115298872177E+00
  0.115298872121E+00
  0.115298872044E+00
  0.115298872001E+00
  0.115298871543E+00
  0.115298871566E+00
  0.115298871275E+00
  0.115298871279E+00
  0.115298871176E+00
  0.115298871164E+00
  0.115298871337E+00
  0.115298871414E+00
  0.115298872345E+00
  0.115298872304E+00
  0.115298871925E+00
  0.115298871926E+00
  0.115298871548E+00
  0.115298871604E+00
  0.115298872239E+00
  0.115298872136E+00
  0.115298871152E+00
  0.115298871216E+00
  0.115298871338E+00
  0.115298871317E+00
  0.115298871342E+00
  0.115298871320E+00
  0.115298871353E+00
  0.115298871357E+00
  0.115298871231E+00
  0.115298871254E+00
  0.115298871797E+00
  0.115298871719E+00
  0.115298871127E+00
  0.115298871198E+00
  0.115298871054E+00
  0.115298871120E+00
  0.115298871632E+00
  0.115298871638E+00
  0.115298871875E+00
  0.115298871859E+00
  0.115298871833E+00
  0.115298871799E+00
  0.115298871531E+00
  0.115298871574E+00
  0.115298871823E+00
  0.115298872091E+00
  0.115298871731E+00
  0.115298872542E+00
  0.115298875260E+00
  0.115298875085E+00
  0.115298873602E+00
  0.115298873649E+00
  0.115298874340E+00
  0.115298874387E+00
  0.115298875467E+00
  0.115298875441E+00
  0.115298875467E+00
  0.115298875429E+00
  0.115298875326E+00
  0.115298875393E+00
  0.115298876384E+00
  0.115298876267E+00
  0.115298873919E+00
  0.115298874098E+00
  0.115298875383E+00
  0.115298875226E+00
  0.115298873951E+00
  0.115298873961E+00
  0.115298873920E+00
  0.115298874003E+00
  0.115298875269E+00
  0.115298875268E+00
  0.115298875758E+00
  0.115298875649E+00
  0.115298874537E+00
  0.115298874611E+00
  0.115298875647E+00
  0.115298875543E+00
  0.115298874311E+00
  0.115298874410E+00
  0.115298875402E+00
  0.115298875360E+00
  0.115298875099E+00
  0.115298875145E+00
  0.115298875594E+00
  0.115298875554E+00
  0.115298874575E+00
  0.115298874683E+00
  0.115298875186E+00
  0.115298875109E+00
  0.115298874147E+00
  0.115298874188E+00
  0.115298875050E+00
  0.115298875080E+00
  0.115298875270E+00
  0.115298875701E+00
  0.115298877187E+00
  0.115298873714E+00
  0.115298871286E+00
  0.115298871432E+00
  0.115298872388E+00
  0.115298872359E+00
  0.115298873123E+00
  0.115298872979E+00
  0.115298869687E+00
  0.115298869908E+00
  0.115298871855E+00
  0.115298871820E+00
  0.115298871830E+00
  0.115298871756E+00
  0.115298870044E+00
  0.115298870182E+00
  0.115298872334E+00
  0.115298872169E+00
  0.115298870467E+00
  0.115298870535E+00
  0.115298871928E+00
  0.115298871849E+00
  0.115298872201E+00
  0.115298872272E+00
  0.115298872164E+00
  0.115298872166E+00
  0.115298870708E+00
  0.115298870846E+00
  0.115298873487E+00
  0.115298873319E+00
  0.115298871487E+00
  0.115298871634E+00
  0.115298873674E+00
  0.115298873466E+00
  0.115298870918E+00
  0.115298870985E+00
  0.115298871223E+00
  0.115298871230E+00
  0.115298871026E+00
  0.115298871125E+00
  0.115298872381E+00
  0.115298872268E+00
  0.115298870539E+00
  0.115298870676E+00
  0.115298872860E+00
  0.115298872687E+00
  0.115298871042E+00
  0.115298871150E+00
  0.115298871151E+00
  0.115298871656E+00
  0.115298872396E+00
  0.115298872461E+00
  0.115298870731E+00
  0.115298870797E+00
  0.115298872402E+00
  0.115298872341E+00
  0.115298870761E+00
  0.115298870872E+00
  0.115298873807E+00
  0.115298873608E+00
  0.115298871087E+00
  0.115298871221E+00
  0.115298871504E+00
  0.115298871557E+00
  0.115298873451E+00
  0.115298873216E+00
  0.115298869583E+00
  0.115298869710E+00
  0.115298871598E+00
  0.115298871559E+00
  0.115298871932E+00
  0.115298871940E+00
  0.115298871640E+00
  0.115298871639E+00
  0.115298870155E+00
  0.115298870278E+00
  0.115298872215E+00
  0.115298872120E+00
  0.115298870306E+00
  0.115298870257E+00
  0.115298868986E+00
  0.115298868999E+00
  0.115298869095E+00
  0.115298869206E+00
  0.115298871645E+00
  0.115298871549E+00
  0.115298872057E+00
  0.115298872012E+00
  0.115298870955E+00
  0.115298871090E+00
  0.115298871886E+00
  0.115298871876E+00
  0.115298871973E+00
  0.115298871935E+00
  0.115298871309E+00
  0.115298871321E+00
  0.115298871584E+00
  0.115298871606E+00
  0.115298872197E+00
  0.115298872676E+00
  0.115298872287E+00
  0.115298872165E+00
  0.115298875771E+00
  0.115298875684E+00
  0.115298875034E+00
  0.115298875018E+00
  0.115298873968E+00
  0.115298873941E+00
  0.115298873390E+00
  0.115298873482E+00
  0.115298875120E+00
  0.115298875026E+00
  0.115298874005E+00
  0.115298873991E+00
  0.115298872539E+00
  0.115298872709E+00
  0.115298877443E+00
  0.115298877133E+00
  0.115298873831E+00
  0.115298873945E+00
  0.115298874404E+00
  0.115298874551E+00
  0.115298876492E+00
  0.115298876334E+00
  0.115298874008E+00
  0.115298873991E+00
  0.115298873298E+00
  0.115298873356E+00
  0.115298873771E+00
  0.115298873757E+00
  0.115298876406E+00
  0.115298876205E+00
  0.115298874022E+00
  0.115298874194E+00
  0.115298875125E+00
  0.115298875125E+00
  0.115298873991E+00
  0.115298874015E+00
  0.115298874617E+00
  0.115298874571E+00
  0.115298872691E+00
  0.115298872793E+00
  0.115298873800E+00
  0.115298873678E+00
  0.115298872137E+00
  0.115298872287E+00
  0.115298875327E+00
  0.115298875174E+00
  0.115298871913E+00
  0.115298872916E+00
  0.115298881152E+00
  0.115298871901E+00
  0.115298869753E+00
  0.115298869861E+00
  0.115298869552E+00
  0.115298869651E+00
  0.115298872544E+00
  0.115298872351E+00
  0.115298870363E+00
  0.115298870389E+00
  0.115298869761E+00
  0.115298869913E+00
  0.115298872761E+00
  0.115298872616E+00
  0.115298871268E+00
  0.115298871307E+00
  0.115298870445E+00
  0.115298870365E+00
  0.115298869447E+00
  0.115298869448E+00
  0.115298870983E+00
  0.115298871009E+00
  0.115298868198E+00
  0.115298868298E+00
  0.115298871027E+00
  0.115298870963E+00
  0.115298872664E+00
  0.115298872562E+00
  0.115298870291E+00
  0.115298870257E+00
  0.115298869428E+00
  0.115298869571E+00
  0.115298873138E+00
  0.115298873001E+00
  0.115298869567E+00
  0.115298869695E+00
  0.115298871078E+00
  0.115298871018E+00
  0.115298870695E+00
  0.115298870704E+00
  0.115298871072E+00
  0.115298870958E+00
  0.115298868960E+00
  0.115298869049E+00
  0.115298871933E+00
  0.115298871967E+00
  0.115298871498E+00
  0.115298871534E+00
  0.115298871717E+00
  0.115298872296E+00
  0.115298867900E+00
  0.115298872552E+00
  0.115298871157E+00
  0.115298871126E+00
  0.115298870580E+00
  0.115298870748E+00
  0.115298872547E+00
  0.115298872609E+00
  0.115298874770E+00
  0.115298874562E+00
  0.115298871843E+00
  0.115298871885E+00
  0.115298870264E+00
  0.115298870363E+00
  0.115298872342E+00
  0.115298872117E+00
  0.115298868058E+00
  0.115298868062E+00
  0.115298870776E+00
  0.115298870737E+00
  0.115298870910E+00
  0.115298871054E+00
  0.115298871848E+00
  0.115298871930E+00
  0.115298874662E+00
  0.115298874490E+00
  0.115298869232E+00
  0.115298869455E+00
  0.115298874378E+00
  0.115298874244E+00
  0.115298874633E+00
  0.115298874476E+00
  0.115298869101E+00
  0.115298869157E+00
  0.115298869266E+00
  0.115298869275E+00
  0.115298870563E+00
  0.115298870668E+00
  0.115298872607E+00
  0.115298872555E+00
  0.115298871617E+00
  0.115298871665E+00
  0.115298874660E+00
  0.115298874554E+00
  0.115298872686E+00
  0.115298872734E+00
  0.115298869833E+00
  0.115298869821E+00
  0.115298869343E+00
  0.115298870183E+00
  0.115298875442E+00
  0.115298875081E+00
  0.115298879389E+00
  0.115298879186E+00
  0.115298876755E+00
  0.115298876892E+00
  0.115298876780E+00
  0.115298876889E+00
  0.115298876001E+00
  0.115298875898E+00
  0.115298875949E+00
  0.115298875781E+00
  0.115298873929E+00
  0.115298874031E+00
  0.115298875868E+00
  0.115298875924E+00
  0.115298880203E+00
  0.115298879936E+00
  0.115298878149E+00
  0.115298878438E+00
  0.115298882993E+00
  0.115298883011E+00
  0.115298879916E+00
  0.115298879838E+00
  0.115298875290E+00
  0.115298875429E+00
  0.115298879561E+00
  0.115298879281E+00
  0.115298873495E+00
  0.115298873771E+00
  0.115298877828E+00
  0.115298877778E+00
  0.115298879800E+00
  0.115298879707E+00
  0.115298882154E+00
  0.115298882049E+00
  0.115298879310E+00
  0.115298879603E+00
  0.115298882516E+00
  0.115298882538E+00
  0.115298882128E+00
  0.115298882006E+00
  0.115298879116E+00
  0.115298879301E+00
  0.115298882694E+00
  0.115298882606E+00
  0.115298881534E+00
  0.115298881287E+00
  0.115298879069E+00
  0.115298879647E+00
  0.115298874160E+00
  0.115298871739E+00
  0.115298871380E+00
  0.115298871225E+00
  0.115298867728E+00
  0.115298867523E+00
  0.115298861622E+00
  0.115298861919E+00
  0.115298866735E+00
  0.115298866672E+00
  0.115298868618E+00
  0.115298868463E+00
  0.115298868736E+00
  0.115298868782E+00
  0.115298869387E+00
  0.115298869449E+00
  0.115298867610E+00
  0.115298867671E+00
  0.115298871215E+00
  0.115298871056E+00
  0.115298861826E+00
  0.115298862267E+00
  0.115298867882E+00
  0.115298867748E+00
  0.115298869689E+00
  0.115298869512E+00
  0.115298866573E+00
  0.115298866698E+00
  0.115298872339E+00
  0.115298872323E+00
  0.115298871304E+00
  0.115298871319E+00
  0.115298868544E+00
  0.115298868475E+00
  0.115298866910E+00
  0.115298866869E+00
  0.115298865812E+00
  0.115298865572E+00
  0.115298855211E+00
  0.115298855619E+00
  0.115298862100E+00
  0.115298862239E+00
  0.115298869221E+00
  0.115298869158E+00
  0.115298866117E+00
  0.115298866375E+00
  0.115298871340E+00
  0.115298870986E+00
  0.115298869454E+00
  0.115298870541E+00
  0.115298885661E+00
  0.115298868682E+00
  0.115298856402E+00
  0.115298856595E+00
  0.115298866399E+00
  0.115298866255E+00
  0.115298871697E+00
  0.115298871792E+00
  0.115298872721E+00
  0.115298872709E+00
  0.115298868875E+00
  0.115298868498E+00
  0.115298860400E+00
  0.115298860627E+00
  0.115298865213E+00
  0.115298865484E+00
  0.115298870491E+00
  0.115298870380E+00
  0.115298867749E+00
  0.115298867619E+00
  0.115298864565E+00
  0.115298864766E+00
  0.115298868248E+00
  0.115298868287E+00
  0.115298866904E+00
  0.115298866832E+00
  0.115298867582E+00
  0.115298867507E+00
  0.115298865246E+00
  0.115298865330E+00
  0.115298861921E+00
  0.115298862041E+00
  0.115298865990E+00
  0.115298865747E+00
  0.115298864027E+00
  0.115298864110E+00
  0.115298869142E+00
  0.115298869117E+00
  0.115298876068E+00
  0.115298875693E+00
  0.115298865740E+00
  0.115298866220E+00
  0.115298868440E+00
  0.115298868335E+00
  0.115298859642E+00
  0.115298859983E+00
  0.115298865492E+00
  0.115298865419E+00
  0.115298867644E+00
  0.115298867879E+00
  0.115298846535E+00
  0.115298875223E+00
  0.115298889003E+00
  0.115298888678E+00
  0.115298886832E+00
  0.115298886920E+00
  0.115298883114E+00
  0.115298883172E+00
  0.115298876265E+00
  0.115298876473E+00
  0.115298881863E+00
  0.115298881298E+00
  0.115298879965E+00
  0.115298880184E+00
  0.115298888660E+00
  0.115298888605E+00
  0.115298874231E+00
  0.115298874296E+00
  0.115298873978E+00
  0.115298874121E+00
  0.115298884881E+00
  0.115298884689E+00
  0.115298876575E+00
  0.115298876888E+00
  0.115298881127E+00
  0.115298880983E+00
  0.115298880378E+00
  0.115298880198E+00
  0.115298876368E+00
  0.115298876629E+00
  0.115298884196E+00
  0.115298883871E+00
  0.115298874610E+00
  0.115298874846E+00
  0.115298884494E+00
  0.115298884202E+00
  0.115298875184E+00
  0.115298875260E+00
  0.115298872806E+00
  0.115298872883E+00
  0.115298878516E+00
  0.115298878572E+00
  0.115298876966E+00
  0.115298876902E+00
  0.115298875740E+00
  0.115298875722E+00
  0.115298874648E+00
  0.115298874798E+00
  0.115298875354E+00
  0.115298876499E+00
  0.115298900489E+00
  0.115298877350E+00
  0.115298867575E+00
  0.115298867814E+00
  0.115298870560E+00
  0.115298870628E+00
  0.115298871952E+00
  0.115298871856E+00
  0.115298871146E+00
  0.115298871203E+00
  0.115298873887E+00
  0.115298873724E+00
  0.115298880426E+00
  0.115298880182E+00
  0.115298867235E+00
  0.115298867756E+00
  0.115298876550E+00
  0.115298876143E+00
  0.115298876875E+00
  0.115298876996E+00
  0.115298876633E+00
  0.115298876722E+00
  0.115298873963E+00
  0.115298873976E+00
  0.115298873304E+00
  0.115298873362E+00
  0.115298875089E+00
  0.115298875111E+00
  0.115298882025E+00
  0.115298881868E+00
  0.115298873022E+00
  0.115298873280E+00
  0.115298883263E+00
  0.115298882711E+00
  0.115298868197E+00
  0.115298868636E+00
  0.115298880963E+00
  0.115298880792E+00
  0.115298882770E+00
  0.115298882626E+00
  0.115298878411E+00
  0.115298878444E+00
  0.115298871696E+00
  0.115298871860E+00
  0.115298880624E+00
  0.115298880340E+00
  0.115298873324E+00
  0.115298873841E+00
  0.115298886351E+00
  0.115298887636E+00
  0.115298891396E+00
  0.115298873062E+00
  0.115298877799E+00
  0.115298877588E+00
  0.115298873142E+00
  0.115298873308E+00
  0.115298873604E+00
  0.115298873114E+00
  0.115298858680E+00
  0.115298859071E+00
  0.115298870863E+00
  0.115298870726E+00
  0.115298868707E+00
  0.115298868702E+00
  0.115298869470E+00
  0.115298869880E+00
  0.115298879996E+00
  0.115298879958E+00
  0.115298882791E+00
  0.115298882639E+00
  0.115298872853E+00
  0.115298873049E+00
  0.115298876940E+00
  0.115298876851E+00
  0.115298876458E+00
  0.115298876940E+00
  0.115298891635E+00
  0.115298891054E+00
  0.115298869301E+00
  0.115298869366E+00
  0.115298869341E+00
  0.115298869191E+00
  0.115298865149E+00
  0.115298865503E+00
  0.115298884761E+00
  0.115298884501E+00
  0.115298876885E+00
  0.115298876861E+00
  0.115298868554E+00
  0.115298868583E+00
  0.115298872199E+00
  0.115298872221E+00
  0.115298876346E+00
  0.115298876308E+00
  0.115298876815E+00
  0.115298876726E+00
  0.115298873852E+00
  0.115298873945E+00
  0.115298867414E+00
  0.115298868573E+00
  0.115298851093E+00
  0.115298854081E+00
  0.115298853906E+00
  0.115298853875E+00
  0.115298855196E+00
  0.115298855438E+00
  0.115298862821E+00
  0.115298862630E+00
  0.115298872778E+00
  0.115298872419E+00
  0.115298861484E+00
  0.115298862077E+00
  0.115298875164E+00
  0.115298874681E+00
  0.115298860105E+00
  0.115298860349E+00
  0.115298853718E+00
  0.115298853934E+00
  0.115298852090E+00
  0.115298852130E+00
  0.115298855840E+00
  0.115298855464E+00
  0.115298845814E+00
  0.115298845470E+00
  0.115298832398E+00
  0.115298832880E+00
  0.115298833291E+00
  0.115298833630E+00
  0.115298850245E+00
  0.115298849809E+00
  0.115298855348E+00
  0.115298855452E+00
  0.115298864352E+00
  0.115298864220E+00
  0.115298851517E+00
  0.115298851840E+00
  0.115298851836E+00
  0.115298851649E+00
  0.115298854017E+00
  0.115298853954E+00
  0.115298859521E+00
  0.115298859667E+00
  0.115298860178E+00
  0.115298860297E+00
  0.115298861415E+00
  0.115298861044E+00
  0.115298850651E+00
  0.115298850823E+00
  0.115298856683E+00
  0.115298858281E+00
  0.115298880564E+00
  0.115298886378E+00
  0.115298896370E+00
  0.115298895861E+00
  0.115298878366E+00
  0.115298878681E+00
  0.115298879997E+00
  0.115298880286E+00
  0.115298890248E+00
  0.115298890252E+00
  0.115298892976E+00
  0.115298892571E+00
  0.115298867169E+00
  0.115298867358E+00
  0.115298878352E+00
  0.115298878093E+00
  0.115298874878E+00
  0.115298874632E+00
  0.115298864530E+00
  0.115298864429E+00
  0.115298861180E+00
  0.115298861325E+00
  0.115298876693E+00
  0.115298876590E+00
  0.115298895731E+00
  0.115298895591E+00
  0.115298886398E+00
  0.115298886886E+00
  0.115298891981E+00
  0.115298891693E+00
  0.115298879562E+00
  0.115298879663E+00
  0.115298873721E+00
  0.115298873668E+00
  0.115298867166E+00
  0.115298867705E+00
  0.115298889138E+00
  0.115298888958E+00
  0.115298889287E+00
  0.115298888954E+00
  0.115298876474E+00
  0.115298876936E+00
  0.115298882744E+00
  0.115298882633E+00
  0.115298873585E+00
  0.115298873929E+00
  0.115298899161E+00
  0.115298898315E+00
  0.115298871586E+00
  0.115298872649E+00
  0.115298846662E+00
  0.115298871841E+00
  0.115298871685E+00
  0.115298871860E+00
  0.115298887976E+00
  0.115298887461E+00
  0.115298873545E+00
  0.115298873876E+00
  0.115298874153E+00
  0.115298873998E+00
  0.115298857283E+00
  0.115298857280E+00
  0.115298870100E+00
  0.115298869795E+00
  0.115298877342E+00
  0.115298877505E+00
  0.115298882402E+00
  0.115298882236E+00
  0.115298888802E+00
  0.115298888331E+00
  0.115298884534E+00
  0.115298884759E+00
  0.115298891292E+00
  0.115298891522E+00