# vtk DataFile Version 3.0
MachLine results file. Generated by MachLine, USU AeroLab (c) 2022.
ASCII
DATASET POLYDATA
POINTS                3061 float
  0.114300523028E+02  0.000000000000E+00  0.000000000000E+00
  0.112395514310E+02  0.166666666667E-01  0.000000000000E+00
  0.112395514310E+02  0.166337788071E-01  0.104650865882E-02
  0.112395514310E+02  0.165352450219E-01  0.208888722607E-02
  0.112395514310E+02  0.163714541788E-01  0.312302190976E-02
  0.112395514310E+02  0.161430526855E-01  0.414483145275E-02
  0.112395514310E+02  0.158509419383E-01  0.515028323958E-02
  0.112395514310E+02  0.154962747648E-01  0.613540921141E-02
  0.112395514310E+02  0.150804508744E-01  0.709632152608E-02
  0.112395514310E+02  0.146051113341E-01  0.802922790170E-02
  0.112395514310E+02  0.140721320917E-01  0.893044658298E-02
  0.112395514310E+02  0.134836165729E-01  0.979642087154E-02
  0.112395514310E+02  0.128418873796E-01  0.106237331625E-01
  0.112395514310E+02  0.121494771237E-01  0.114091184321E-01
  0.112395514310E+02  0.114091184321E-01  0.121494771237E-01
  0.112395514310E+02  0.106237331625E-01  0.128418873796E-01
  0.112395514310E+02  0.979642087154E-02  0.134836165729E-01
  0.112395514310E+02  0.893044658298E-02  0.140721320917E-01
  0.112395514310E+02  0.802922790170E-02  0.146051113341E-01
  0.112395514310E+02  0.709632152608E-02  0.150804508744E-01
  0.112395514310E+02  0.613540921141E-02  0.154962747648E-01
  0.112395514310E+02  0.515028323958E-02  0.158509419383E-01
  0.112395514310E+02  0.414483145275E-02  0.161430526855E-01
  0.112395514310E+02  0.312302190976E-02  0.163714541788E-01
  0.112395514310E+02  0.208888722607E-02  0.165352450219E-01
  0.112395514310E+02  0.104650865882E-02  0.166337788071E-01
  0.112395514310E+02 -0.268020441613E-17  0.166666666667E-01
  0.112395514310E+02 -0.104650865882E-02  0.166337788071E-01
  0.112395514310E+02 -0.208888722607E-02  0.165352450219E-01
  0.112395514310E+02 -0.312302190976E-02  0.163714541788E-01
  0.112395514310E+02 -0.414483145275E-02  0.161430526855E-01
  0.112395514310E+02 -0.515028323958E-02  0.158509419383E-01
  0.112395514310E+02 -0.613540921141E-02  0.154962747648E-01
  0.112395514310E+02 -0.709632152608E-02  0.150804508744E-01
  0.112395514310E+02 -0.802922790170E-02  0.146051113341E-01
  0.112395514310E+02 -0.893044658298E-02  0.140721320917E-01
  0.112395514310E+02 -0.979642087154E-02  0.134836165729E-01
  0.112395514310E+02 -0.106237331625E-01  0.128418873796E-01
  0.112395514310E+02 -0.114091184321E-01  0.121494771237E-01
  0.112395514310E+02 -0.121494771237E-01  0.114091184321E-01
  0.112395514310E+02 -0.128418873796E-01  0.106237331625E-01
  0.112395514310E+02 -0.134836165729E-01  0.979642087154E-02
  0.112395514310E+02 -0.140721320917E-01  0.893044658298E-02
  0.112395514310E+02 -0.146051113341E-01  0.802922790170E-02
  0.112395514310E+02 -0.150804508744E-01  0.709632152608E-02
  0.112395514310E+02 -0.154962747648E-01  0.613540921141E-02
  0.112395514310E+02 -0.158509419383E-01  0.515028323958E-02
  0.112395514310E+02 -0.161430526855E-01  0.414483145275E-02
  0.112395514310E+02 -0.163714541788E-01  0.312302190976E-02
  0.112395514310E+02 -0.165352450219E-01  0.208888722607E-02
  0.112395514310E+02 -0.166337788071E-01  0.104650865882E-02
  0.112395514310E+02 -0.166666666667E-01  0.204107799858E-17
  0.110490505593E+02  0.333333333333E-01  0.000000000000E+00
  0.110490505593E+02  0.332675576143E-01  0.209301731764E-02
  0.110490505593E+02  0.330704900438E-01  0.417777445214E-02
  0.110490505593E+02  0.327429083576E-01  0.624604381952E-02
  0.110490505593E+02  0.322861053710E-01  0.828966290550E-02
  0.110490505593E+02  0.317018838765E-01  0.103005664792E-01
  0.110490505593E+02  0.309925495296E-01  0.122708184228E-01
  0.110490505593E+02  0.301609017489E-01  0.141926430522E-01
  0.110490505593E+02  0.292102226681E-01  0.160584558034E-01
  0.110490505593E+02  0.281442641834E-01  0.178608931660E-01
  0.110490505593E+02  0.269672331458E-01  0.195928417431E-01
  0.110490505593E+02  0.256837747592E-01  0.212474663250E-01
  0.110490505593E+02  0.242989542474E-01  0.228182368643E-01
  0.110490505593E+02  0.228182368643E-01  0.242989542474E-01
  0.110490505593E+02  0.212474663250E-01  0.256837747592E-01
  0.110490505593E+02  0.195928417431E-01  0.269672331458E-01
  0.110490505593E+02  0.178608931660E-01  0.281442641834E-01
  0.110490505593E+02  0.160584558034E-01  0.292102226681E-01
  0.110490505593E+02  0.141926430522E-01  0.301609017489E-01
  0.110490505593E+02  0.122708184228E-01  0.309925495296E-01
  0.110490505593E+02  0.103005664792E-01  0.317018838765E-01
  0.110490505593E+02  0.828966290550E-02  0.322861053710E-01
  0.110490505593E+02  0.624604381952E-02  0.327429083576E-01
  0.110490505593E+02  0.417777445214E-02  0.330704900438E-01
  0.110490505593E+02  0.209301731764E-02  0.332675576143E-01
  0.110490505593E+02 -0.536040883226E-17  0.333333333333E-01
  0.110490505593E+02 -0.209301731764E-02  0.332675576143E-01
  0.110490505593E+02 -0.417777445214E-02  0.330704900438E-01
  0.110490505593E+02 -0.624604381952E-02  0.327429083576E-01
  0.110490505593E+02 -0.828966290550E-02  0.322861053710E-01
  0.110490505593E+02 -0.103005664792E-01  0.317018838765E-01
  0.110490505593E+02 -0.122708184228E-01  0.309925495296E-01
  0.110490505593E+02 -0.141926430522E-01  0.301609017489E-01
  0.110490505593E+02 -0.160584558034E-01  0.292102226681E-01
  0.110490505593E+02 -0.178608931660E-01  0.281442641834E-01
  0.110490505593E+02 -0.195928417431E-01  0.269672331458E-01
  0.110490505593E+02 -0.212474663250E-01  0.256837747592E-01
  0.110490505593E+02 -0.228182368643E-01  0.242989542474E-01
  0.110490505593E+02 -0.242989542474E-01  0.228182368643E-01
  0.110490505593E+02 -0.256837747592E-01  0.212474663250E-01
  0.110490505593E+02 -0.269672331458E-01  0.195928417431E-01
  0.110490505593E+02 -0.281442641834E-01  0.178608931660E-01
  0.110490505593E+02 -0.292102226681E-01  0.160584558034E-01
  0.110490505593E+02 -0.301609017489E-01  0.141926430522E-01
  0.110490505593E+02 -0.309925495296E-01  0.122708184228E-01
  0.110490505593E+02 -0.317018838765E-01  0.103005664792E-01
  0.110490505593E+02 -0.322861053710E-01  0.828966290550E-02
  0.110490505593E+02 -0.327429083576E-01  0.624604381952E-02
  0.110490505593E+02 -0.330704900438E-01  0.417777445214E-02
  0.110490505593E+02 -0.332675576143E-01  0.209301731764E-02
  0.110490505593E+02 -0.333333333333E-01  0.408215599716E-17
  0.108585496876E+02  0.500000000000E-01  0.000000000000E+00
  0.108585496876E+02  0.499013364214E-01  0.313952597647E-02
  0.108585496876E+02  0.496057350657E-01  0.626666167822E-02
  0.108585496876E+02  0.491143625364E-01  0.936906572929E-02
  0.108585496876E+02  0.484291580564E-01  0.124344943582E-01
  0.108585496876E+02  0.475528258148E-01  0.154508497187E-01
  0.108585496876E+02  0.464888242944E-01  0.184062276342E-01
  0.108585496876E+02  0.452413526233E-01  0.212889645783E-01
  0.108585496876E+02  0.438153340022E-01  0.240876837051E-01
  0.108585496876E+02  0.422163962751E-01  0.267913397489E-01
  0.108585496876E+02  0.404508497187E-01  0.293892626146E-01
  0.108585496876E+02  0.385256621388E-01  0.318711994874E-01
  0.108585496876E+02  0.364484313711E-01  0.342273552964E-01
  0.108585496876E+02  0.342273552964E-01  0.364484313711E-01
  0.108585496876E+02  0.318711994874E-01  0.385256621388E-01
  0.108585496876E+02  0.293892626146E-01  0.404508497187E-01
  0.108585496876E+02  0.267913397489E-01  0.422163962751E-01
  0.108585496876E+02  0.240876837051E-01  0.438153340022E-01
  0.108585496876E+02  0.212889645783E-01  0.452413526233E-01
  0.108585496876E+02  0.184062276342E-01  0.464888242944E-01
  0.108585496876E+02  0.154508497187E-01  0.475528258148E-01
  0.108585496876E+02  0.124344943582E-01  0.484291580564E-01
  0.108585496876E+02  0.936906572929E-02  0.491143625364E-01
  0.108585496876E+02  0.626666167822E-02  0.496057350657E-01
  0.108585496876E+02  0.313952597647E-02  0.499013364214E-01
  0.108585496876E+02 -0.804061324838E-17  0.500000000000E-01
  0.108585496876E+02 -0.313952597647E-02  0.499013364214E-01
  0.108585496876E+02 -0.626666167822E-02  0.496057350657E-01
  0.108585496876E+02 -0.936906572929E-02  0.491143625364E-01
  0.108585496876E+02 -0.124344943582E-01  0.484291580564E-01
  0.108585496876E+02 -0.154508497187E-01  0.475528258148E-01
  0.108585496876E+02 -0.184062276342E-01  0.464888242944E-01
  0.108585496876E+02 -0.212889645783E-01  0.452413526233E-01
  0.108585496876E+02 -0.240876837051E-01  0.438153340022E-01
  0.108585496876E+02 -0.267913397489E-01  0.422163962751E-01
  0.108585496876E+02 -0.293892626146E-01  0.404508497187E-01
  0.108585496876E+02 -0.318711994874E-01  0.385256621388E-01
  0.108585496876E+02 -0.342273552964E-01  0.364484313711E-01
  0.108585496876E+02 -0.364484313711E-01  0.342273552964E-01
  0.108585496876E+02 -0.385256621388E-01  0.318711994874E-01
  0.108585496876E+02 -0.404508497187E-01  0.293892626146E-01
  0.108585496876E+02 -0.422163962751E-01  0.267913397489E-01
  0.108585496876E+02 -0.438153340022E-01  0.240876837051E-01
  0.108585496876E+02 -0.452413526233E-01  0.212889645783E-01
  0.108585496876E+02 -0.464888242944E-01  0.184062276342E-01
  0.108585496876E+02 -0.475528258148E-01  0.154508497187E-01
  0.108585496876E+02 -0.484291580564E-01  0.124344943582E-01
  0.108585496876E+02 -0.491143625364E-01  0.936906572929E-02
  0.108585496876E+02 -0.496057350657E-01  0.626666167822E-02
  0.108585496876E+02 -0.499013364214E-01  0.313952597647E-02
  0.108585496876E+02 -0.500000000000E-01  0.612323399574E-17
  0.106680488159E+02  0.666666666667E-01  0.000000000000E+00
  0.106680488159E+02  0.665351152286E-01  0.418603463529E-02
  0.106680488159E+02  0.661409800876E-01  0.835554890429E-02
  0.106680488159E+02  0.654858167152E-01  0.124920876390E-01
  0.106680488159E+02  0.645722107419E-01  0.165793258110E-01
  0.106680488159E+02  0.634037677530E-01  0.206011329583E-01
  0.106680488159E+02  0.619850990592E-01  0.245416368456E-01
[...]
CELL_DATA                5950
SCALARS C_p_ise float 1
LOOKUP_TABLE default
  0.416801444515E-01
  0.416801444355E-01
  0.416801444344E-01
  0.416801444354E-01
  0.416801444382E-01
  0.416801444376E-01
  0.416801444366E-01
  0.416801444372E-01
  0.416801444391E-01
  0.416801444391E-01
  0.416801444369E-01
  0.416801444402E-01
  0.416801444443E-01
  0.416801444440E-01
  0.416801444387E-01
  0.416801444367E-01
  0.416801444373E-01
  0.416801444386E-01
  0.416801444402E-01
  0.416801444378E-01
  0.416801444366E-01
  0.416801444365E-01
  0.416801444356E-01
  0.416801444344E-01
  0.416801444348E-01
  0.416801444351E-01
  0.416801444353E-01
  0.416801444344E-01
  0.416801444351E-01
  0.416801444372E-01
  0.416801444386E-01
  0.416801444385E-01
  0.416801444371E-01
  0.416801444390E-01
  0.416801444391E-01
  0.416801444369E-01
  0.416801444402E-01
  0.416801444443E-01
  0.416801444440E-01
  0.416801444387E-01
  0.416801444367E-01
  0.416801444373E-01
  0.416801444387E-01
  0.416801444403E-01
  0.416801444396E-01
  0.416801444384E-01
  0.416801444365E-01
  0.416801444353E-01
  0.416801444341E-01
  0.416801444313E-01
  0.416801442947E-01
  0.416801443375E-01
  0.416801443227E-01
  0.416801443262E-01
  0.416801443238E-01
  0.416801443198E-01
  0.416801443194E-01
  0.416801443152E-01
  0.416801443177E-01
  0.416801443168E-01
  0.416801443184E-01
  0.416801443247E-01
  0.416801443197E-01
  0.416801443077E-01
  0.416801443119E-01
  0.416801443230E-01
  0.416801443178E-01
  0.416801442968E-01
  0.416801443049E-01
  0.416801443291E-01
  0.416801443239E-01
  0.416801443148E-01
  0.416801443170E-01
  0.416801443136E-01
  0.416801443152E-01
  0.416801443078E-01
  0.416801443100E-01
  0.416801443177E-01
  0.416801443152E-01
  0.416801443235E-01
  0.416801443205E-01
  0.416801443174E-01
  0.416801443192E-01
  0.416801443228E-01
  0.416801443202E-01
  0.416801443089E-01
  0.416801443148E-01
  0.416801443273E-01
  0.416801443221E-01
  0.416801443141E-01
  0.416801443137E-01
  0.416801443164E-01
  0.416801443184E-01
  0.416801443244E-01
  0.416801443243E-01
  0.416801443268E-01
  0.416801443259E-01
  0.416801443268E-01
  0.416801443254E-01
  0.416801443198E-01
  0.416801443198E-01
  0.416801443190E-01
  0.416801443207E-01
  0.416801443255E-01
  0.416801443236E-01
  0.416801443205E-01
  0.416801443198E-01
  0.416801443154E-01
  0.416801443180E-01
  0.416801443196E-01
  0.416801443203E-01
  0.416801443182E-01
  0.416801443170E-01
  0.416801443136E-01
  0.416801443150E-01
  0.416801443233E-01
  0.416801443180E-01
  0.416801442965E-01
  0.416801443036E-01
  0.416801443242E-01
  0.416801443202E-01
  0.416801443148E-01
  0.416801443170E-01
  0.416801443136E-01
  0.416801443152E-01
  0.416801443078E-01
  0.416801443101E-01
  0.416801443178E-01
  0.416801443153E-01
  0.416801443234E-01
  0.416801443204E-01
  0.416801443177E-01
  0.416801443194E-01
  0.416801443226E-01
  0.416801443202E-01
  0.416801443088E-01
  0.416801443146E-01
  0.416801443274E-01
  0.416801443229E-01
  0.416801443117E-01
  0.416801443124E-01
  0.416801443179E-01
  0.416801443182E-01
  0.416801443251E-01
  0.416801443248E-01
  0.416801443274E-01
  0.416801443280E-01
  0.416801443335E-01
  0.416801443618E-01
  0.416801444555E-01
  0.416801443789E-01
  0.416801443773E-01
  0.416801443791E-01
  0.416801443908E-01
  0.416801443900E-01
  0.416801443922E-01
  0.416801443898E-01
  0.416801443868E-01
  0.416801443891E-01
  0.416801443951E-01
  0.416801443910E-01
  0.416801443644E-01
  0.416801443692E-01
  0.416801444077E-01
  0.416801444050E-01
  0.416801443903E-01
  0.416801443949E-01
  0.416801444248E-01
  0.416801444158E-01
  0.416801443652E-01
  0.416801443722E-01
  0.416801443934E-01
  0.416801443913E-01
  0.416801443850E-01
  0.416801443866E-01
  0.416801443920E-01
  0.416801443882E-01
  0.416801443701E-01
  0.416801443760E-01
  0.416801444053E-01
  0.416801444024E-01
  0.416801443894E-01
  0.416801443911E-01
  0.416801443956E-01
  0.416801443923E-01
  0.416801443825E-01
  0.416801443814E-01
  0.416801443657E-01
  0.416801443710E-01
  0.416801444026E-01
  0.416801443986E-01
  0.416801443935E-01
  0.416801443945E-01
  0.416801443853E-01
  0.416801443885E-01
  0.416801443952E-01
  0.416801443930E-01
  0.416801443824E-01
  0.416801443827E-01
  0.416801443897E-01
  0.416801443890E-01
  0.416801443942E-01
  0.416801443948E-01
  0.416801443906E-01
  0.416801443906E-01
  0.416801443922E-01
  0.416801443899E-01
  0.416801443870E-01
  0.416801443893E-01
  0.416801443955E-01
  0.416801443913E-01
  0.416801443642E-01
  0.416801443691E-01
  0.416801444033E-01
  0.416801444015E-01
  0.416801443916E-01
  0.416801443952E-01
  0.416801444254E-01
  0.416801444163E-01
  0.416801443714E-01
  0.416801443773E-01
  0.416801443924E-01
  0.416801443898E-01
  0.416801443753E-01
  0.416801443786E-01
  0.416801443924E-01
  0.416801443886E-01
  0.416801443704E-01
  0.416801443763E-01
  0.416801444057E-01
  0.416801444028E-01
  0.416801443897E-01
  0.416801443913E-01
  0.416801443953E-01
  0.416801443921E-01
  0.416801443826E-01
  0.416801443815E-01
  0.416801443659E-01
  0.416801443713E-01
  0.416801443991E-01
  0.416801443959E-01
  0.416801443950E-01
  0.416801443951E-01
  0.416801443849E-01
  0.416801443884E-01
  0.416801443955E-01
  0.416801443927E-01
  0.416801443713E-01
  0.416801444212E-01
  0.416801445194E-01
  0.416801443315E-01
  0.416801443317E-01
  0.416801443311E-01
  0.416801443164E-01
  0.416801443212E-01
  0.416801443436E-01
  0.416801443440E-01
  0.416801443597E-01
  0.416801443597E-01
  0.416801443478E-01
  0.416801443459E-01
  0.416801443530E-01
  0.416801443491E-01
  0.416801443254E-01
  0.416801443276E-01
  0.416801443074E-01
  0.416801443085E-01
  0.416801443056E-01
  0.416801443100E-01
  0.416801443623E-01
  0.416801443610E-01
  0.416801443737E-01
  0.416801443720E-01
  0.416801443448E-01
  0.416801443517E-01
  0.416801443972E-01
  0.416801443902E-01
  0.416801443599E-01
  0.416801443574E-01
  0.416801443243E-01
  0.416801443251E-01
  0.416801443097E-01
  0.416801443141E-01
  0.416801443512E-01
  0.416801443502E-01
  0.416801443606E-01
  0.416801443520E-01
  0.416801443136E-01
  0.416801443174E-01
  0.416801443289E-01
  0.416801443365E-01
  0.416801443731E-01
  0.416801443660E-01
  0.416801443168E-01
  0.416801443144E-01
  0.416801442877E-01
  0.416801442936E-01
  0.416801443405E-01
  0.416801443393E-01
  0.416801443436E-01
  0.416801443395E-01
  0.416801443066E-01
  0.416801443053E-01
  0.416801442846E-01
  0.416801442911E-01
  0.416801443425E-01
  0.416801443429E-01
  0.416801443591E-01
  0.416801443593E-01
  0.416801443484E-01
  0.416801443466E-01
  0.416801443544E-01
  0.416801443506E-01
  0.416801443282E-01
  0.416801443300E-01
  0.416801443072E-01
  0.416801443084E-01
  0.416801443061E-01
  0.416801443105E-01
  0.416801443628E-01
  0.416801443598E-01
  0.416801443607E-01
  0.416801443623E-01
  0.416801443701E-01
  0.416801443737E-01
  0.416801443961E-01
  0.416801443907E-01
  0.416801443604E-01
  0.416801443578E-01
  0.416801443241E-01
  0.416801443249E-01
  0.416801443098E-01
  0.416801443142E-01
  0.416801443522E-01
  0.416801443513E-01
  0.416801443615E-01
  0.416801443530E-01
  0.416801443143E-01
  0.416801443181E-01
  0.416801443291E-01
  0.416801443367E-01
  0.416801443736E-01
  0.416801443665E-01
  0.416801443174E-01
  0.416801443150E-01
  0.416801442884E-01
  0.416801442928E-01
  0.416801443332E-01
  0.416801443921E-01
  0.416801444856E-01
  0.416801441118E-01
  0.416801441602E-01
  0.416801441584E-01
  0.416801441479E-01
  0.416801441425E-01
  0.416801440693E-01
  0.416801440748E-01
  0.416801440927E-01
  0.416801440937E-01
  0.416801440827E-01
  0.416801440843E-01
  0.416801441307E-01
  0.416801441236E-01
  0.416801440856E-01
  0.416801440891E-01
  0.416801441318E-01
  0.416801441301E-01
  0.416801441304E-01
  0.416801441305E-01
  0.416801440947E-01
  0.416801441034E-01
  0.416801441255E-01
  0.416801441180E-01
  0.416801440502E-01
  0.416801440487E-01
  0.416801440089E-01
  0.416801440181E-01
  0.416801441053E-01
  0.416801441032E-01
  0.416801441451E-01
  0.416801441449E-01
  0.416801441787E-01
  0.416801441727E-01
  0.416801440992E-01
  0.416801440992E-01
  0.416801440596E-01
  0.416801440599E-01
  0.416801441256E-01
  0.416801441250E-01
  0.416801441348E-01
  0.416801441349E-01
  0.416801440530E-01
  0.416801440653E-01
  0.416801441927E-01
  0.416801441815E-01
  0.416801441653E-01
  0.416801441526E-01
  0.416801440206E-01
  0.416801440344E-01
  0.416801441087E-01
  0.416801441103E-01
  0.416801441552E-01
  0.416801441528E-01
  0.416801441850E-01
  0.416801441763E-01
  0.416801440665E-01
  0.416801440765E-01
  0.416801440976E-01
  0.416801440983E-01
  0.416801440819E-01
  0.416801440837E-01
  0.416801441307E-01
  0.416801441236E-01
  0.416801440826E-01
  0.416801440864E-01
  0.416801441332E-01
  0.416801441311E-01
  0.416801441300E-01
  0.416801441302E-01
  0.416801440950E-01
  0.416801441070E-01
  0.416801441747E-01
  0.416801441622E-01
  0.416801440341E-01
  0.416801440360E-01
  0.416801440112E-01
  0.416801440187E-01
  0.416801441063E-01
  0.416801441028E-01
  0.416801441334E-01
  0.416801441312E-01
  0.416801441468E-01
  0.416801441441E-01
  0.416801440999E-01
  0.416801441000E-01
  0.416801440601E-01
  0.416801440605E-01
  0.416801441274E-01
  0.416801441267E-01
  0.416801441359E-01
  0.416801441360E-01
  0.416801440547E-01
  0.416801440670E-01
  0.416801441937E-01
  0.416801441825E-01
  0.416801441665E-01
  0.416801441550E-01
  0.416801440464E-01
  0.416801441373E-01
  0.416801443731E-01
  0.416801445967E-01
  0.416801445123E-01
  0.416801445161E-01
  0.416801445185E-01
  0.416801445302E-01
  0.416801447314E-01
  0.416801447263E-01
  0.416801446995E-01
  0.416801446978E-01
  0.416801446453E-01
  0.416801446387E-01
  0.416801445620E-01
  0.416801445695E-01
  0.416801446741E-01
  0.416801446646E-01
  0.416801445688E-01
  0.416801445784E-01
  0.416801446503E-01
  0.416801446468E-01
  0.416801446076E-01
  0.416801446056E-01
  0.416801445319E-01
  0.416801445454E-01
  0.416801447494E-01
  0.416801447422E-01
  0.416801447612E-01
  0.416801447539E-01
  0.416801446221E-01
  0.416801446215E-01
  0.416801445321E-01
  0.416801445435E-01
  0.416801446198E-01
  0.416801446188E-01
  0.416801446317E-01
  0.416801446235E-01
  0.416801446233E-01
  0.416801446165E-01
  0.416801445875E-01
  0.416801445913E-01
  0.416801445584E-01
  0.416801445698E-01
  0.416801446823E-01
  0.416801446691E-01
  0.416801444874E-01
  0.416801444999E-01
  0.416801446048E-01
  0.416801446005E-01
  0.416801447124E-01
  0.416801447046E-01
  0.416801446279E-01
  0.416801446222E-01
  0.416801444517E-01
  0.416801444594E-01
  0.416801445166E-01
  0.416801445267E-01
  0.416801446940E-01
  0.416801446922E-01
  0.416801446956E-01
  0.416801446943E-01
  0.416801446468E-01
  0.416801446397E-01
  0.416801445612E-01
  0.416801445689E-01
  0.416801446752E-01
  0.416801446656E-01
  0.416801445687E-01
  0.416801445784E-01
  0.416801446516E-01
  0.416801446481E-01
  0.416801446087E-01
  0.416801446067E-01
  0.416801444957E-01
  0.416801445127E-01
  0.416801447543E-01
  0.416801447437E-01
  0.416801447624E-01
  0.416801447551E-01
  0.416801446224E-01
  0.416801446218E-01
  0.416801445465E-01
  0.416801445567E-01
  0.416801446557E-01
  0.416801446531E-01
  0.416801446350E-01
  0.416801446296E-01
  0.416801446236E-01
  0.416801446169E-01
  0.416801445877E-01
  0.416801445916E-01
  0.416801445599E-01
  0.416801445711E-01
  0.416801446820E-01
  0.416801446688E-01
  0.416801444886E-01
  0.416801445010E-01
  0.416801446059E-01
  0.416801446024E-01
  0.416801447099E-01
  0.416801447918E-01
  0.416801448262E-01
  0.416801439038E-01
  0.416801438585E-01
  0.416801438534E-01
  0.416801438373E-01
  0.416801438362E-01
  0.416801436675E-01
  0.416801436855E-01
  0.416801437476E-01
  0.416801437511E-01
  0.416801438502E-01
  0.416801438504E-01
  0.416801440016E-01
  0.416801439904E-01
  0.416801438386E-01
  0.416801438454E-01
  0.416801439335E-01
  0.416801439245E-01
  0.416801437949E-01
  0.416801437972E-01
  0.416801437877E-01
  0.416801437853E-01
  0.416801438264E-01
  0.416801438209E-01
  0.416801436610E-01
  0.416801436726E-01
  0.416801436767E-01
  0.416801436825E-01
  0.416801438308E-01
  0.416801438174E-01
  0.416801438069E-01
  0.416801438122E-01
  0.416801438387E-01
  0.416801438378E-01
  0.416801437487E-01
  0.416801437464E-01
  0.416801438085E-01
  0.416801437975E-01
  0.416801437429E-01
  0.416801437420E-01
  0.416801437163E-01
  0.416801437205E-01
  0.416801436659E-01
  0.416801436772E-01
  0.416801438629E-01
  0.416801438592E-01
  0.416801438630E-01
  0.416801438596E-01
  0.416801437468E-01
  0.416801437519E-01
  0.416801437880E-01
  0.416801437815E-01
  0.416801438618E-01
  0.416801438530E-01
  0.416801438391E-01
  0.416801438445E-01
  0.416801437152E-01
  0.416801437301E-01
  0.416801437511E-01
  0.416801437545E-01
  0.416801438115E-01
  0.416801438217E-01
  0.416801441033E-01
  0.416801440855E-01
  0.416801438461E-01
  0.416801438529E-01
  0.416801439407E-01
  0.416801439315E-01
  0.416801438000E-01
  0.416801438025E-01
  0.416801437939E-01
  0.416801437914E-01
  0.416801438310E-01
  0.416801438257E-01
  0.416801436668E-01
  0.416801436765E-01
  0.416801436547E-01
  0.416801436625E-01
  0.416801438364E-01
  0.416801438229E-01
  0.416801438113E-01
  0.416801438166E-01
  0.416801438424E-01
  0.416801438415E-01
  0.416801437456E-01
  0.416801437405E-01
  0.416801437661E-01
  0.416801437579E-01
  0.416801437449E-01
  0.416801437441E-01
  0.416801437184E-01
  0.416801437226E-01
  0.416801436687E-01
  0.416801436799E-01
  0.416801438650E-01
  0.416801438612E-01
  0.416801438638E-01
  0.416801438611E-01
  0.416801437476E-01
  0.416801438456E-01
  0.416801439277E-01
  0.416801448695E-01
  0.416801451227E-01
  0.416801451282E-01
  0.416801453392E-01
  0.416801453344E-01
  0.416801452973E-01
  0.416801452866E-01
  0.416801450493E-01
  0.416801450496E-01
  0.416801449310E-01
  0.416801449438E-01
  0.416801450168E-01
  0.416801450305E-01
  0.416801452287E-01
  0.416801452251E-01
  0.416801452429E-01
  0.416801452250E-01
  0.416801449913E-01
  0.416801449801E-01
  0.416801449278E-01
  0.416801449421E-01
  0.416801452033E-01
  0.416801452029E-01
  0.416801452326E-01
  0.416801452262E-01
  0.416801451396E-01
  0.416801451426E-01
  0.416801450960E-01
  0.416801451004E-01
  0.416801451965E-01
  0.416801451936E-01
  0.416801450817E-01
  0.416801450811E-01
  0.416801450567E-01
  0.416801450567E-01
  0.416801451919E-01
  0.416801451899E-01
  0.416801452540E-01
  0.416801452508E-01
  0.416801452802E-01
  0.416801452915E-01
  0.416801454290E-01
  0.416801454160E-01
  0.416801451140E-01
  0.416801451250E-01
  0.416801451320E-01
  0.416801451342E-01
  0.416801452146E-01
  0.416801452024E-01
  0.416801450733E-01
  0.416801450709E-01
  0.416801450918E-01
  0.416801451032E-01
  0.416801453127E-01
  0.416801453148E-01
  0.416801452815E-01
  0.416801452706E-01
  0.416801450316E-01
  0.416801450318E-01
  0.416801449597E-01
  0.416801449691E-01
  0.416801448911E-01
  0.416801449148E-01
  0.416801452130E-01
  0.416801452023E-01
  0.416801452149E-01
  0.416801451974E-01
  0.416801449712E-01
  0.416801449598E-01
  0.416801449037E-01
  0.416801449180E-01
  0.416801451798E-01
  0.416801451794E-01
  0.416801452078E-01
  0.416801452015E-01
  0.416801451447E-01
  0.416801451459E-01
  0.416801450726E-01
  0.416801450791E-01
  0.416801451793E-01
  0.416801451762E-01
  0.416801450643E-01
  0.416801450638E-01
  0.416801450404E-01
  0.416801450405E-01
  0.416801452275E-01
  0.416801452189E-01
  0.416801451838E-01
  0.416801451876E-01
  0.416801452715E-01
  0.416801452830E-01
  0.416801454227E-01
  0.416801454032E-01
  0.416801450059E-01
  0.416801450238E-01
  0.416801451345E-01
  0.416801451405E-01
  0.416801452678E-01
  0.416801453884E-01
  0.416801458582E-01
  0.416801434675E-01
  0.416801433572E-01
  0.416801433561E-01
  0.416801429564E-01
  0.416801429858E-01
  0.416801433277E-01
  0.416801433124E-01
  0.416801432782E-01
  0.416801432794E-01
  0.416801435636E-01
  0.416801435488E-01
  0.416801432157E-01
  0.416801432306E-01
  0.416801431689E-01
  0.416801431756E-01
  0.416801431285E-01
  0.416801431186E-01
  0.416801432358E-01
  0.416801432251E-01
  0.416801434977E-01
  0.416801434826E-01
  0.416801430429E-01
  0.416801430576E-01
  0.416801430172E-01
  0.416801430346E-01
  0.416801434076E-01
  0.416801434012E-01
  0.416801433389E-01
  0.416801433274E-01
  0.416801431093E-01
  0.416801431163E-01
  0.416801431769E-01
  0.416801431827E-01
  0.416801434168E-01
  0.416801434104E-01
  0.416801433315E-01
  0.416801433438E-01
  0.416801434327E-01
  0.416801434091E-01
  0.416801429888E-01
  0.416801430052E-01
  0.416801430572E-01
  0.416801430753E-01
  0.416801434495E-01
  0.416801434151E-01
  0.416801429859E-01
  0.416801430099E-01
  0.416801433730E-01
  0.416801433517E-01
  0.416801431062E-01
  0.416801431253E-01
  0.416801436359E-01
  0.416801436042E-01
  0.416801428496E-01
  0.416801428926E-01
  0.416801433504E-01
  0.416801433349E-01
  0.416801432954E-01
  0.416801432968E-01
  0.416801435873E-01
  0.416801435726E-01
  0.416801432440E-01
  0.416801432586E-01
  0.416801431932E-01
  0.416801432004E-01
  0.416801431669E-01
  0.416801431568E-01
  0.416801432684E-01
  0.416801432582E-01
  0.416801435332E-01
  0.416801435180E-01
  0.416801430805E-01
  0.416801430952E-01
  0.416801430546E-01
  0.416801430722E-01
  0.416801434463E-01
  0.416801434402E-01
  0.416801433801E-01
  0.416801433681E-01
  0.416801431373E-01
  0.416801431447E-01
  0.416801432085E-01
  0.416801432011E-01
  0.416801432114E-01
  0.416801432181E-01
  0.416801433593E-01
  0.416801433717E-01
  0.416801435166E-01
  0.416801434898E-01
  0.416801430095E-01
  0.416801430233E-01
  0.416801429675E-01
  0.416801429851E-01
  0.416801434555E-01
  0.416801434215E-01
  0.416801429889E-01
  0.416801430136E-01
  0.416801432056E-01
  0.416801433297E-01
  0.416801432439E-01
  0.416801453194E-01
  0.416801450335E-01
  0.416801450420E-01
  0.416801453483E-01
  0.416801453344E-01
  0.416801449589E-01
  0.416801449811E-01
  0.416801453109E-01
  0.416801452933E-01
  0.416801449756E-01
  0.416801449908E-01
  0.416801452438E-01
  0.416801452281E-01
  0.416801450181E-01
  0.416801450294E-01
  0.416801451837E-01
  0.416801451818E-01
  0.416801453840E-01
  0.416801453779E-01
  0.416801453341E-01
  0.416801453334E-01
  0.416801453034E-01
  0.416801453042E-01
  0.416801455319E-01
  0.416801455127E-01
  0.416801448606E-01
  0.416801448889E-01
  0.416801451294E-01
  0.416801451122E-01
  0.416801450728E-01
  0.416801450850E-01
  0.416801454271E-01
  0.416801454152E-01
  0.416801450119E-01
  0.416801450241E-01
  0.416801451161E-01
  0.416801451254E-01
  0.416801451555E-01
  0.416801451585E-01
  0.416801455644E-01
  0.416801455291E-01
  0.416801450168E-01
  0.416801450285E-01
  0.416801448491E-01
  0.416801448657E-01
  0.416801454162E-01
  0.416801453969E-01
  0.416801450517E-01
  0.416801450733E-01
  0.416801454828E-01
  0.416801454553E-01
  0.416801448436E-01
  0.416801448745E-01
  0.416801454926E-01
  0.416801454641E-01
  0.416801449494E-01
  0.416801449787E-01
  0.416801453183E-01
  0.416801453002E-01
  0.416801449742E-01
  0.416801449895E-01
  0.416801452364E-01
  0.416801452209E-01
  0.416801450149E-01
  0.416801450257E-01
  0.416801451685E-01
  0.416801451669E-01
  0.416801453659E-01
  0.416801453597E-01
  0.416801453126E-01
  0.416801453117E-01
  0.416801452772E-01
  0.416801452780E-01
  0.416801455042E-01
  0.416801454848E-01
  0.416801448281E-01
  0.416801448565E-01
  0.416801450919E-01
  0.416801450749E-01
  0.416801450453E-01
  0.416801450571E-01
  0.416801453995E-01
  0.416801453877E-01
  0.416801452323E-01
  0.416801452314E-01
  0.416801450739E-01
  0.416801450960E-01
  0.416801451230E-01
  0.416801451263E-01
  0.416801455338E-01
  0.416801455118E-01
  0.416801453674E-01
  0.416801453596E-01
  0.416801449407E-01
  0.416801449566E-01
  0.416801453792E-01
  0.416801453744E-01
  0.416801452977E-01