# vtk DataFile Version 3.0
MachLine results file. Generated by MachLine, USU AeroLab (c) 2022.
ASCII
DATASET POLYDATA
POINTS                 781 float
  0.572899616308E+02  0.000000000000E+00  0.000000000000E+00
  0.553802962431E+02  0.333333333333E-01  0.000000000000E+00
  0.553802962431E+02  0.330704900438E-01  0.417777445214E-02
  0.553802962431E+02  0.322861053710E-01  0.828966290550E-02
  0.553802962431E+02  0.309925495296E-01  0.122708184228E-01
  0.553802962431E+02  0.292102226681E-01  0.160584558034E-01
  0.553802962431E+02  0.269672331458E-01  0.195928417431E-01
  0.553802962431E+02  0.242989542474E-01  0.228182368643E-01
  0.553802962431E+02  0.212474663250E-01  0.256837747592E-01
  0.553802962431E+02  0.178608931660E-01  0.281442641834E-01
  0.553802962431E+02  0.141926430522E-01  0.301609017489E-01
  0.553802962431E+02  0.103005664792E-01  0.317018838765E-01
  0.553802962431E+02  0.624604381952E-02  0.327429083576E-01
  0.553802962431E+02  0.209301731764E-02  0.332675576143E-01
  0.553802962431E+02 -0.209301731764E-02  0.332675576143E-01
  0.553802962431E+02 -0.624604381952E-02  0.327429083576E-01
  0.553802962431E+02 -0.103005664792E-01  0.317018838765E-01
  0.553802962431E+02 -0.141926430522E-01  0.301609017489E-01
  0.553802962431E+02 -0.178608931660E-01  0.281442641834E-01
  0.553802962431E+02 -0.212474663250E-01  0.256837747592E-01
  0.553802962431E+02 -0.242989542474E-01  0.228182368643E-01
  0.553802962431E+02 -0.269672331458E-01  0.195928417431E-01
  0.553802962431E+02 -0.292102226681E-01  0.160584558034E-01
  0.553802962431E+02 -0.309925495296E-01  0.122708184228E-01
  0.553802962431E+02 -0.322861053710E-01  0.828966290550E-02
  0.553802962431E+02 -0.330704900438E-01  0.417777445214E-02
  0.553802962431E+02 -0.333333333333E-01  0.408215599716E-17
  0.534706308554E+02  0.666666666667E-01  0.000000000000E+00
  0.534706308554E+02  0.661409800876E-01  0.835554890429E-02
  0.534706308554E+02  0.645722107419E-01  0.165793258110E-01
  0.534706308554E+02  0.619850990592E-01  0.245416368456E-01
  0.534706308554E+02  0.584204453363E-01  0.321169116068E-01
  0.534706308554E+02  0.539344662917E-01  0.391856834862E-01
  0.534706308554E+02  0.485979084948E-01  0.456364737286E-01
  0.534706308554E+02  0.424949326499E-01  0.513675495184E-01
  0.534706308554E+02  0.357217863319E-01  0.562885283668E-01
  0.534706308554E+02  0.283852861043E-01  0.603218034977E-01
  0.534706308554E+02  0.206011329583E-01  0.634037677530E-01
  0.534706308554E+02  0.124920876390E-01  0.654858167152E-01
  0.534706308554E+02  0.418603463529E-02  0.665351152286E-01
  0.534706308554E+02 -0.418603463529E-02  0.665351152286E-01
  0.534706308554E+02 -0.124920876390E-01  0.654858167152E-01
  0.534706308554E+02 -0.206011329583E-01  0.634037677530E-01
  0.534706308554E+02 -0.283852861043E-01  0.603218034977E-01
  0.534706308554E+02 -0.357217863319E-01  0.562885283668E-01
  0.534706308554E+02 -0.424949326499E-01  0.513675495184E-01
  0.534706308554E+02 -0.485979084948E-01  0.456364737286E-01
  0.534706308554E+02 -0.539344662917E-01  0.391856834862E-01
  0.534706308554E+02 -0.584204453363E-01  0.321169116068E-01
  0.534706308554E+02 -0.619850990592E-01  0.245416368456E-01
  0.534706308554E+02 -0.645722107419E-01  0.165793258110E-01
  0.534706308554E+02 -0.661409800876E-01  0.835554890429E-02
  0.534706308554E+02 -0.666666666667E-01  0.816431199432E-17
  0.515609654677E+02  0.100000000000E+00  0.000000000000E+00
  0.515609654677E+02  0.992114701314E-01  0.125333233564E-01
  0.515609654677E+02  0.968583161129E-01  0.248689887165E-01
  0.515609654677E+02  0.929776485888E-01  0.368124552685E-01
  0.515609654677E+02  0.876306680044E-01  0.481753674102E-01
  0.515609654677E+02  0.809016994375E-01  0.587785252292E-01
  0.515609654677E+02  0.728968627421E-01  0.684547105929E-01
  0.515609654677E+02  0.637423989749E-01  0.770513242776E-01
  0.515609654677E+02  0.535826794979E-01  0.844327925502E-01
  0.515609654677E+02  0.425779291565E-01  0.904827052466E-01
  0.515609654677E+02  0.309016994375E-01  0.951056516295E-01
  0.515609654677E+02  0.187381314586E-01  0.982287250729E-01
  0.515609654677E+02  0.627905195293E-02  0.998026728428E-01
  0.515609654677E+02 -0.627905195293E-02  0.998026728428E-01
  0.515609654677E+02 -0.187381314586E-01  0.982287250729E-01
  0.515609654677E+02 -0.309016994375E-01  0.951056516295E-01
  0.515609654677E+02 -0.425779291565E-01  0.904827052466E-01
  0.515609654677E+02 -0.535826794979E-01  0.844327925502E-01
  0.515609654677E+02 -0.637423989749E-01  0.770513242776E-01
  0.515609654677E+02 -0.728968627421E-01  0.684547105929E-01
  0.515609654677E+02 -0.809016994375E-01  0.587785252292E-01
  0.515609654677E+02 -0.876306680044E-01  0.481753674102E-01
  0.515609654677E+02 -0.929776485888E-01  0.368124552685E-01
  0.515609654677E+02 -0.968583161129E-01  0.248689887165E-01
  0.515609654677E+02 -0.992114701314E-01  0.125333233564E-01
  0.515609654677E+02 -0.100000000000E+00  0.122464679915E-16
  0.496513000800E+02  0.133333333333E+00  0.000000000000E+00
  0.496513000800E+02  0.132281960175E+00  0.167110978086E-01
  0.496513000800E+02  0.129144421484E+00  0.331586516220E-01
  0.496513000800E+02  0.123970198118E+00  0.490832736913E-01
  0.496513000800E+02  0.116840890673E+00  0.642338232136E-01
  0.496513000800E+02  0.107868932583E+00  0.783713669723E-01
  0.496513000800E+02  0.971958169895E-01  0.912729474572E-01
  0.496513000800E+02  0.849898652998E-01  0.102735099037E+00
  0.496513000800E+02  0.714435726639E-01  0.112577056734E+00
  0.496513000800E+02  0.567705722087E-01  0.120643606995E+00
  0.496513000800E+02  0.412022659167E-01  0.126807535506E+00
  0.496513000800E+02  0.249841752781E-01  0.130971633430E+00
  0.496513000800E+02  0.837206927058E-02  0.133070230457E+00
  0.496513000800E+02 -0.837206927058E-02  0.133070230457E+00
  0.496513000800E+02 -0.249841752781E-01  0.130971633430E+00
  0.496513000800E+02 -0.412022659167E-01  0.126807535506E+00
  0.496513000800E+02 -0.567705722087E-01  0.120643606995E+00
  0.496513000800E+02 -0.714435726639E-01  0.112577056734E+00
  0.496513000800E+02 -0.849898652998E-01  0.102735099037E+00
  0.496513000800E+02 -0.971958169895E-01  0.912729474572E-01
  0.496513000800E+02 -0.107868932583E+00  0.783713669723E-01
  0.496513000800E+02 -0.116840890673E+00  0.642338232136E-01
  0.496513000800E+02 -0.123970198118E+00  0.490832736913E-01
  0.496513000800E+02 -0.129144421484E+00  0.331586516220E-01
  0.496513000800E+02 -0.132281960175E+00  0.167110978086E-01
  0.496513000800E+02 -0.133333333333E+00  0.163286239886E-16
  0.477416346923E+02  0.166666666667E+00  0.000000000000E+00
  0.477416346923E+02  0.165352450219E+00  0.208888722607E-01
  0.477416346923E+02  0.161430526855E+00  0.414483145275E-01
  0.477416346923E+02  0.154962747648E+00  0.613540921141E-01
  0.477416346923E+02  0.146051113341E+00  0.802922790170E-01
  0.477416346923E+02  0.134836165729E+00  0.979642087154E-01
  0.477416346923E+02  0.121494771237E+00  0.114091184321E+00
  0.477416346923E+02  0.106237331625E+00  0.128418873796E+00
  0.477416346923E+02  0.893044658298E-01  0.140721320917E+00
  0.477416346923E+02  0.709632152608E-01  0.150804508744E+00
  0.477416346923E+02  0.515028323958E-01  0.158509419383E+00
  0.477416346923E+02  0.312302190976E-01  0.163714541788E+00
  0.477416346923E+02  0.104650865882E-01  0.166337788071E+00
  0.477416346923E+02 -0.104650865882E-01  0.166337788071E+00
  0.477416346923E+02 -0.312302190976E-01  0.163714541788E+00
  0.477416346923E+02 -0.515028323958E-01  0.158509419383E+00
  0.477416346923E+02 -0.709632152608E-01  0.150804508744E+00
  0.477416346923E+02 -0.893044658298E-01  0.140721320917E+00
  0.477416346923E+02 -0.106237331625E+00  0.128418873796E+00
  0.477416346923E+02 -0.121494771237E+00  0.114091184321E+00
  0.477416346923E+02 -0.134836165729E+00  0.979642087154E-01
  0.477416346923E+02 -0.146051113341E+00  0.802922790170E-01
  0.477416346923E+02 -0.154962747648E+00  0.613540921141E-01
  0.477416346923E+02 -0.161430526855E+00  0.414483145275E-01
  0.477416346923E+02 -0.165352450219E+00  0.208888722607E-01
  0.477416346923E+02 -0.166666666667E+00  0.204107799858E-16
  0.458319693046E+02  0.200000000000E+00  0.000000000000E+00
  0.458319693046E+02  0.198422940263E+00  0.250666467129E-01
  0.458319693046E+02  0.193716632226E+00  0.497379774330E-01
  0.458319693046E+02  0.185955297178E+00  0.736249105369E-01
  0.458319693046E+02  0.175261336009E+00  0.963507348203E-01
  0.458319693046E+02  0.161803398875E+00  0.117557050458E+00
  0.458319693046E+02  0.145793725484E+00  0.136909421186E+00
  0.458319693046E+02  0.127484797950E+00  0.154102648555E+00
  0.458319693046E+02  0.107165358996E+00  0.168865585100E+00
  0.458319693046E+02  0.851558583130E-01  0.180965410493E+00
  0.458319693046E+02  0.618033988750E-01  0.190211303259E+00
  0.458319693046E+02  0.374762629171E-01  0.196457450146E+00
  0.458319693046E+02  0.125581039059E-01  0.199605345686E+00
  0.458319693046E+02 -0.125581039059E-01  0.199605345686E+00
  0.458319693046E+02 -0.374762629171E-01  0.196457450146E+00
  0.458319693046E+02 -0.618033988750E-01  0.190211303259E+00
  0.458319693046E+02 -0.851558583130E-01  0.180965410493E+00
  0.458319693046E+02 -0.107165358996E+00  0.168865585100E+00
  0.458319693046E+02 -0.127484797950E+00  0.154102648555E+00
  0.458319693046E+02 -0.145793725484E+00  0.136909421186E+00
  0.458319693046E+02 -0.161803398875E+00  0.117557050458E+00
  0.458319693046E+02 -0.175261336009E+00  0.963507348203E-01
  0.458319693046E+02 -0.185955297178E+00  0.736249105369E-01
  0.458319693046E+02 -0.193716632226E+00  0.497379774330E-01
  0.458319693046E+02 -0.198422940263E+00  0.250666467129E-01
  0.458319693046E+02 -0.200000000000E+00  0.244929359829E-16
  0.439223039169E+02  0.233333333333E+00  0.000000000000E+00
  0.439223039169E+02  0.231493430307E+00  0.292444211650E-01
  0.439223039169E+02  0.226002737597E+00  0.580276403385E-01
  0.439223039169E+02  0.216947846707E+00  0.858957289598E-01
[...]
CELL_DATA                1475
SCALARS C_p_ise float 1
LOOKUP_TABLE default
  0.225570604213E-02
  0.225570603665E-02
  0.225570603660E-02
  0.225570603661E-02
  0.225570603663E-02
  0.225570603664E-02
  0.225570603664E-02
  0.225570603663E-02
  0.225570603661E-02
  0.225570603662E-02
  0.225570603662E-02
  0.225570603660E-02
  0.225570603660E-02
  0.225570603659E-02
  0.225570603658E-02
  0.225570603661E-02
  0.225570603662E-02
  0.225570603661E-02
  0.225570603661E-02
  0.225570603660E-02
  0.225570603663E-02
  0.225570603662E-02
  0.225570603660E-02
  0.225570603652E-02
  0.225570602843E-02
  0.225570597988E-02
  0.225570599599E-02
  0.225570599059E-02
  0.225570599083E-02
  0.225570599077E-02
  0.225570599072E-02
  0.225570599070E-02
  0.225570599061E-02
  0.225570599063E-02
  0.225570599066E-02
  0.225570599069E-02
  0.225570599073E-02
  0.225570599074E-02
  0.225570599080E-02
  0.225570599074E-02
  0.225570599057E-02
  0.225570599058E-02
  0.225570599065E-02
  0.225570599064E-02
  0.225570599057E-02
  0.225570599064E-02
  0.225570599087E-02
  0.225570599082E-02
  0.225570599076E-02
  0.225570599077E-02
  0.225570599079E-02
  0.225570599078E-02
  0.225570599077E-02
  0.225570599071E-02
  0.225570599060E-02
  0.225570599062E-02
  0.225570599060E-02
  0.225570599064E-02
  0.225570599072E-02
  0.225570599071E-02
  0.225570599067E-02
  0.225570599066E-02
  0.225570599063E-02
  0.225570599060E-02
  0.225570599053E-02
  0.225570599060E-02
  0.225570599071E-02
  0.225570599068E-02
  0.225570599062E-02
  0.225570599067E-02
  0.225570599090E-02
  0.225570599092E-02
  0.225570599118E-02
  0.225570599138E-02
  0.225570601626E-02
  0.225570598390E-02
  0.225570598434E-02
  0.225570598424E-02
  0.225570598388E-02
  0.225570598394E-02
  0.225570598419E-02
  0.225570598409E-02
  0.225570598378E-02
  0.225570598377E-02
  0.225570598376E-02
  0.225570598387E-02
  0.225570598426E-02
  0.225570598420E-02
  0.225570598369E-02
  0.225570598371E-02
  0.225570598404E-02
  0.225570598391E-02
  0.225570598350E-02
  0.225570598364E-02
  0.225570598427E-02
  0.225570598419E-02
  0.225570598350E-02
  0.225570598363E-02
  0.225570598412E-02
  0.225570598405E-02
  0.225570598373E-02
  0.225570598374E-02
  0.225570598381E-02
  0.225570598373E-02
  0.225570598361E-02
  0.225570598362E-02
  0.225570598375E-02
  0.225570598384E-02
  0.225570598410E-02
  0.225570598410E-02
  0.225570598402E-02
  0.225570598397E-02
  0.225570598382E-02
  0.225570598378E-02
  0.225570598374E-02
  0.225570598385E-02
  0.225570598417E-02
  0.225570598415E-02
  0.225570598403E-02
  0.225570598398E-02
  0.225570598357E-02
  0.225570598364E-02
  0.225570598351E-02
  0.225570598404E-02
  0.225570598522E-02
  0.225570598140E-02
  0.225570598135E-02
  0.225570598136E-02
  0.225570598157E-02
  0.225570598149E-02
  0.225570598099E-02
  0.225570598111E-02
  0.225570598228E-02
  0.225570598216E-02
  0.225570598180E-02
  0.225570598178E-02
  0.225570598091E-02
  0.225570598104E-02
  0.225570598184E-02
  0.225570598176E-02
  0.225570598177E-02
  0.225570598172E-02
  0.225570598180E-02
  0.225570598173E-02
  0.225570598090E-02
  0.225570598111E-02
  0.225570598230E-02
  0.225570598218E-02
  0.225570598141E-02
  0.225570598140E-02
  0.225570598119E-02
  0.225570598120E-02
  0.225570598169E-02
  0.225570598175E-02
  0.225570598262E-02
  0.225570598250E-02
  0.225570598182E-02
  0.225570598178E-02
  0.225570598079E-02
  0.225570598099E-02
  0.225570598205E-02
  0.225570598204E-02
  0.225570598251E-02
  0.225570598238E-02
  0.225570598196E-02
  0.225570598192E-02
  0.225570598092E-02
  0.225570598113E-02
  0.225570598231E-02
  0.225570598223E-02
  0.225570598222E-02
  0.225570598224E-02
  0.225570598246E-02
  0.225570598288E-02
  0.225570598234E-02
  0.225570598449E-02
  0.225570598341E-02
  0.225570598353E-02
  0.225570598454E-02
  0.225570598445E-02
  0.225570598409E-02
  0.225570598408E-02
  0.225570598357E-02
  0.225570598370E-02
  0.225570598439E-02
  0.225570598434E-02
  0.225570598448E-02
  0.225570598455E-02
  0.225570598526E-02
  0.225570598511E-02
  0.225570598345E-02
  0.225570598344E-02
  0.225570598381E-02
  0.225570598376E-02
  0.225570598380E-02
  0.225570598382E-02
  0.225570598320E-02
  0.225570598333E-02
  0.225570598400E-02
  0.225570598398E-02
  0.225570598486E-02
  0.225570598469E-02
  0.225570598330E-02
  0.225570598348E-02
  0.225570598395E-02
  0.225570598398E-02
  0.225570598415E-02
  0.225570598419E-02
  0.225570598570E-02
  0.225570598550E-02
  0.225570598324E-02
  0.225570598339E-02
  0.225570598342E-02
  0.225570598330E-02
  0.225570598284E-02
  0.225570598291E-02
  0.225570598446E-02
  0.225570598457E-02
  0.225570598491E-02
  0.225570598499E-02
  0.225570598485E-02
  0.225570598474E-02
  0.225570598370E-02
  0.225570598440E-02
  0.225570598665E-02
  0.225570597921E-02
  0.225570598012E-02
  0.225570598010E-02
  0.225570597977E-02
  0.225570597970E-02
  0.225570597876E-02
  0.225570597877E-02
  0.225570597941E-02
  0.225570597950E-02
  0.225570597974E-02
  0.225570597984E-02
  0.225570598063E-02
  0.225570598041E-02
  0.225570597696E-02
  0.225570597721E-02
  0.225570598069E-02
  0.225570598070E-02
  0.225570598298E-02
  0.225570598282E-02
  0.225570598116E-02
  0.225570598120E-02
  0.225570598144E-02
  0.225570598142E-02
  0.225570598054E-02
  0.225570598039E-02
  0.225570597818E-02
  0.225570597839E-02
  0.225570598145E-02
  0.225570598146E-02
  0.225570598129E-02
  0.225570598138E-02
  0.225570598138E-02
  0.225570598134E-02
  0.225570598030E-02
  0.225570598045E-02
  0.225570598237E-02
  0.225570598203E-02
  0.225570597933E-02
  0.225570597938E-02
  0.225570598128E-02
  0.225570598123E-02
  0.225570598055E-02
  0.225570598081E-02
  0.225570598055E-02
  0.225570598061E-02
  0.225570598000E-02
  0.225570597984E-02
  0.225570597935E-02
  0.225570598025E-02
  0.225570598365E-02
  0.225570598459E-02
  0.225570598580E-02
  0.225570598579E-02
  0.225570598495E-02
  0.225570598506E-02
  0.225570598773E-02
  0.225570598753E-02
  0.225570598586E-02
  0.225570598603E-02
  0.225570598629E-02
  0.225570598624E-02
  0.225570598404E-02
  0.225570598402E-02
  0.225570598569E-02
  0.225570598562E-02
  0.225570598566E-02
  0.225570598567E-02
  0.225570598150E-02
  0.225570598173E-02
  0.225570598403E-02
  0.225570598396E-02
  0.225570598441E-02
  0.225570598457E-02
  0.225570598677E-02
  0.225570598651E-02
  0.225570598605E-02
  0.225570598577E-02
  0.225570598200E-02
  0.225570598225E-02
  0.225570598177E-02
  0.225570598227E-02
  0.225570598788E-02
  0.225570598740E-02
  0.225570598178E-02
  0.225570598172E-02
  0.225570598021E-02
  0.225570598040E-02
  0.225570598512E-02
  0.225570598489E-02
  0.225570598432E-02
  0.225570598436E-02
  0.225570598337E-02
  0.225570598354E-02
  0.225570598317E-02
  0.225570598340E-02
  0.225570598589E-02
  0.225570598559E-02
  0.225570598457E-02
  0.225570598562E-02
  0.225570598816E-02
  0.225570598039E-02
  0.225570597925E-02
  0.225570597917E-02
  0.225570597674E-02
  0.225570597691E-02
  0.225570597879E-02
  0.225570597879E-02
  0.225570597882E-02
  0.225570597868E-02
  0.225570597593E-02
  0.225570597620E-02
  0.225570598068E-02
  0.225570598047E-02
  0.225570598016E-02
  0.225570598016E-02
  0.225570597920E-02
  0.225570597942E-02
  0.225570598254E-02
  0.225570598223E-02
  0.225570597886E-02
  0.225570597889E-02
  0.225570597764E-02
  0.225570597781E-02
  0.225570597740E-02
  0.225570597735E-02
  0.225570597795E-02
  0.225570597784E-02
  0.225570598105E-02
  0.225570598118E-02
  0.225570598361E-02
  0.225570598352E-02
  0.225570597525E-02
  0.225570597575E-02
  0.225570598380E-02
  0.225570598314E-02
  0.225570598054E-02
  0.225570598060E-02
  0.225570598032E-02
  0.225570598035E-02
  0.225570597890E-02
  0.225570597894E-02
  0.225570597938E-02
  0.225570597934E-02
  0.225570597730E-02
  0.225570597745E-02
  0.225570597662E-02
  0.225570597686E-02
  0.225570598207E-02
  0.225570598298E-02
  0.225570598212E-02
  0.225570598397E-02
  0.225570597785E-02
  0.225570597815E-02
  0.225570598589E-02
  0.225570598566E-02
  0.225570598170E-02
  0.225570598197E-02
  0.225570598443E-02
  0.225570598426E-02
  0.225570598375E-02
  0.225570598399E-02
  0.225570598653E-02
  0.225570598652E-02
  0.225570598484E-02
  0.225570598468E-02
  0.225570598243E-02
  0.225570598254E-02
  0.225570598168E-02
  0.225570598183E-02
  0.225570598630E-02
  0.225570598601E-02
  0.225570598454E-02
  0.225570598446E-02
  0.225570598154E-02
  0.225570598173E-02
  0.225570598632E-02
  0.225570598588E-02
  0.225570597948E-02
  0.225570597998E-02
  0.225570598271E-02
  0.225570598288E-02
  0.225570598454E-02
  0.225570598444E-02
  0.225570598368E-02
  0.225570598367E-02
  0.225570598580E-02
  0.225570598560E-02
  0.225570598411E-02
  0.225570598411E-02
  0.225570598384E-02
  0.225570598399E-02
  0.225570598748E-02
  0.225570598735E-02
  0.225570598543E-02
  0.225570598563E-02
  0.225570598885E-02
  0.225570598886E-02
  0.225570598590E-02
  0.225570598743E-02
  0.225570599208E-02
  0.225570598420E-02
  0.225570598988E-02
  0.225570598958E-02
  0.225570598491E-02
  0.225570598511E-02
  0.225570598454E-02
  0.225570598443E-02
  0.225570598163E-02
  0.225570598185E-02
  0.225570598651E-02
  0.225570598630E-02
  0.225570597832E-02
  0.225570597879E-02
  0.225570598503E-02
  0.225570598514E-02
  0.225570599196E-02
  0.225570599150E-02
  0.225570598341E-02
  0.225570598334E-02
  0.225570597995E-02
  0.225570597987E-02
  0.225570597886E-02
  0.225570597916E-02
  0.225570598797E-02
  0.225570598768E-02
  0.225570598174E-02
  0.225570598202E-02
  0.225570599076E-02
  0.225570599040E-02
  0.225570598109E-02
  0.225570598155E-02
  0.225570598401E-02
  0.225570598413E-02
  0.225570598640E-02
  0.225570598628E-02
  0.225570598481E-02
  0.225570598475E-02
  0.225570598514E-02
  0.225570598505E-02
  0.225570598493E-02
  0.225570598461E-02
  0.225570597610E-02
  0.225570597626E-02
  0.225570597788E-02
  0.225570597806E-02
  0.225570597988E-02
  0.225570598004E-02
  0.225570597931E-02
  0.225570598113E-02
  0.225570598983E-02
  0.225570597961E-02
  0.225570598321E-02
  0.225570598323E-02
  0.225570598367E-02
  0.225570598349E-02
  0.225570598077E-02
  0.225570598075E-02
  0.225570598317E-02
  0.225570598326E-02
  0.225570598357E-02
  0.225570598376E-02
  0.225570598696E-02
  0.225570598650E-02
  0.225570597585E-02
  0.225570597607E-02
  0.225570597169E-02
  0.225570597203E-02
  0.225570598128E-02
  0.225570598083E-02
  0.225570598185E-02
  0.225570598186E-02
  0.225570598739E-02
  0.225570598723E-02
  0.225570597878E-02
  0.225570597932E-02
  0.225570598715E-02
  0.225570598682E-02
  0.225570598035E-02
  0.225570598040E-02
  0.225570597962E-02
  0.225570597935E-02
  0.225570597427E-02
  0.225570597443E-02
  0.225570597252E-02
  0.225570597260E-02
  0.225570597461E-02
  0.225570597488E-02
  0.225570598322E-02
  0.225570598314E-02
  0.225570598295E-02
  0.225570598305E-02
  0.225570599209E-02
  0.225570599160E-02
  0.225570598733E-02
  0.225570598715E-02
  0.225570597771E-02
  0.225570597792E-02
  0.225570597668E-02
  0.225570597906E-02
  0.225570599166E-02
  0.225570598366E-02
  0.225570597779E-02
  0.225570597829E-02
  0.225570598555E-02
  0.225570598563E-02
  0.225570599109E-02
  0.225570599034E-02
  0.225570597653E-02
  0.225570597660E-02
  0.225570597377E-02
  0.225570597351E-02
  0.225570596290E-02
  0.225570596374E-02
  0.225570599001E-02
  0.225570598918E-02
  0.225570597650E-02
  0.225570597690E-02
  0.225570598279E-02
  0.225570598293E-02
  0.225570598625E-02
  0.225570598588E-02
  0.225570597601E-02
  0.225570597605E-02
  0.225570597456E-02
  0.225570597486E-02
  0.225570597839E-02
  0.225570597870E-02
  0.225570598500E-02
  0.225570598455E-02
  0.225570597993E-02
  0.225570597970E-02
  0.225570598130E-02
  0.225570598146E-02
  0.225570598713E-02
  0.225570598715E-02
  0.225570598762E-02
  0.225570598764E-02
  0.225570598008E-02
  0.225570598031E-02
  0.225570597833E-02
  0.225570597839E-02
  0.225570597768E-02
  0.225570597751E-02
  0.225570597503E-02
  0.225570597502E-02
  0.225570598371E-02
  0.225570598334E-02
  0.225570598063E-02
  0.225570598281E-02
  0.225570597959E-02
  0.225570598040E-02
  0.225570598299E-02
  0.225570598300E-02
  0.225570597715E-02
  0.225570597773E-02
  0.225570598232E-02
  0.225570598221E-02
  0.225570599222E-02
  0.225570599176E-02
  0.225570599327E-02
  0.225570599292E-02
  0.225570599388E-02
  0.225570599393E-02
  0.225570598564E-02
  0.225570598613E-02
  0.225570599075E-02
  0.225570599005E-02
  0.225570597666E-02
  0.225570597719E-02
  0.225570598078E-02
  0.225570598075E-02
  0.225570598576E-02
  0.225570598542E-02
  0.225570598663E-02
  0.225570598621E-02
  0.225570596984E-02
  0.225570597054E-02
  0.225570597634E-02
  0.225570597657E-02
  0.225570598671E-02
  0.225570598689E-02
  0.225570600224E-02
  0.225570600221E-02
  0.225570599567E-02
  0.225570599532E-02
  0.225570597990E-02
  0.225570597991E-02
  0.225570597887E-02
  0.225570597902E-02
  0.225570598529E-02
  0.225570598477E-02
  0.225570597237E-02
  0.225570597300E-02
  0.225570599369E-02
  0.225570599339E-02
  0.225570598878E-02
  0.225570598897E-02
  0.225570599355E-02
  0.225570599594E-02
  0.225570600420E-02
  0.225570597991E-02
  0.225570598687E-02
  0.225570598686E-02
  0.225570598345E-02
  0.225570598369E-02
  0.225570598082E-02
  0.225570598001E-02
  0.225570595627E-02
  0.225570595681E-02
  0.225570597279E-02
  0.225570597226E-02
  0.225570596567E-02
  0.225570596583E-02
  0.225570596805E-02
  0.225570596893E-02
  0.225570598815E-02
  0.225570598711E-02
  0.225570597275E-02
  0.225570597299E-02
  0.225570597964E-02
  0.225570598041E-02
  0.225570599824E-02
  0.225570599763E-02
  0.225570598493E-02
  0.225570598479E-02
  0.225570599117E-02
  0.225570599137E-02
  0.225570599559E-02
  0.225570599545E-02
  0.225570597936E-02
  0.225570597950E-02
  0.225570596747E-02
  0.225570596838E-02
  0.225570597736E-02
  0.225570597673E-02
  0.225570597629E-02
  0.225570597592E-02
  0.225570598223E-02
  0.225570598197E-02
  0.225570597196E-02
  0.225570597212E-02
  0.225570598369E-02
  0.225570598347E-02
  0.225570597394E-02
  0.225570597428E-02
  0.225570596925E-02
  0.225570596938E-02
  0.225570597266E-02
  0.225570597524E-02
  0.225570597527E-02
  0.225570599076E-02
  0.225570597962E-02
  0.225570597986E-02
  0.225570597959E-02
  0.225570597950E-02
  0.225570597365E-02
  0.225570597369E-02
  0.225570600149E-02
  0.225570600033E-02
  0.225570597685E-02
  0.225570597774E-02
  0.225570600180E-02
  0.225570600146E-02
  0.225570599410E-02
  0.225570599457E-02
  0.225570598034E-02
  0.225570598080E-02
  0.225570600361E-02
  0.225570600256E-02
  0.225570598048E-02
  0.225570598109E-02
  0.225570596908E-02
  0.225570596987E-02
  0.225570599133E-02
  0.225570599043E-02
  0.225570598184E-02
  0.225570598226E-02
  0.225570598176E-02
  0.225570598205E-02
  0.225570599001E-02
  0.225570598903E-02
  0.225570597396E-02
  0.225570597390E-02
  0.225570595861E-02
  0.225570595945E-02
  0.225570599246E-02
  0.225570599172E-02
  0.225570598139E-02
  0.225570598228E-02
  0.225570600880E-02
  0.225570600814E-02
  0.225570599525E-02
  0.225570599510E-02
  0.225570598464E-02
  0.225570598483E-02
  0.225570599050E-02
  0.225570599013E-02
  0.225570598105E-02
  0.225570598422E-02
  0.225570599812E-02
  0.225570597353E-02
  0.225570597782E-02
  0.225570597769E-02
  0.225570597840E-02
  0.225570597851E-02
  0.225570598512E-02
  0.225570598519E-02
  0.225570599216E-02
  0.225570599190E-02
  0.225570599002E-02
  0.225570598971E-02
  0.225570597763E-02
  0.225570597783E-02
  0.225570596866E-02
  0.225570596910E-02
  0.225570597611E-02
  0.225570597522E-02
  0.225570594843E-02
  0.225570594904E-02
  0.225570597629E-02
  0.225570597647E-02
  0.225570598666E-02
  0.225570598616E-02
  0.225570595911E-02
  0.225570596004E-02
  0.225570599384E-02
  0.225570599332E-02
  0.225570597327E-02
  0.225570597408E-02
  0.225570599063E-02
  0.225570599011E-02
  0.225570599564E-02
  0.225570599488E-02
  0.225570598911E-02
  0.225570598864E-02
  0.225570596443E-02
  0.225570596533E-02
  0.225570598120E-02
  0.225570598077E-02
  0.225570595105E-02
  0.225570595201E-02
  0.225570597354E-02
  0.225570597319E-02
  0.225570598090E-02
  0.225570598039E-02
  0.225570597007E-02
  0.225570597046E-02
  0.225570598772E-02
  0.225570598978E-02
  0.225570596504E-02
  0.225570599532E-02
  0.225570597968E-02
  0.225570597929E-02
  0.225570596618E-02
  0.225570596692E-02
  0.225570598661E-02
  0.225570598626E-02
  0.225570596557E-02
  0.225570596589E-02
  0.225570597768E-02
  0.225570597733E-02
  0.225570597832E-02
  0.225570597870E-02
  0.225570599761E-02
  0.225570599744E-02
  0.225570598685E-02
  0.225570598679E-02
  0.225570600714E-02
  0.225570600608E-02
  0.225570597907E-02
  0.225570597978E-02
  0.225570596861E-02
  0.225570596909E-02
  0.225570599076E-02
  0.225570598974E-02
  0.225570595464E-02
  0.225570595565E-02
  0.225570597038E-02
  0.225570597049E-02
  0.225570596870E-02
  0.225570596873E-02
  0.225570596951E-02
  0.225570596999E-02
  0.225570600511E-02
  0.225570600434E-02
  0.225570600060E-02
  0.225570599989E-02
  0.225570597235E-02
  0.225570597324E-02
  0.225570599983E-02
  0.225570599962E-02
  0.225570599288E-02
  0.225570599291E-02
  0.225570598240E-02
  0.225570598192E-02
  0.225570597458E-02
  0.225570597455E-02
  0.225570597177E-02
  0.225570597609E-02
  0.225570603215E-02
  0.225570594869E-02
  0.225570596774E-02
  0.225570596844E-02
  0.225570602280E-02
  0.225570602186E-02
  0.225570597718E-02
  0.225570597783E-02
  0.225570599207E-02
  0.225570599215E-02
  0.225570600591E-02
  0.225570600583E-02
  0.225570600237E-02
  0.225570600208E-02
  0.225570597759E-02
  0.225570597764E-02
  0.225570596560E-02
  0.225570596567E-02
  0.225570598115E-02
  0.225570598095E-02
  0.225570599001E-02
  0.225570598921E-02
  0.225570596457E-02
  0.225570596490E-02
  0.225570597151E-02
  0.225570597170E-02
  0.225570599056E-02
  0.225570599022E-02
  0.225570597986E-02
  0.225570598019E-02
  0.225570597235E-02
  0.225570597224E-02
  0.225570596942E-02
  0.225570597007E-02
  0.225570597535E-02
  0.225570597532E-02
  0.225570596390E-02
  0.225570596367E-02
  0.225570598445E-02
  0.225570598459E-02
  0.225570598730E-02
  0.225570598782E-02
  0.225570598482E-02
  0.225570598462E-02
  0.225570598351E-02
  0.225570598288E-02
  0.225570598904E-02
  0.225570598826E-02
  0.225570596987E-02
  0.225570597394E-02
  0.225570596826E-02
  0.225570600142E-02
  0.225570598786E-02
  0.225570598813E-02
  0.225570595246E-02
  0.225570595424E-02
  0.225570599714E-02
  0.225570599629E-02
  0.225570598813E-02
  0.225570598775E-02
  0.225570595556E-02
  0.225570595657E-02
  0.225570598252E-02
  0.225570598207E-02
  0.225570597978E-02
  0.225570597935E-02
  0.225570598735E-02
  0.225570598707E-02
  0.225570598690E-02
  0.225570598718E-02
  0.225570598812E-02
  0.225570598770E-02
  0.225570599233E-02
  0.225570599261E-02
  0.225570601643E-02
  0.225570601627E-02
  0.225570599664E-02
  0.225570599689E-02
  0.225570599874E-02
  0.225570599807E-02
  0.225570597198E-02
  0.225570597259E-02
  0.225570600720E-02
  0.225570600700E-02
  0.225570597843E-02
  0.225570597937E-02
  0.225570600967E-02
  0.225570600851E-02
  0.225570598652E-02
  0.225570598659E-02
  0.225570596267E-02
  0.225570596323E-02
  0.225570596215E-02
  0.225570596303E-02
  0.225570600633E-02
  0.225570600512E-02
  0.225570598495E-02
  0.225570598452E-02
  0.225570599103E-02
  0.225570599457E-02
  0.225570599425E-02
  0.225570598604E-02
  0.225570597122E-02
  0.225570597149E-02
  0.225570598554E-02
  0.225570598600E-02
  0.225570597218E-02
  0.225570597284E-02
  0.225570598616E-02
  0.225570598522E-02
  0.225570597171E-02
  0.225570597187E-02
  0.225570597237E-02
  0.225570597254E-02
  0.225570596910E-02
  0.225570596925E-02
  0.225570599440E-02
  0.225570599354E-02
  0.225570596257E-02
  0.225570596300E-02
  0.225570596919E-02
  0.225570596933E-02
  0.225570599025E-02
  0.225570598980E-02