# vtk DataFile Version 3.0
MachLine results file. Generated by MachLine, USU AeroLab (c) 2022.
ASCII
DATASET POLYDATA
POINTS                 781 float
  0.114300523028E+02  0.000000000000E+00  0.000000000000E+00
  0.110490505593E+02  0.333333333333E-01  0.000000000000E+00
  0.110490505593E+02  0.330704900438E-01  0.417777445214E-02
  0.110490505593E+02  0.322861053710E-01  0.828966290550E-02
  0.110490505593E+02  0.309925495296E-01  0.122708184228E-01
  0.110490505593E+02  0.292102226681E-01  0.160584558034E-01
  0.110490505593E+02  0.269672331458E-01  0.195928417431E-01
  0.110490505593E+02  0.242989542474E-01  0.228182368643E-01
  0.110490505593E+02  0.212474663250E-01  0.256837747592E-01
  0.110490505593E+02  0.178608931660E-01  0.281442641834E-01
  0.110490505593E+02  0.141926430522E-01  0.301609017489E-01
  0.110490505593E+02  0.103005664792E-01  0.317018838765E-01
  0.110490505593E+02  0.624604381952E-02  0.327429083576E-01
  0.110490505593E+02  0.209301731764E-02  0.332675576143E-01
  0.110490505593E+02 -0.209301731764E-02  0.332675576143E-01
  0.110490505593E+02 -0.624604381952E-02  0.327429083576E-01
  0.110490505593E+02 -0.103005664792E-01  0.317018838765E-01
  0.110490505593E+02 -0.141926430522E-01  0.301609017489E-01
  0.110490505593E+02 -0.178608931660E-01  0.281442641834E-01
  0.110490505593E+02 -0.212474663250E-01  0.256837747592E-01
  0.110490505593E+02 -0.242989542474E-01  0.228182368643E-01
  0.110490505593E+02 -0.269672331458E-01  0.195928417431E-01
  0.110490505593E+02 -0.292102226681E-01  0.160584558034E-01
  0.110490505593E+02 -0.309925495296E-01  0.122708184228E-01
  0.110490505593E+02 -0.322861053710E-01  0.828966290550E-02
  0.110490505593E+02 -0.330704900438E-01  0.417777445214E-02
  0.110490505593E+02 -0.333333333333E-01  0.408215599716E-17
  0.106680488159E+02  0.666666666667E-01  0.000000000000E+00
  0.106680488159E+02  0.661409800876E-01  0.835554890429E-02
  0.106680488159E+02  0.645722107419E-01  0.165793258110E-01
  0.106680488159E+02  0.619850990592E-01  0.245416368456E-01
  0.106680488159E+02  0.584204453363E-01  0.321169116068E-01
  0.106680488159E+02  0.539344662917E-01  0.391856834862E-01
  0.106680488159E+02  0.485979084948E-01  0.456364737286E-01
  0.106680488159E+02  0.424949326499E-01  0.513675495184E-01
  0.106680488159E+02  0.357217863319E-01  0.562885283668E-01
  0.106680488159E+02  0.283852861043E-01  0.603218034977E-01
  0.106680488159E+02  0.206011329583E-01  0.634037677530E-01
  0.106680488159E+02  0.124920876390E-01  0.654858167152E-01
  0.106680488159E+02  0.418603463529E-02  0.665351152286E-01
  0.106680488159E+02 -0.418603463529E-02  0.665351152286E-01
  0.106680488159E+02 -0.124920876390E-01  0.654858167152E-01
  0.106680488159E+02 -0.206011329583E-01  0.634037677530E-01
  0.106680488159E+02 -0.283852861043E-01  0.603218034977E-01
  0.106680488159E+02 -0.357217863319E-01  0.562885283668E-01
  0.106680488159E+02 -0.424949326499E-01  0.513675495184E-01
  0.106680488159E+02 -0.485979084948E-01  0.456364737286E-01
  0.106680488159E+02 -0.539344662917E-01  0.391856834862E-01
  0.106680488159E+02 -0.584204453363E-01  0.321169116068E-01
  0.106680488159E+02 -0.619850990592E-01  0.245416368456E-01
  0.106680488159E+02 -0.645722107419E-01  0.165793258110E-01
  0.106680488159E+02 -0.661409800876E-01  0.835554890429E-02
  0.106680488159E+02 -0.666666666667E-01  0.816431199432E-17
  0.102870470725E+02  0.100000000000E+00  0.000000000000E+00
  0.102870470725E+02  0.992114701314E-01  0.125333233564E-01
  0.102870470725E+02  0.968583161129E-01  0.248689887165E-01
  0.102870470725E+02  0.929776485888E-01  0.368124552685E-01
  0.102870470725E+02  0.876306680044E-01  0.481753674102E-01
  0.102870470725E+02  0.809016994375E-01  0.587785252292E-01
  0.102870470725E+02  0.728968627421E-01  0.684547105929E-01
  0.102870470725E+02  0.637423989749E-01  0.770513242776E-01
  0.102870470725E+02  0.535826794979E-01  0.844327925502E-01
  0.102870470725E+02  0.425779291565E-01  0.904827052466E-01
  0.102870470725E+02  0.309016994375E-01  0.951056516295E-01
  0.102870470725E+02  0.187381314586E-01  0.982287250729E-01
  0.102870470725E+02  0.627905195293E-02  0.998026728428E-01
  0.102870470725E+02 -0.627905195293E-02  0.998026728428E-01
  0.102870470725E+02 -0.187381314586E-01  0.982287250729E-01
  0.102870470725E+02 -0.309016994375E-01  0.951056516295E-01
  0.102870470725E+02 -0.425779291565E-01  0.904827052466E-01
  0.102870470725E+02 -0.535826794979E-01  0.844327925502E-01
  0.102870470725E+02 -0.637423989749E-01  0.770513242776E-01
  0.102870470725E+02 -0.728968627421E-01  0.684547105929E-01
  0.102870470725E+02 -0.809016994375E-01  0.587785252292E-01
  0.102870470725E+02 -0.876306680044E-01  0.481753674102E-01
  0.102870470725E+02 -0.929776485888E-01  0.368124552685E-01
  0.102870470725E+02 -0.968583161129E-01  0.248689887165E-01
  0.102870470725E+02 -0.992114701314E-01  0.125333233564E-01
  0.102870470725E+02 -0.100000000000E+00  0.122464679915E-16
  0.990604532906E+01  0.133333333333E+00  0.000000000000E+00
  0.990604532906E+01  0.132281960175E+00  0.167110978086E-01
  0.990604532906E+01  0.129144421484E+00  0.331586516220E-01
  0.990604532906E+01  0.123970198118E+00  0.490832736913E-01
  0.990604532906E+01  0.116840890673E+00  0.642338232136E-01
  0.990604532906E+01  0.107868932583E+00  0.783713669723E-01
  0.990604532906E+01  0.971958169895E-01  0.912729474572E-01
  0.990604532906E+01  0.849898652998E-01  0.102735099037E+00
  0.990604532906E+01  0.714435726639E-01  0.112577056734E+00
  0.990604532906E+01  0.567705722087E-01  0.120643606995E+00
  0.990604532906E+01  0.412022659167E-01  0.126807535506E+00
  0.990604532906E+01  0.249841752781E-01  0.130971633430E+00
  0.990604532906E+01  0.837206927058E-02  0.133070230457E+00
  0.990604532906E+01 -0.837206927058E-02  0.133070230457E+00
  0.990604532906E+01 -0.249841752781E-01  0.130971633430E+00
  0.990604532906E+01 -0.412022659167E-01  0.126807535506E+00
  0.990604532906E+01 -0.567705722087E-01  0.120643606995E+00
  0.990604532906E+01 -0.714435726639E-01  0.112577056734E+00
  0.990604532906E+01 -0.849898652998E-01  0.102735099037E+00
  0.990604532906E+01 -0.971958169895E-01  0.912729474572E-01
  0.990604532906E+01 -0.107868932583E+00  0.783713669723E-01
  0.990604532906E+01 -0.116840890673E+00  0.642338232136E-01
  0.990604532906E+01 -0.123970198118E+00  0.490832736913E-01
  0.990604532906E+01 -0.129144421484E+00  0.331586516220E-01
  0.990604532906E+01 -0.132281960175E+00  0.167110978086E-01
  0.990604532906E+01 -0.133333333333E+00  0.163286239886E-16
  0.952504358563E+01  0.166666666667E+00  0.000000000000E+00
  0.952504358563E+01  0.165352450219E+00  0.208888722607E-01
  0.952504358563E+01  0.161430526855E+00  0.414483145275E-01
  0.952504358563E+01  0.154962747648E+00  0.613540921141E-01
  0.952504358563E+01  0.146051113341E+00  0.802922790170E-01
  0.952504358563E+01  0.134836165729E+00  0.979642087154E-01
  0.952504358563E+01  0.121494771237E+00  0.114091184321E+00
  0.952504358563E+01  0.106237331625E+00  0.128418873796E+00
  0.952504358563E+01  0.893044658298E-01  0.140721320917E+00
  0.952504358563E+01  0.709632152608E-01  0.150804508744E+00
  0.952504358563E+01  0.515028323958E-01  0.158509419383E+00
  0.952504358563E+01  0.312302190976E-01  0.163714541788E+00
  0.952504358563E+01  0.104650865882E-01  0.166337788071E+00
  0.952504358563E+01 -0.104650865882E-01  0.166337788071E+00
  0.952504358563E+01 -0.312302190976E-01  0.163714541788E+00
  0.952504358563E+01 -0.515028323958E-01  0.158509419383E+00
  0.952504358563E+01 -0.709632152608E-01  0.150804508744E+00
  0.952504358563E+01 -0.893044658298E-01  0.140721320917E+00
  0.952504358563E+01 -0.106237331625E+00  0.128418873796E+00
  0.952504358563E+01 -0.121494771237E+00  0.114091184321E+00
  0.952504358563E+01 -0.134836165729E+00  0.979642087154E-01
  0.952504358563E+01 -0.146051113341E+00  0.802922790170E-01
  0.952504358563E+01 -0.154962747648E+00  0.613540921141E-01
  0.952504358563E+01 -0.161430526855E+00  0.414483145275E-01
  0.952504358563E+01 -0.165352450219E+00  0.208888722607E-01
  0.952504358563E+01 -0.166666666667E+00  0.204107799858E-16
  0.914404184221E+01  0.200000000000E+00  0.000000000000E+00
  0.914404184221E+01  0.198422940263E+00  0.250666467129E-01
  0.914404184221E+01  0.193716632226E+00  0.497379774330E-01
  0.914404184221E+01  0.185955297178E+00  0.736249105369E-01
  0.914404184221E+01  0.175261336009E+00  0.963507348203E-01
  0.914404184221E+01  0.161803398875E+00  0.117557050458E+00
  0.914404184221E+01  0.145793725484E+00  0.136909421186E+00
  0.914404184221E+01  0.127484797950E+00  0.154102648555E+00
  0.914404184221E+01  0.107165358996E+00  0.168865585100E+00
  0.914404184221E+01  0.851558583130E-01  0.180965410493E+00
  0.914404184221E+01  0.618033988750E-01  0.190211303259E+00
  0.914404184221E+01  0.374762629171E-01  0.196457450146E+00
  0.914404184221E+01  0.125581039059E-01  0.199605345686E+00
  0.914404184221E+01 -0.125581039059E-01  0.199605345686E+00
  0.914404184221E+01 -0.374762629171E-01  0.196457450146E+00
  0.914404184221E+01 -0.618033988750E-01  0.190211303259E+00
  0.914404184221E+01 -0.851558583130E-01  0.180965410493E+00
  0.914404184221E+01 -0.107165358996E+00  0.168865585100E+00
  0.914404184221E+01 -0.127484797950E+00  0.154102648555E+00
  0.914404184221E+01 -0.145793725484E+00  0.136909421186E+00
  0.914404184221E+01 -0.161803398875E+00  0.117557050458E+00
  0.914404184221E+01 -0.175261336009E+00  0.963507348203E-01
  0.914404184221E+01 -0.185955297178E+00  0.736249105369E-01
  0.914404184221E+01 -0.193716632226E+00  0.497379774330E-01
  0.914404184221E+01 -0.198422940263E+00  0.250666467129E-01
  0.914404184221E+01 -0.200000000000E+00  0.244929359829E-16
  0.876304009878E+01  0.233333333333E+00  0.000000000000E+00
  0.876304009878E+01  0.231493430307E+00  0.292444211650E-01
  0.876304009878E+01  0.226002737597E+00  0.580276403385E-01
  0.876304009878E+01  0.216947846707E+00  0.858957289598E-01
[...]
CELL_DATA                1475
SCALARS C_p_ise float 1
LOOKUP_TABLE default
  0.296594913073E-01
  0.296594912703E-01
  0.296594912718E-01
  0.296594912734E-01
  0.296594912703E-01
  0.296594912681E-01
  0.296594912698E-01
  0.296594912717E-01
  0.296594912731E-01
  0.296594912709E-01
  0.296594912693E-01
  0.296594912691E-01
  0.296594912693E-01
  0.296594912699E-01
  0.296594912701E-01
  0.296594912710E-01
  0.296594912741E-01
  0.296594912748E-01
  0.296594912731E-01
  0.296594912699E-01
  0.296594912696E-01
  0.296594912728E-01
  0.296594912727E-01
  0.296594912701E-01
  0.296594912245E-01
  0.296594907833E-01
  0.296594908857E-01
  0.296594908463E-01
  0.296594908392E-01
  0.296594908456E-01
  0.296594908602E-01
  0.296594908590E-01
  0.296594908506E-01
  0.296594908513E-01
  0.296594908626E-01
  0.296594908590E-01
  0.296594908549E-01
  0.296594908556E-01
  0.296594908524E-01
  0.296594908559E-01
  0.296594908606E-01
  0.296594908608E-01
  0.296594908576E-01
  0.296594908578E-01
  0.296594908649E-01
  0.296594908606E-01
  0.296594908527E-01
  0.296594908513E-01
  0.296594908477E-01
  0.296594908493E-01
  0.296594908537E-01
  0.296594908559E-01
  0.296594908605E-01
  0.296594908559E-01
  0.296594908414E-01
  0.296594908420E-01
  0.296594908413E-01
  0.296594908446E-01
  0.296594908447E-01
  0.296594908473E-01
  0.296594908530E-01
  0.296594908519E-01
  0.296594908534E-01
  0.296594908483E-01
  0.296594908427E-01
  0.296594908453E-01
  0.296594908538E-01
  0.296594908536E-01
  0.296594908431E-01
  0.296594908422E-01
  0.296594908396E-01
  0.296594908442E-01
  0.296594908657E-01
  0.296594908799E-01
  0.296594910592E-01
  0.296594908869E-01
  0.296594908861E-01
  0.296594908847E-01
  0.296594909042E-01
  0.296594909022E-01
  0.296594908720E-01
  0.296594908752E-01
  0.296594908733E-01
  0.296594908728E-01
  0.296594908809E-01
  0.296594908799E-01
  0.296594908742E-01
  0.296594908727E-01
  0.296594908681E-01
  0.296594908683E-01
  0.296594908573E-01
  0.296594908618E-01
  0.296594908756E-01
  0.296594908741E-01
  0.296594908712E-01
  0.296594908746E-01
  0.296594909015E-01
  0.296594908991E-01
  0.296594909069E-01
  0.296594909031E-01
  0.296594908818E-01
  0.296594908835E-01
  0.296594908738E-01
  0.296594908740E-01
  0.296594908908E-01
  0.296594908873E-01
  0.296594908907E-01
  0.296594908916E-01
  0.296594908811E-01
  0.296594908828E-01
  0.296594908783E-01
  0.296594908820E-01
  0.296594908968E-01
  0.296594908900E-01
  0.296594908794E-01
  0.296594908799E-01
  0.296594908792E-01
  0.296594908802E-01
  0.296594908717E-01
  0.296594908694E-01
  0.296594908802E-01
  0.296594908868E-01
  0.296594909010E-01
  0.296594909292E-01
  0.296594909637E-01
  0.296594908336E-01
  0.296594908161E-01
  0.296594908178E-01
  0.296594908406E-01
  0.296594908436E-01
  0.296594908511E-01
  0.296594908445E-01
  0.296594908181E-01
  0.296594908188E-01
  0.296594908293E-01
  0.296594908316E-01
  0.296594908437E-01
  0.296594908399E-01
  0.296594908326E-01
  0.296594908388E-01
  0.296594908867E-01
  0.296594908795E-01
  0.296594908129E-01
  0.296594908117E-01
  0.296594907947E-01
  0.296594907974E-01
  0.296594907958E-01
  0.296594907881E-01
  0.296594907143E-01
  0.296594907246E-01
  0.296594908127E-01
  0.296594908142E-01
  0.296594908430E-01
  0.296594908471E-01
  0.296594908877E-01
  0.296594908793E-01
  0.296594908211E-01
  0.296594908251E-01
  0.296594908422E-01
  0.296594908382E-01
  0.296594908127E-01
  0.296594908124E-01
  0.296594907906E-01
  0.296594907961E-01
  0.296594908615E-01
  0.296594908584E-01
  0.296594908476E-01
  0.296594908455E-01
  0.296594908247E-01
  0.296594908218E-01
  0.296594908293E-01
  0.296594908300E-01
  0.296594907736E-01
  0.296594908077E-01
  0.296594908292E-01
  0.296594910067E-01
  0.296594910988E-01
  0.296594910987E-01
  0.296594911052E-01
  0.296594911052E-01
  0.296594910492E-01
  0.296594910448E-01
  0.296594910549E-01
  0.296594910488E-01
  0.296594910224E-01
  0.296594910316E-01
  0.296594910804E-01
  0.296594910743E-01
  0.296594910384E-01
  0.296594910409E-01
  0.296594910174E-01
  0.296594910254E-01
  0.296594911005E-01
  0.296594910854E-01
  0.296594910457E-01
  0.296594910449E-01
  0.296594910355E-01
  0.296594910335E-01
  0.296594910865E-01
  0.296594910854E-01
  0.296594910774E-01
  0.296594910840E-01
  0.296594910168E-01
  0.296594910207E-01
  0.296594909812E-01
  0.296594909812E-01
  0.296594910057E-01
  0.296594910048E-01
  0.296594910348E-01
  0.296594910419E-01
  0.296594911200E-01
  0.296594911061E-01
  0.296594910161E-01
  0.296594910197E-01
  0.296594910298E-01
  0.296594910377E-01
  0.296594910526E-01
  0.296594910564E-01
  0.296594911244E-01
  0.296594911068E-01
  0.296594910015E-01
  0.296594910163E-01
  0.296594911340E-01
  0.296594911750E-01
  0.296594913092E-01
  0.296594904557E-01
  0.296594904420E-01
  0.296594904425E-01
  0.296594903368E-01
  0.296594903389E-01
  0.296594903535E-01
  0.296594903541E-01
  0.296594904783E-01
  0.296594904770E-01
  0.296594905177E-01
  0.296594905195E-01
  0.296594904701E-01
  0.296594904650E-01
  0.296594904153E-01
  0.296594904050E-01
  0.296594903085E-01
  0.296594903269E-01
  0.296594904702E-01
  0.296594904745E-01
  0.296594905960E-01
  0.296594905719E-01
  0.296594903652E-01
  0.296594903764E-01
  0.296594905332E-01
  0.296594905266E-01
  0.296594904018E-01
  0.296594904080E-01
  0.296594904137E-01
  0.296594904173E-01
  0.296594904971E-01
  0.296594904954E-01
  0.296594905246E-01
  0.296594905243E-01
  0.296594905013E-01
  0.296594904990E-01
  0.296594903589E-01
  0.296594903623E-01
  0.296594904568E-01
  0.296594904500E-01
  0.296594904465E-01
  0.296594904545E-01
  0.296594904430E-01
  0.296594904374E-01
  0.296594903144E-01
  0.296594903209E-01
  0.296594905019E-01
  0.296594904968E-01
  0.296594904067E-01
  0.296594904735E-01
  0.296594906137E-01
  0.296594910907E-01
  0.296594912112E-01
  0.296594912225E-01
  0.296594913781E-01
  0.296594913614E-01
  0.296594912421E-01
  0.296594912520E-01
  0.296594913537E-01
  0.296594913656E-01
  0.296594913891E-01
  0.296594913789E-01
  0.296594911734E-01
  0.296594911681E-01
  0.296594912245E-01
  0.296594912113E-01
  0.296594912327E-01
  0.296594912512E-01
  0.296594913652E-01
  0.296594913688E-01
  0.296594911901E-01
  0.296594911947E-01
  0.296594914240E-01
  0.296594914030E-01
  0.296594912273E-01
  0.296594912453E-01
  0.296594913797E-01
  0.296594913690E-01
  0.296594912956E-01
  0.296594912964E-01
  0.296594912523E-01
  0.296594912630E-01
  0.296594913295E-01
  0.296594913301E-01
  0.296594913069E-01
  0.296594912974E-01
  0.296594912326E-01
  0.296594912227E-01
  0.296594912153E-01
  0.296594912165E-01
  0.296594912079E-01
  0.296594912131E-01
  0.296594911816E-01
  0.296594911911E-01
  0.296594914014E-01
  0.296594913852E-01
  0.296594912367E-01
  0.296594912417E-01
  0.296594911591E-01
  0.296594912337E-01
  0.296594914402E-01
  0.296594908757E-01
  0.296594908625E-01
  0.296594908739E-01
  0.296594907379E-01
  0.296594907483E-01
  0.296594909747E-01
  0.296594909696E-01
  0.296594908836E-01
  0.296594908895E-01
  0.296594906827E-01
  0.296594906886E-01
  0.296594909032E-01
  0.296594908964E-01
  0.296594911097E-01
  0.296594910915E-01
  0.296594909504E-01
  0.296594909507E-01
  0.296594906532E-01
  0.296594906692E-01
  0.296594907234E-01
  0.296594907231E-01
  0.296594908554E-01
  0.296594908483E-01
  0.296594907931E-01
  0.296594908005E-01
  0.296594908442E-01
  0.296594908450E-01
  0.296594908613E-01
  0.296594908425E-01
  0.296594906347E-01
  0.296594906532E-01
  0.296594908200E-01
  0.296594908191E-01
  0.296594907219E-01
  0.296594907322E-01
  0.296594910556E-01
  0.296594910194E-01
  0.296594907001E-01
  0.296594907261E-01
  0.296594911078E-01
  0.296594911096E-01
  0.296594910679E-01
  0.296594910514E-01
  0.296594906990E-01
  0.296594907195E-01
  0.296594910263E-01
  0.296594910246E-01
  0.296594910954E-01
  0.296594911692E-01
  0.296594912526E-01
  0.296594907068E-01
  0.296594903553E-01
  0.296594903607E-01
  0.296594902710E-01
  0.296594902729E-01
  0.296594902827E-01
  0.296594902916E-01
  0.296594902737E-01
  0.296594902782E-01
  0.296594903528E-01
  0.296594903508E-01
  0.296594904523E-01
  0.296594904592E-01
  0.296594904492E-01
  0.296594904562E-01
  0.296594906436E-01
  0.296594906325E-01
  0.296594905991E-01
  0.296594905809E-01
  0.296594903375E-01
  0.296594903470E-01
  0.296594904519E-01
  0.296594904439E-01
  0.296594902794E-01
  0.296594902681E-01
  0.296594900121E-01
  0.296594900417E-01
  0.296594904837E-01
  0.296594904880E-01
  0.296594908605E-01
  0.296594908470E-01
  0.296594905401E-01
  0.296594905530E-01
  0.296594905957E-01
  0.296594905886E-01
  0.296594904024E-01
  0.296594904015E-01
  0.296594906351E-01
  0.296594906103E-01
  0.296594901094E-01
  0.296594901285E-01
  0.296594899893E-01
  0.296594899984E-01
  0.296594904802E-01
  0.296594904734E-01
  0.296594904086E-01
  0.296594904247E-01
  0.296594903785E-01
  0.296594904760E-01
  0.296594908005E-01
  0.296594908380E-01
  0.296594907630E-01
  0.296594907572E-01
  0.296594909373E-01
  0.296594909522E-01
  0.296594913001E-01
  0.296594912869E-01
  0.296594908563E-01
  0.296594908625E-01
  0.296594909142E-01
  0.296594909057E-01
  0.296594906978E-01
  0.296594907038E-01
  0.296594905750E-01
  0.296594905980E-01
  0.296594909136E-01
  0.296594908925E-01
  0.296594904938E-01
  0.296594904901E-01
  0.296594908023E-01
  0.296594907984E-01
  0.296594908154E-01
  0.296594908188E-01
  0.296594909163E-01
  0.296594909077E-01
  0.296594911436E-01
  0.296594911413E-01
  0.296594908206E-01
  0.296594908288E-01
  0.296594904092E-01
  0.296594904348E-01
  0.296594907615E-01
  0.296594907624E-01
  0.296594908793E-01
  0.296594908639E-01
  0.296594906583E-01
  0.296594906627E-01
  0.296594909718E-01
  0.296594909709E-01
  0.296594911602E-01
  0.296594911519E-01
  0.296594911907E-01
  0.296594911591E-01
  0.296594905407E-01
  0.296594905920E-01
  0.296594911575E-01
  0.296594911621E-01
  0.296594910162E-01
  0.296594910980E-01
  0.296594908512E-01
  0.296594909656E-01
  0.296594914826E-01
  0.296594914574E-01
  0.296594911338E-01
  0.296594911458E-01
  0.296594908856E-01
  0.296594909155E-01
  0.296594914352E-01
  0.296594913981E-01
  0.296594909645E-01
  0.296594909800E-01
  0.296594914273E-01
  0.296594914220E-01
  0.296594914146E-01
  0.296594913993E-01
  0.296594907383E-01
  0.296594907512E-01
  0.296594911154E-01
  0.296594911080E-01
  0.296594914701E-01
  0.296594914589E-01
  0.296594909611E-01
  0.296594909906E-01
  0.296594915210E-01
  0.296594915007E-01
  0.296594911475E-01
  0.296594911399E-01
  0.296594907692E-01
  0.296594907953E-01
  0.296594915279E-01
  0.296594915052E-01
  0.296594909546E-01
  0.296594909726E-01
  0.296594909700E-01
  0.296594909741E-01
  0.296594912554E-01
  0.296594912716E-01
  0.296594917470E-01
  0.296594917271E-01
  0.296594909897E-01
  0.296594909958E-01
  0.296594910910E-01
  0.296594910937E-01
  0.296594917700E-01
  0.296594917348E-01
  0.296594906024E-01
  0.296594906402E-01
  0.296594907135E-01
  0.296594908411E-01
  0.296594919637E-01
  0.296594910913E-01
  0.296594908762E-01
  0.296594908723E-01
  0.296594907969E-01
  0.296594907737E-01
  0.296594903199E-01
  0.296594903356E-01
  0.296594902928E-01
  0.296594903213E-01
  0.296594912599E-01
  0.296594912190E-01
  0.296594903967E-01
  0.296594904338E-01
  0.296594909189E-01
  0.296594909059E-01
  0.296594909642E-01
  0.296594909569E-01
  0.296594912156E-01
  0.296594912165E-01
  0.296594910103E-01
  0.296594909954E-01
  0.296594905146E-01
  0.296594905334E-01
  0.296594908316E-01
  0.296594908407E-01
  0.296594909342E-01
  0.296594909203E-01
  0.296594911614E-01
  0.296594911380E-01
  0.296594904032E-01
  0.296594904416E-01
  0.296594910428E-01
  0.296594910602E-01
  0.296594916481E-01
  0.296594916155E-01
  0.296594907736E-01
  0.296594907729E-01
  0.296594900772E-01
  0.296594901125E-01
  0.296594908595E-01
  0.296594908183E-01
  0.296594905385E-01
  0.296594905606E-01
  0.296594909027E-01
  0.296594909160E-01
  0.296594912915E-01
  0.296594912638E-01
  0.296594909969E-01
  0.296594910498E-01
  0.296594892515E-01
  0.296594903255E-01
  0.296594900024E-01
  0.296594900014E-01
  0.296594903069E-01
  0.296594903057E-01
  0.296594909369E-01
  0.296594909109E-01
  0.296594903625E-01
  0.296594903859E-01
  0.296594903073E-01
  0.296594903031E-01
  0.296594902005E-01
  0.296594901968E-01
  0.296594900688E-01
  0.296594900803E-01
  0.296594901660E-01
  0.296594901526E-01
  0.296594899382E-01
  0.296594899698E-01
  0.296594904550E-01
  0.296594904671E-01
  0.296594913659E-01
  0.296594913293E-01
  0.296594904684E-01
  0.296594904760E-01
  0.296594901146E-01
  0.296594901548E-01
  0.296594914056E-01
  0.296594913782E-01
  0.296594910153E-01
  0.296594910092E-01
  0.296594906960E-01
  0.296594906843E-01
  0.296594893054E-01
  0.296594893654E-01
  0.296594910416E-01
  0.296594909837E-01
  0.296594904684E-01
  0.296594904508E-01
  0.296594898878E-01
  0.296594899196E-01
  0.296594909331E-01
  0.296594909124E-01
  0.296594901466E-01
  0.296594901685E-01
  0.296594900112E-01
  0.296594900422E-01
  0.296594911018E-01
  0.296594912323E-01
  0.296594934629E-01
  0.296594912143E-01
  0.296594904968E-01
  0.296594904892E-01
  0.296594906617E-01
  0.296594906930E-01
  0.296594912377E-01
  0.296594912537E-01
  0.296594917049E-01
  0.296594916809E-01
  0.296594909906E-01
  0.296594909933E-01
  0.296594912657E-01
  0.296594912654E-01
  0.296594914679E-01
  0.296594914941E-01
  0.296594920285E-01
  0.296594919880E-01
  0.296594911630E-01
  0.296594911740E-01
  0.296594908507E-01
  0.296594909012E-01
  0.296594914109E-01
  0.296594913912E-01
  0.296594908734E-01
  0.296594908752E-01
  0.296594916491E-01
  0.296594916198E-01
  0.296594901343E-01
  0.296594901580E-01
  0.296594901886E-01
  0.296594901691E-01
  0.296594901998E-01
  0.296594902348E-01
  0.296594918347E-01
  0.296594917959E-01
  0.296594906177E-01
  0.296594906545E-01
  0.296594914008E-01
  0.296594913707E-01
  0.296594915875E-01
  0.296594915954E-01
  0.296594915573E-01
  0.296594915750E-01
  0.296594915191E-01
  0.296594915326E-01
  0.296594921326E-01
  0.296594920993E-01
  0.296594905346E-01
  0.296594907001E-01
  0.296594905005E-01
  0.296594910390E-01
  0.296594912909E-01
  0.296594912765E-01
  0.296594918482E-01
  0.296594918623E-01
  0.296594911828E-01
  0.296594911949E-01
  0.296594904994E-01
  0.296594904886E-01
  0.296594903886E-01
  0.296594903781E-01
  0.296594907350E-01
  0.296594907433E-01
  0.296594907009E-01
  0.296594907202E-01
  0.296594903057E-01
  0.296594902913E-01
  0.296594904739E-01
  0.296594904495E-01
  0.296594903072E-01
  0.296594903044E-01
  0.296594891062E-01
  0.296594891399E-01
  0.296594901439E-01
  0.296594901186E-01
  0.296594898878E-01
  0.296594899225E-01
  0.296594909483E-01
  0.296594909390E-01
  0.296594915777E-01
  0.296594915468E-01
  0.296594911830E-01
  0.296594911899E-01
  0.296594903405E-01
  0.296594903416E-01
  0.296594897803E-01
  0.296594897939E-01
  0.296594903873E-01
  0.296594903691E-01
  0.296594899102E-01
  0.296594899112E-01
  0.296594894760E-01
  0.296594895488E-01
  0.296594911896E-01
  0.296594911643E-01
  0.296594900994E-01
  0.296594901155E-01
  0.296594908994E-01
  0.296594909748E-01
  0.296594900443E-01
  0.296594906746E-01
  0.296594912319E-01
  0.296594912094E-01
  0.296594906921E-01
  0.296594907314E-01
  0.296594908998E-01
  0.296594909366E-01
  0.296594924259E-01
  0.296594923432E-01
  0.296594908585E-01
  0.296594908333E-01
  0.296594904871E-01
  0.296594905494E-01
  0.296594918397E-01
  0.296594918391E-01
  0.296594912669E-01
  0.296594912562E-01
  0.296594918153E-01
  0.296594917918E-01
  0.296594916245E-01
  0.296594916396E-01
  0.296594923512E-01
  0.296594923565E-01
  0.296594927590E-01
  0.296594927999E-01
  0.296594937810E-01
  0.296594937721E-01
  0.296594926656E-01
  0.296594926768E-01
  0.296594922149E-01
  0.296594921854E-01
  0.296594915429E-01
  0.296594915235E-01
  0.296594910990E-01
  0.296594911151E-01
  0.296594924862E-01
  0.296594924714E-01
  0.296594921871E-01
  0.296594921933E-01
  0.296594923201E-01
  0.296594923239E-01
  0.296594929037E-01
  0.296594929068E-01
  0.296594912084E-01
  0.296594912467E-01
  0.296594914616E-01
  0.296594914379E-01
  0.296594913436E-01
  0.296594915376E-01
  0.296594943762E-01
  0.296594911777E-01
  0.296594908751E-01
  0.296594908476E-01
  0.296594900870E-01
  0.296594900989E-01
  0.296594897452E-01
  0.296594897472E-01
  0.296594884201E-01
  0.296594884743E-01
  0.296594914051E-01
  0.296594913230E-01
  0.296594910222E-01
  0.296594910073E-01
  0.296594888318E-01
  0.296594889563E-01
  0.296594917081E-01
  0.296594916701E-01
  0.296594913764E-01
  0.296594913719E-01
  0.296594914027E-01
  0.296594913782E-01
  0.296594902445E-01
  0.296594902381E-01
  0.296594890935E-01
  0.296594891385E-01
  0.296594888454E-01
  0.296594888251E-01
  0.296594874054E-01
  0.296594874288E-01
  0.296594890073E-01
  0.296594889894E-01
  0.296594898696E-01
  0.296594898786E-01
  0.296594914973E-01
  0.296594914575E-01
  0.296594900653E-01
  0.296594900783E-01
  0.296594895396E-01
  0.296594895637E-01
  0.296594904556E-01
  0.296594904415E-01
  0.296594897152E-01
  0.296594897399E-01
  0.296594898386E-01
  0.296594898117E-01
  0.296594894710E-01
  0.296594894444E-01
  0.296594891213E-01
  0.296594892119E-01
  0.296594858993E-01
  0.296594905902E-01
  0.296594918821E-01
  0.296594918513E-01
  0.296594920576E-01
  0.296594920671E-01
  0.296594927878E-01
  0.296594927674E-01
  0.296594923599E-01
  0.296594923630E-01
  0.296594919822E-01
  0.296594920058E-01
  0.296594926002E-01
  0.296594925711E-01
  0.296594923936E-01
  0.296594924055E-01
  0.296594907709E-01
  0.296594908094E-01
  0.296594905684E-01
  0.296594905516E-01
  0.296594904352E-01
  0.296594904022E-01
  0.296594900750E-01
  0.296594899926E-01
  0.296594885334E-01
  0.296594885775E-01
  0.296594897597E-01
  0.296594897976E-01
  0.296594921432E-01
  0.296594920822E-01
  0.296594906372E-01
  0.296594907182E-01
  0.296594925032E-01
  0.296594924872E-01
  0.296594906822E-01
  0.296594907409E-01
  0.296594924731E-01
  0.296594924077E-01
  0.296594911412E-01
  0.296594911803E-01
  0.296594922741E-01
  0.296594922300E-01
  0.296594902337E-01
  0.296594902680E-01
  0.296594913708E-01
  0.296594913340E-01
  0.296594908813E-01
  0.296594908955E-01
  0.296594926863E-01
  0.296594928673E-01
  0.296594963747E-01
  0.296594925428E-01
  0.296594928142E-01
  0.296594927783E-01
  0.296594912208E-01
  0.296594912576E-01
  0.296594920552E-01
  0.296594920369E-01
  0.296594913505E-01
  0.296594913366E-01
  0.296594911386E-01
  0.296594911049E-01
  0.296594893861E-01
  0.296594893747E-01
  0.296594893964E-01
  0.296594894359E-01
  0.296594906451E-01
  0.296594905817E-01
  0.296594885398E-01
  0.296594885245E-01
  0.296594888320E-01
  0.296594888562E-01
  0.296594910940E-01
  0.296594910728E-01
  0.296594936849E-01
  0.296594936678E-01
  0.296594929466E-01
  0.296594929921E-01
  0.296594920239E-01
  0.296594920346E-01
  0.296594922032E-01
  0.296594921675E-01
  0.296594893792E-01
  0.296594894410E-01
  0.296594904287E-01
  0.296594904608E-01
  0.296594913835E-01
  0.296594913355E-01
  0.296594901487E-01
  0.296594901573E-01
  0.296594903690E-01
  0.296594904347E-01
  0.296594933435E-01
  0.296594932414E-01
  0.296594903059E-01
  0.296594903882E-01
  0.296594936291E-01
  0.296594935219E-01
  0.296594895054E-01
  0.296594896695E-01
  0.296594871480E-01
  0.296594881070E-01
  0.296594870553E-01
  0.296594870428E-01
  0.296594876695E-01
  0.296594876366E-01
  0.296594865544E-01
  0.296594866084E-01
  0.296594885922E-01
  0.296594885477E-01
  0.296594880804E-01
  0.296594880297E-01
  0.296594875775E-01
  0.296594876149E-01
  0.296594913365E-01
  0.296594913435E-01
  0.296594900569E-01
  0.296594900346E-01
  0.296594903652E-01
  0.296594902540E-01
  0.296594886700E-01
  0.296594887399E-01
  0.296594901974E-01
  0.296594902558E-01