# vtk DataFile Version 3.0
MachLine results file. Generated by MachLine, USU AeroLab (c) 2022.
ASCII
DATASET POLYDATA
POINTS                 781 float
  0.114300523028E+02  0.000000000000E+00  0.000000000000E+00
  0.110490505593E+02  0.333333333333E-01  0.000000000000E+00
  0.110490505593E+02  0.330704900438E-01  0.417777445214E-02
  0.110490505593E+02  0.322861053710E-01  0.828966290550E-02
  0.110490505593E+02  0.309925495296E-01  0.122708184228E-01
  0.110490505593E+02  0.292102226681E-01  0.160584558034E-01
  0.110490505593E+02  0.269672331458E-01  0.195928417431E-01
  0.110490505593E+02  0.242989542474E-01  0.228182368643E-01
  0.110490505593E+02  0.212474663250E-01  0.256837747592E-01
  0.110490505593E+02  0.178608931660E-01  0.281442641834E-01
  0.110490505593E+02  0.141926430522E-01  0.301609017489E-01
  0.110490505593E+02  0.103005664792E-01  0.317018838765E-01
  0.110490505593E+02  0.624604381952E-02  0.327429083576E-01
  0.110490505593E+02  0.209301731764E-02  0.332675576143E-01
  0.110490505593E+02 -0.209301731764E-02  0.332675576143E-01
  0.110490505593E+02 -0.624604381952E-02  0.327429083576E-01
  0.110490505593E+02 -0.103005664792E-01  0.317018838765E-01
  0.110490505593E+02 -0.141926430522E-01  0.301609017489E-01
  0.110490505593E+02 -0.178608931660E-01  0.281442641834E-01
  0.110490505593E+02 -0.212474663250E-01  0.256837747592E-01
  0.110490505593E+02 -0.242989542474E-01  0.228182368643E-01
  0.110490505593E+02 -0.269672331458E-01  0.195928417431E-01
  0.110490505593E+02 -0.292102226681E-01  0.160584558034E-01
  0.110490505593E+02 -0.309925495296E-01  0.122708184228E-01
  0.110490505593E+02 -0.322861053710E-01  0.828966290550E-02
  0.110490505593E+02 -0.330704900438E-01  0.417777445214E-02
  0.110490505593E+02 -0.333333333333E-01  0.408215599716E-17
  0.106680488159E+02  0.666666666667E-01  0.000000000000E+00
  0.106680488159E+02  0.661409800876E-01  0.835554890429E-02
  0.106680488159E+02  0.645722107419E-01  0.165793258110E-01
  0.106680488159E+02  0.619850990592E-01  0.245416368456E-01
  0.106680488159E+02  0.584204453363E-01  0.321169116068E-01
  0.106680488159E+02  0.539344662917E-01  0.391856834862E-01
  0.106680488159E+02  0.485979084948E-01  0.456364737286E-01
  0.106680488159E+02  0.424949326499E-01  0.513675495184E-01
  0.106680488159E+02  0.357217863319E-01  0.562885283668E-01
  0.106680488159E+02  0.283852861043E-01  0.603218034977E-01
  0.106680488159E+02  0.206011329583E-01  0.634037677530E-01
  0.106680488159E+02  0.124920876390E-01  0.654858167152E-01
  0.106680488159E+02  0.418603463529E-02  0.665351152286E-01
  0.106680488159E+02 -0.418603463529E-02  0.665351152286E-01
  0.106680488159E+02 -0.124920876390E-01  0.654858167152E-01
  0.106680488159E+02 -0.206011329583E-01  0.634037677530E-01
  0.106680488159E+02 -0.283852861043E-01  0.603218034977E-01
  0.106680488159E+02 -0.357217863319E-01  0.562885283668E-01
  0.106680488159E+02 -0.424949326499E-01  0.513675495184E-01
  0.106680488159E+02 -0.485979084948E-01  0.456364737286E-01
  0.106680488159E+02 -0.539344662917E-01  0.391856834862E-01
  0.106680488159E+02 -0.584204453363E-01  0.321169116068E-01
  0.106680488159E+02 -0.619850990592E-01  0.245416368456E-01
  0.106680488159E+02 -0.645722107419E-01  0.165793258110E-01
  0.106680488159E+02 -0.661409800876E-01  0.835554890429E-02
  0.106680488159E+02 -0.666666666667E-01  0.816431199432E-17
  0.102870470725E+02  0.100000000000E+00  0.000000000000E+00
  0.102870470725E+02  0.992114701314E-01  0.125333233564E-01
  0.102870470725E+02  0.968583161129E-01  0.248689887165E-01
  0.102870470725E+02  0.929776485888E-01  0.368124552685E-01
  0.102870470725E+02  0.876306680044E-01  0.481753674102E-01
  0.102870470725E+02  0.809016994375E-01  0.587785252292E-01
  0.102870470725E+02  0.728968627421E-01  0.684547105929E-01
  0.102870470725E+02  0.637423989749E-01  0.770513242776E-01
  0.102870470725E+02  0.535826794979E-01  0.844327925502E-01
  0.102870470725E+02  0.425779291565E-01  0.904827052466E-01
  0.102870470725E+02  0.309016994375E-01  0.951056516295E-01
  0.102870470725E+02  0.187381314586E-01  0.982287250729E-01
  0.102870470725E+02  0.627905195293E-02  0.998026728428E-01
  0.102870470725E+02 -0.627905195293E-02  0.998026728428E-01
  0.102870470725E+02 -0.187381314586E-01  0.982287250729E-01
  0.102870470725E+02 -0.309016994375E-01  0.951056516295E-01
  0.102870470725E+02 -0.425779291565E-01  0.904827052466E-01
  0.102870470725E+02 -0.535826794979E-01  0.844327925502E-01
  0.102870470725E+02 -0.637423989749E-01  0.770513242776E-01
  0.102870470725E+02 -0.728968627421E-01  0.684547105929E-01
  0.102870470725E+02 -0.809016994375E-01  0.587785252292E-01
  0.102870470725E+02 -0.876306680044E-01  0.481753674102E-01
  0.102870470725E+02 -0.929776485888E-01  0.368124552685E-01
  0.102870470725E+02 -0.968583161129E-01  0.248689887165E-01
  0.102870470725E+02 -0.992114701314E-01  0.125333233564E-01
  0.102870470725E+02 -0.100000000000E+00  0.122464679915E-16
  0.990604532906E+01  0.133333333333E+00  0.000000000000E+00
  0.990604532906E+01  0.132281960175E+00  0.167110978086E-01
  0.990604532906E+01  0.129144421484E+00  0.331586516220E-01
  0.990604532906E+01  0.123970198118E+00  0.490832736913E-01
  0.990604532906E+01  0.116840890673E+00  0.642338232136E-01
  0.990604532906E+01  0.107868932583E+00  0.783713669723E-01
  0.990604532906E+01  0.971958169895E-01  0.912729474572E-01
  0.990604532906E+01  0.849898652998E-01  0.102735099037E+00
  0.990604532906E+01  0.714435726639E-01  0.112577056734E+00
  0.990604532906E+01  0.567705722087E-01  0.120643606995E+00
  0.990604532906E+01  0.412022659167E-01  0.126807535506E+00
  0.990604532906E+01  0.249841752781E-01  0.130971633430E+00
  0.990604532906E+01  0.837206927058E-02  0.133070230457E+00
  0.990604532906E+01 -0.837206927058E-02  0.133070230457E+00
  0.990604532906E+01 -0.249841752781E-01  0.130971633430E+00
  0.990604532906E+01 -0.412022659167E-01  0.126807535506E+00
  0.990604532906E+01 -0.567705722087E-01  0.120643606995E+00
  0.990604532906E+01 -0.714435726639E-01  0.112577056734E+00
  0.990604532906E+01 -0.849898652998E-01  0.102735099037E+00
  0.990604532906E+01 -0.971958169895E-01  0.912729474572E-01
  0.990604532906E+01 -0.107868932583E+00  0.783713669723E-01
  0.990604532906E+01 -0.116840890673E+00  0.642338232136E-01
  0.990604532906E+01 -0.123970198118E+00  0.490832736913E-01
  0.990604532906E+01 -0.129144421484E+00  0.331586516220E-01
  0.990604532906E+01 -0.132281960175E+00  0.167110978086E-01
  0.990604532906E+01 -0.133333333333E+00  0.163286239886E-16
  0.952504358563E+01  0.166666666667E+00  0.000000000000E+00
  0.952504358563E+01  0.165352450219E+00  0.208888722607E-01
  0.952504358563E+01  0.161430526855E+00  0.414483145275E-01
  0.952504358563E+01  0.154962747648E+00  0.613540921141E-01
  0.952504358563E+01  0.146051113341E+00  0.802922790170E-01
  0.952504358563E+01  0.134836165729E+00  0.979642087154E-01
  0.952504358563E+01  0.121494771237E+00  0.114091184321E+00
  0.952504358563E+01  0.106237331625E+00  0.128418873796E+00
  0.952504358563E+01  0.893044658298E-01  0.140721320917E+00
  0.952504358563E+01  0.709632152608E-01  0.150804508744E+00
  0.952504358563E+01  0.515028323958E-01  0.158509419383E+00
  0.952504358563E+01  0.312302190976E-01  0.163714541788E+00
  0.952504358563E+01  0.104650865882E-01  0.166337788071E+00
  0.952504358563E+01 -0.104650865882E-01  0.166337788071E+00
  0.952504358563E+01 -0.312302190976E-01  0.163714541788E+00
  0.952504358563E+01 -0.515028323958E-01  0.158509419383E+00
  0.952504358563E+01 -0.709632152608E-01  0.150804508744E+00
  0.952504358563E+01 -0.893044658298E-01  0.140721320917E+00
  0.952504358563E+01 -0.106237331625E+00  0.128418873796E+00
  0.952504358563E+01 -0.121494771237E+00  0.114091184321E+00
  0.952504358563E+01 -0.134836165729E+00  0.979642087154E-01
  0.952504358563E+01 -0.146051113341E+00  0.802922790170E-01
  0.952504358563E+01 -0.154962747648E+00  0.613540921141E-01
  0.952504358563E+01 -0.161430526855E+00  0.414483145275E-01
  0.952504358563E+01 -0.165352450219E+00  0.208888722607E-01
  0.952504358563E+01 -0.166666666667E+00  0.204107799858E-16
  0.914404184221E+01  0.200000000000E+00  0.000000000000E+00
  0.914404184221E+01  0.198422940263E+00  0.250666467129E-01
  0.914404184221E+01  0.193716632226E+00  0.497379774330E-01
  0.914404184221E+01  0.185955297178E+00  0.736249105369E-01
  0.914404184221E+01  0.175261336009E+00  0.963507348203E-01
  0.914404184221E+01  0.161803398875E+00  0.117557050458E+00
  0.914404184221E+01  0.145793725484E+00  0.136909421186E+00
  0.914404184221E+01  0.127484797950E+00  0.154102648555E+00
  0.914404184221E+01  0.107165358996E+00  0.168865585100E+00
  0.914404184221E+01  0.851558583130E-01  0.180965410493E+00
  0.914404184221E+01  0.618033988750E-01  0.190211303259E+00
  0.914404184221E+01  0.374762629171E-01  0.196457450146E+00
  0.914404184221E+01  0.125581039059E-01  0.199605345686E+00
  0.914404184221E+01 -0.125581039059E-01  0.199605345686E+00
  0.914404184221E+01 -0.374762629171E-01  0.196457450146E+00
  0.914404184221E+01 -0.618033988750E-01  0.190211303259E+00
  0.914404184221E+01 -0.851558583130E-01  0.180965410493E+00
  0.914404184221E+01 -0.107165358996E+00  0.168865585100E+00
  0.914404184221E+01 -0.127484797950E+00  0.154102648555E+00
  0.914404184221E+01 -0.145793725484E+00  0.136909421186E+00
  0.914404184221E+01 -0.161803398875E+00  0.117557050458E+00
  0.914404184221E+01 -0.175261336009E+00  0.963507348203E-01
  0.914404184221E+01 -0.185955297178E+00  0.736249105369E-01
  0.914404184221E+01 -0.193716632226E+00  0.497379774330E-01
  0.914404184221E+01 -0.198422940263E+00  0.250666467129E-01
  0.914404184221E+01 -0.200000000000E+00  0.244929359829E-16
  0.876304009878E+01  0.233333333333E+00  0.000000000000E+00
  0.876304009878E+01  0.231493430307E+00  0.292444211650E-01
  0.876304009878E+01  0.226002737597E+00  0.580276403385E-01
  0.876304009878E+01  0.216947846707E+00  0.858957289598E-01
[...]
CELL_DATA                1475
SCALARS C_p_ise float 1
LOOKUP_TABLE default
  0.288323385922E-01
  0.288323385531E-01
  0.288323385539E-01
  0.288323385547E-01
  0.288323385564E-01
  0.288323385547E-01
  0.288323385522E-01
  0.288323385549E-01
  0.288323385571E-01
  0.288323385561E-01
  0.288323385536E-01
  0.288323385539E-01
  0.288323385545E-01
  0.288323385534E-01
  0.288323385537E-01
  0.288323385548E-01
  0.288323385561E-01
  0.288323385554E-01
  0.288323385537E-01
  0.288323385542E-01
  0.288323385549E-01
  0.288323385546E-01
  0.288323385542E-01
  0.288323385542E-01
  0.288323385065E-01
  0.288323380545E-01
  0.288323381568E-01
  0.288323381196E-01
  0.288323381254E-01
  0.288323381228E-01
  0.288323381127E-01
  0.288323381126E-01
  0.288323381099E-01
  0.288323381106E-01
  0.288323381074E-01
  0.288323381090E-01
  0.288323381190E-01
  0.288323381153E-01
  0.288323381117E-01
  0.288323381125E-01
  0.288323381069E-01
  0.288323381102E-01
  0.288323381135E-01
  0.288323381118E-01
  0.288323381099E-01
  0.288323381084E-01
  0.288323381113E-01
  0.288323381132E-01
  0.288323381179E-01
  0.288323381156E-01
  0.288323381068E-01
  0.288323381068E-01
  0.288323381105E-01
  0.288323381106E-01
  0.288323381101E-01
  0.288323381100E-01
  0.288323381066E-01
  0.288323381113E-01
  0.288323381212E-01
  0.288323381197E-01
  0.288323381170E-01
  0.288323381151E-01
  0.288323381148E-01
  0.288323381143E-01
  0.288323381113E-01
  0.288323381115E-01
  0.288323381101E-01
  0.288323381136E-01
  0.288323381249E-01
  0.288323381253E-01
  0.288323381277E-01
  0.288323381231E-01
  0.288323381092E-01
  0.288323381319E-01
  0.288323383432E-01
  0.288323381562E-01
  0.288323381563E-01
  0.288323381479E-01
  0.288323381210E-01
  0.288323381273E-01
  0.288323381621E-01
  0.288323381561E-01
  0.288323381430E-01
  0.288323381462E-01
  0.288323381634E-01
  0.288323381636E-01
  0.288323381615E-01
  0.288323381595E-01
  0.288323381516E-01
  0.288323381533E-01
  0.288323381638E-01
  0.288323381639E-01
  0.288323381572E-01
  0.288323381575E-01
  0.288323381618E-01
  0.288323381587E-01
  0.288323381537E-01
  0.288323381571E-01
  0.288323381598E-01
  0.288323381585E-01
  0.288323381559E-01
  0.288323381514E-01
  0.288323381434E-01
  0.288323381455E-01
  0.288323381490E-01
  0.288323381490E-01
  0.288323381502E-01
  0.288323381497E-01
  0.288323381294E-01
  0.288323381346E-01
  0.288323381518E-01
  0.288323381484E-01
  0.288323381449E-01
  0.288323381447E-01
  0.288323381465E-01
  0.288323381498E-01
  0.288323381705E-01
  0.288323381664E-01
  0.288323381306E-01
  0.288323381312E-01
  0.288323381137E-01
  0.288323381202E-01
  0.288323381712E-01
  0.288323381961E-01
  0.288323382303E-01
  0.288323380888E-01
  0.288323381315E-01
  0.288323381252E-01
  0.288323381403E-01
  0.288323381357E-01
  0.288323380968E-01
  0.288323380982E-01
  0.288323381020E-01
  0.288323381027E-01
  0.288323381035E-01
  0.288323381068E-01
  0.288323381041E-01
  0.288323380937E-01
  0.288323380373E-01
  0.288323380401E-01
  0.288323380588E-01
  0.288323380646E-01
  0.288323380904E-01
  0.288323380889E-01
  0.288323380853E-01
  0.288323380805E-01
  0.288323380636E-01
  0.288323380643E-01
  0.288323380523E-01
  0.288323380584E-01
  0.288323381059E-01
  0.288323380963E-01
  0.288323380643E-01
  0.288323380677E-01
  0.288323380886E-01
  0.288323380917E-01
  0.288323381084E-01
  0.288323381081E-01
  0.288323381079E-01
  0.288323381042E-01
  0.288323380703E-01
  0.288323380750E-01
  0.288323381084E-01
  0.288323381036E-01
  0.288323380771E-01
  0.288323380792E-01
  0.288323380677E-01
  0.288323380687E-01
  0.288323380754E-01
  0.288323380770E-01
  0.288323381345E-01
  0.288323381296E-01
  0.288323380747E-01
  0.288323381069E-01
  0.288323380866E-01
  0.288323382884E-01
  0.288323382691E-01
  0.288323382803E-01
  0.288323383824E-01
  0.288323383709E-01
  0.288323382894E-01
  0.288323382842E-01
  0.288323382743E-01
  0.288323382736E-01
  0.288323382563E-01
  0.288323382582E-01
  0.288323382457E-01
  0.288323382460E-01
  0.288323383460E-01
  0.288323383397E-01
  0.288323383309E-01
  0.288323383370E-01
  0.288323383150E-01
  0.288323383096E-01
  0.288323382422E-01
  0.288323382437E-01
  0.288323383037E-01
  0.288323383064E-01
  0.288323383468E-01
  0.288323383535E-01
  0.288323383741E-01
  0.288323383651E-01
  0.288323383092E-01
  0.288323383086E-01
  0.288323383138E-01
  0.288323383209E-01
  0.288323383294E-01
  0.288323383354E-01
  0.288323383706E-01
  0.288323383609E-01
  0.288323383074E-01
  0.288323383075E-01
  0.288323383097E-01
  0.288323383178E-01
  0.288323383903E-01
  0.288323383755E-01
  0.288323382577E-01
  0.288323382701E-01
  0.288323383873E-01
  0.288323383815E-01
  0.288323383055E-01
  0.288323383138E-01
  0.288323383588E-01
  0.288323383977E-01
  0.288323385286E-01
  0.288323377235E-01
  0.288323378598E-01
  0.288323378478E-01
  0.288323376159E-01
  0.288323376218E-01
  0.288323376892E-01
  0.288323376804E-01
  0.288323377413E-01
  0.288323377431E-01
  0.288323377828E-01
  0.288323377817E-01
  0.288323377701E-01
  0.288323377760E-01
  0.288323378520E-01
  0.288323378536E-01
  0.288323378174E-01
  0.288323378176E-01
  0.288323377639E-01
  0.288323377577E-01
  0.288323377750E-01
  0.288323377738E-01
  0.288323378276E-01
  0.288323378328E-01
  0.288323377869E-01
  0.288323377857E-01
  0.288323376504E-01
  0.288323376496E-01
  0.288323377144E-01
  0.288323377182E-01
  0.288323378351E-01
  0.288323378350E-01
  0.288323377497E-01
  0.288323377504E-01
  0.288323376815E-01
  0.288323376838E-01
  0.288323377734E-01
  0.288323377641E-01
  0.288323377263E-01
  0.288323377327E-01
  0.288323377124E-01
  0.288323377134E-01
  0.288323377988E-01
  0.288323377791E-01
  0.288323375704E-01
  0.288323375925E-01
  0.288323377565E-01
  0.288323377553E-01
  0.288323377437E-01
  0.288323377824E-01
  0.288323377251E-01
  0.288323383832E-01
  0.288323384732E-01
  0.288323384798E-01
  0.288323385607E-01
  0.288323385564E-01
  0.288323386962E-01
  0.288323386825E-01
  0.288323385382E-01
  0.288323385465E-01
  0.288323385585E-01
  0.288323385500E-01
  0.288323384059E-01
  0.288323384021E-01
  0.288323382903E-01
  0.288323383133E-01
  0.288323385031E-01
  0.288323385032E-01
  0.288323385447E-01
  0.288323385416E-01
  0.288323386456E-01
  0.288323386264E-01
  0.288323383712E-01
  0.288323383935E-01
  0.288323385518E-01
  0.288323385483E-01
  0.288323385726E-01
  0.288323385563E-01
  0.288323385155E-01
  0.288323385102E-01
  0.288323383157E-01
  0.288323383379E-01
  0.288323384912E-01
  0.288323384847E-01
  0.288323384932E-01
  0.288323384904E-01
  0.288323385055E-01
  0.288323385192E-01
  0.288323387110E-01
  0.288323387020E-01
  0.288323385444E-01
  0.288323385481E-01
  0.288323386062E-01
  0.288323385999E-01
  0.288323386746E-01
  0.288323386562E-01
  0.288323383757E-01
  0.288323384040E-01
  0.288323385936E-01
  0.288323386544E-01
  0.288323389539E-01
  0.288323379878E-01
  0.288323379116E-01
  0.288323379244E-01
  0.288323379135E-01
  0.288323379147E-01
  0.288323379049E-01
  0.288323379248E-01
  0.288323382684E-01
  0.288323382472E-01
  0.288323379717E-01
  0.288323379844E-01
  0.288323382899E-01
  0.288323382803E-01
  0.288323383596E-01
  0.288323383554E-01
  0.288323380748E-01
  0.288323380915E-01
  0.288323381222E-01
  0.288323381232E-01
  0.288323381354E-01
  0.288323381278E-01
  0.288323381826E-01
  0.288323381698E-01
  0.288323379384E-01
  0.288323379644E-01
  0.288323382241E-01
  0.288323382206E-01
  0.288323383838E-01
  0.288323383532E-01
  0.288323380194E-01
  0.288323380336E-01
  0.288323381378E-01
  0.288323381423E-01
  0.288323381305E-01
  0.288323381317E-01
  0.288323381797E-01
  0.288323381724E-01
  0.288323378423E-01
  0.288323378682E-01
  0.288323381718E-01
  0.288323381613E-01
  0.288323381296E-01
  0.288323381288E-01
  0.288323381425E-01
  0.288323381283E-01
  0.288323381051E-01
  0.288323381143E-01
  0.288323381515E-01
  0.288323382514E-01
  0.288323386209E-01
  0.288323382439E-01
  0.288323378276E-01
  0.288323378421E-01
  0.288323379582E-01
  0.288323379474E-01
  0.288323377561E-01
  0.288323377579E-01
  0.288323374602E-01
  0.288323374835E-01
  0.288323378495E-01
  0.288323378480E-01
  0.288323379169E-01
  0.288323379030E-01
  0.288323374835E-01
  0.288323375024E-01
  0.288323378057E-01
  0.288323377900E-01
  0.288323375545E-01
  0.288323375389E-01
  0.288323372237E-01
  0.288323372476E-01
  0.288323377695E-01
  0.288323377393E-01
  0.288323373809E-01
  0.288323373900E-01
  0.288323373641E-01
  0.288323373793E-01
  0.288323374032E-01
  0.288323374039E-01
  0.288323377509E-01
  0.288323377354E-01
  0.288323376081E-01
  0.288323376246E-01
  0.288323377083E-01
  0.288323376879E-01
  0.288323373360E-01
  0.288323373601E-01
  0.288323378370E-01
  0.288323378212E-01
  0.288323374880E-01
  0.288323374943E-01
  0.288323374371E-01
  0.288323374452E-01
  0.288323376333E-01
  0.288323376306E-01
  0.288323378105E-01
  0.288323378095E-01
  0.288323376627E-01
  0.288323377742E-01
  0.288323379280E-01
  0.288323380799E-01
  0.288323382171E-01
  0.288323382073E-01
  0.288323382107E-01
  0.288323382242E-01
  0.288323385573E-01
  0.288323385486E-01
  0.288323385632E-01
  0.288323385446E-01
  0.288323380805E-01
  0.288323380866E-01
  0.288323378228E-01
  0.288323378420E-01
  0.288323383944E-01
  0.288323383688E-01
  0.288323379928E-01
  0.288323380040E-01
  0.288323381789E-01
  0.288323381476E-01
  0.288323381114E-01
  0.288323381270E-01
  0.288323383196E-01
  0.288323383297E-01
  0.288323385107E-01
  0.288323384870E-01
  0.288323382639E-01
  0.288323382631E-01
  0.288323379882E-01
  0.288323380081E-01
  0.288323383480E-01
  0.288323383505E-01
  0.288323383047E-01
  0.288323382983E-01
  0.288323380062E-01
  0.288323380278E-01
  0.288323387320E-01
  0.288323386990E-01
  0.288323380096E-01
  0.288323380243E-01
  0.288323380669E-01
  0.288323380549E-01
  0.288323380795E-01
  0.288323380845E-01
  0.288323380895E-01
  0.288323381185E-01
  0.288323385117E-01
  0.288323384956E-01
  0.288323380059E-01
  0.288323381304E-01
  0.288323385411E-01
  0.288323378918E-01
  0.288323382709E-01
  0.288323382468E-01
  0.288323377928E-01
  0.288323378144E-01
  0.288323379782E-01
  0.288323379920E-01
  0.288323380952E-01
  0.288323380906E-01
  0.288323383708E-01
  0.288323383633E-01
  0.288323385912E-01
  0.288323385835E-01
  0.288323383110E-01
  0.288323383097E-01
  0.288323382089E-01
  0.288323381971E-01
  0.288323381273E-01
  0.288323381419E-01
  0.288323389134E-01
  0.288323388860E-01
  0.288323380246E-01
  0.288323380600E-01
  0.288323383807E-01
  0.288323383651E-01
  0.288323383367E-01
  0.288323383227E-01
  0.288323382921E-01
  0.288323383099E-01
  0.288323385695E-01
  0.288323385746E-01
  0.288323382550E-01
  0.288323382606E-01
  0.288323385638E-01
  0.288323385532E-01
  0.288323381990E-01
  0.288323382193E-01
  0.288323385596E-01
  0.288323385389E-01
  0.288323385592E-01
  0.288323385613E-01
  0.288323388086E-01
  0.288323388031E-01
  0.288323385543E-01
  0.288323385360E-01
  0.288323375349E-01
  0.288323375738E-01
  0.288323382957E-01
  0.288323383956E-01
  0.288323384226E-01
  0.288323387843E-01
  0.288323384872E-01
  0.288323384738E-01
  0.288323383067E-01
  0.288323382960E-01
  0.288323380509E-01
  0.288323380863E-01
  0.288323384043E-01
  0.288323383974E-01
  0.288323382297E-01
  0.288323382037E-01
  0.288323374693E-01
  0.288323374804E-01
  0.288323376625E-01
  0.288323376610E-01
  0.288323379537E-01
  0.288323379558E-01
  0.288323383850E-01
  0.288323383832E-01
  0.288323380829E-01
  0.288323380753E-01
  0.288323376855E-01
  0.288323377023E-01
  0.288323382187E-01
  0.288323382263E-01
  0.288323384081E-01
  0.288323383985E-01
  0.288323385290E-01
  0.288323385017E-01
  0.288323374949E-01
  0.288323375290E-01
  0.288323379098E-01
  0.288323378933E-01
  0.288323377333E-01
  0.288323377387E-01
  0.288323377764E-01
  0.288323377958E-01
  0.288323381638E-01
  0.288323381626E-01
  0.288323382393E-01
  0.288323382172E-01
  0.288323376403E-01
  0.288323376845E-01
  0.288323385580E-01
  0.288323385360E-01
  0.288323387264E-01
  0.288323386972E-01
  0.288323382283E-01
  0.288323383015E-01
  0.288323368970E-01
  0.288323373887E-01
  0.288323376396E-01
  0.288323375937E-01
  0.288323371039E-01
  0.288323371010E-01
  0.288323374809E-01
  0.288323375271E-01
  0.288323380638E-01
  0.288323380515E-01
  0.288323375730E-01
  0.288323375612E-01
  0.288323380994E-01
  0.288323380844E-01
  0.288323382293E-01
  0.288323382225E-01
  0.288323378926E-01
  0.288323378896E-01
  0.288323374454E-01
  0.288323374605E-01
  0.288323374158E-01
  0.288323373996E-01
  0.288323375104E-01
  0.288323375300E-01
  0.288323380212E-01
  0.288323380252E-01
  0.288323373746E-01
  0.288323373838E-01
  0.288323376562E-01
  0.288323376669E-01
  0.288323384782E-01
  0.288323384590E-01
  0.288323382206E-01
  0.288323382199E-01
  0.288323382034E-01
  0.288323382080E-01
  0.288323383621E-01
  0.288323383328E-01
  0.288323370737E-01
  0.288323370960E-01
  0.288323372840E-01
  0.288323373017E-01
  0.288323382135E-01
  0.288323382178E-01
  0.288323378461E-01
  0.288323378828E-01
  0.288323383997E-01
  0.288323383458E-01
  0.288323375209E-01
  0.288323376681E-01
  0.288323400277E-01
  0.288323385895E-01
  0.288323376228E-01
  0.288323376176E-01
  0.288323384432E-01
  0.288323384572E-01
  0.288323394410E-01
  0.288323394566E-01
  0.288323382204E-01
  0.288323382230E-01
  0.288323380449E-01
  0.288323380271E-01
  0.288323383826E-01
  0.288323383886E-01
  0.288323383739E-01
  0.288323383830E-01
  0.288323386572E-01
  0.288323386432E-01
  0.288323387022E-01
  0.288323386727E-01
  0.288323379462E-01
  0.288323379751E-01
  0.288323392434E-01
  0.288323392305E-01
  0.288323382347E-01
  0.288323382878E-01
  0.288323390842E-01
  0.288323390498E-01
  0.288323385771E-01
  0.288323385859E-01
  0.288323382408E-01
  0.288323382477E-01
  0.288323380776E-01
  0.288323380570E-01
  0.288323377738E-01
  0.288323378048E-01
  0.288323385369E-01
  0.288323385501E-01
  0.288323395282E-01
  0.288323394653E-01
  0.288323385235E-01
  0.288323385391E-01
  0.288323382795E-01
  0.288323383058E-01
  0.288323379158E-01
  0.288323379669E-01
  0.288323387594E-01
  0.288323387321E-01
  0.288323388928E-01
  0.288323389609E-01
  0.288323377161E-01
  0.288323382533E-01
  0.288323379914E-01
  0.288323379959E-01
  0.288323393179E-01
  0.288323392987E-01
  0.288323374498E-01
  0.288323375033E-01
  0.288323375468E-01
  0.288323375243E-01
  0.288323381215E-01
  0.288323380549E-01
  0.288323368290E-01
  0.288323368870E-01
  0.288323380169E-01
  0.288323380259E-01
  0.288323380379E-01
  0.288323380114E-01
  0.288323373547E-01
  0.288323373872E-01
  0.288323391254E-01
  0.288323390760E-01
  0.288323375826E-01
  0.288323376146E-01
  0.288323375544E-01
  0.288323375589E-01
  0.288323372156E-01
  0.288323372326E-01
  0.288323378683E-01
  0.288323378390E-01
  0.288323372386E-01
  0.288323372637E-01
  0.288323381618E-01
  0.288323381654E-01
  0.288323390501E-01
  0.288323389959E-01
  0.288323368273E-01
  0.288323368574E-01
  0.288323365610E-01
  0.288323365517E-01
  0.288323370556E-01
  0.288323370588E-01
  0.288323377114E-01
  0.288323377231E-01
  0.288323375788E-01
  0.288323375922E-01
  0.288323369149E-01
  0.288323369505E-01
  0.288323379199E-01
  0.288323380132E-01
  0.288323385722E-01
  0.288323379282E-01
  0.288323389218E-01
  0.288323388892E-01
  0.288323380205E-01
  0.288323380809E-01
  0.288323391321E-01
  0.288323391353E-01
  0.288323395532E-01
  0.288323395253E-01
  0.288323393126E-01
  0.288323393167E-01
  0.288323408716E-01
  0.288323408154E-01
  0.288323385841E-01
  0.288323386565E-01
  0.288323394156E-01
  0.288323393894E-01
  0.288323393874E-01
  0.288323393496E-01
  0.288323378692E-01
  0.288323379386E-01
  0.288323397658E-01
  0.288323397510E-01
  0.288323398965E-01
  0.288323399033E-01
  0.288323400391E-01
  0.288323400489E-01
  0.288323401922E-01
  0.288323401979E-01
  0.288323406041E-01
  0.288323405715E-01
  0.288323394192E-01
  0.288323394076E-01
  0.288323379798E-01
  0.288323379893E-01
  0.288323390177E-01
  0.288323389967E-01
  0.288323397323E-01
  0.288323397334E-01
  0.288323403737E-01
  0.288323403835E-01
  0.288323400485E-01
  0.288323400401E-01
  0.288323387180E-01
  0.288323387288E-01
  0.288323388011E-01
  0.288323388357E-01
  0.288323395317E-01
  0.288323396841E-01
  0.288323404764E-01
  0.288323387316E-01
  0.288323387520E-01
  0.288323386829E-01
  0.288323364192E-01
  0.288323364558E-01
  0.288323365968E-01
  0.288323366020E-01
  0.288323355435E-01
  0.288323355713E-01
  0.288323369662E-01
  0.288323369210E-01
  0.288323355220E-01
  0.288323355559E-01
  0.288323368751E-01
  0.288323368895E-01
  0.288323373509E-01
  0.288323373698E-01
  0.288323380494E-01
  0.288323380510E-01
  0.288323393529E-01
  0.288323392892E-01
  0.288323364708E-01
  0.288323365394E-01
  0.288323373466E-01
  0.288323373770E-01
  0.288323380027E-01
  0.288323379422E-01
  0.288323354792E-01
  0.288323354909E-01
  0.288323355366E-01
  0.288323355098E-01
  0.288323352734E-01
  0.288323352987E-01
  0.288323377422E-01
  0.288323376861E-01
  0.288323370410E-01
  0.288323370566E-01
  0.288323371674E-01
  0.288323371828E-01
  0.288323368700E-01
  0.288323369137E-01
  0.288323373503E-01
  0.288323373504E-01
  0.288323379911E-01
  0.288323379335E-01
  0.288323370855E-01
  0.288323370648E-01
  0.288323351631E-01
  0.288323352963E-01
  0.288323339214E-01
  0.288323363360E-01
  0.288323374733E-01
  0.288323374562E-01
  0.288323392572E-01
  0.288323392032E-01
  0.288323384339E-01
  0.288323384545E-01
  0.288323388473E-01
  0.288323388426E-01
  0.288323388295E-01
  0.288323388712E-01
  0.288323404318E-01
  0.288323404128E-01
  0.288323400443E-01
  0.288323400567E-01
  0.288323385863E-01
  0.288323386050E-01
  0.288323381120E-01
  0.288323381398E-01
  0.288323383398E-01
  0.288323383230E-01
  0.288323385824E-01
  0.288323384594E-01
  0.288323347436E-01
  0.288323348336E-01
  0.288323360632E-01
  0.288323360665E-01
  0.288323376339E-01
  0.288323375651E-01
  0.288323373626E-01
  0.288323374116E-01
  0.288323400151E-01
  0.288323399801E-01
  0.288323381197E-01
  0.288323381664E-01
  0.288323391717E-01
  0.288323391378E-01
  0.288323380924E-01
  0.288323381274E-01
  0.288323386943E-01
  0.288323387027E-01
  0.288323377992E-01
  0.288323378297E-01
  0.288323384287E-01
  0.288323383615E-01
  0.288323373472E-01
  0.288323373711E-01
  0.288323398308E-01
  0.288323400013E-01
  0.288323433249E-01
  0.288323392932E-01
  0.288323394935E-01
  0.288323395072E-01
  0.288323394416E-01
  0.288323394490E-01
  0.288323398154E-01
  0.288323398021E-01
  0.288323393611E-01
  0.288323393852E-01
  0.288323400338E-01
  0.288323400439E-01
  0.288323388880E-01
  0.288323388608E-01
  0.288323369039E-01
  0.288323368794E-01
  0.288323358993E-01
  0.288323358655E-01
  0.288323354750E-01
  0.288323354723E-01
  0.288323348660E-01
  0.288323349246E-01
  0.288323375074E-01
  0.288323375133E-01
  0.288323420077E-01
  0.288323418863E-01
  0.288323379937E-01
  0.288323380944E-01
  0.288323403998E-01
  0.288323403715E-01
  0.288323402088E-01
  0.288323401645E-01
  0.288323369295E-01
  0.288323369686E-01
  0.288323369561E-01
  0.288323370203E-01
  0.288323396397E-01
  0.288323396361E-01
  0.288323396943E-01
  0.288323396507E-01
  0.288323378523E-01
  0.288323379139E-01
  0.288323392851E-01
  0.288323392827E-01
  0.288323390212E-01
  0.288323390314E-01
  0.288323412585E-01
  0.288323411421E-01
  0.288323370216E-01
  0.288323371960E-01
  0.288323347386E-01
  0.288323386371E-01
  0.288323366610E-01
  0.288323366923E-01
  0.288323371679E-01
  0.288323371317E-01
  0.288323354990E-01
  0.288323355361E-01
  0.288323371162E-01
  0.288323370618E-01
  0.288323344651E-01
  0.288323344807E-01
  0.288323340137E-01
  0.288323340407E-01
  0.288323373795E-01
  0.288323373277E-01
  0.288323383310E-01
  0.288323382808E-01
  0.288323386732E-01
  0.288323386235E-01
  0.288323372014E-01
  0.288323372429E-01
  0.288323372126E-01
  0.288323372583E-01