# vtk DataFile Version 3.0
MachLine results file. Generated by MachLine, USU AeroLab (c) 2022.
ASCII
DATASET POLYDATA
POINTS                3061 float
  0.572899616308E+02  0.000000000000E+00  0.000000000000E+00
  0.563351289369E+02  0.166666666667E-01  0.000000000000E+00
  0.563351289369E+02  0.166337788071E-01  0.104650865882E-02
  0.563351289369E+02  0.165352450219E-01  0.208888722607E-02
  0.563351289369E+02  0.163714541788E-01  0.312302190976E-02
  0.563351289369E+02  0.161430526855E-01  0.414483145275E-02
  0.563351289369E+02  0.158509419383E-01  0.515028323958E-02
  0.563351289369E+02  0.154962747648E-01  0.613540921141E-02
  0.563351289369E+02  0.150804508744E-01  0.709632152608E-02
  0.563351289369E+02  0.146051113341E-01  0.802922790170E-02
  0.563351289369E+02  0.140721320917E-01  0.893044658298E-02
  0.563351289369E+02  0.134836165729E-01  0.979642087154E-02
  0.563351289369E+02  0.128418873796E-01  0.106237331625E-01
  0.563351289369E+02  0.121494771237E-01  0.114091184321E-01
  0.563351289369E+02  0.114091184321E-01  0.121494771237E-01
  0.563351289369E+02  0.106237331625E-01  0.128418873796E-01
  0.563351289369E+02  0.979642087154E-02  0.134836165729E-01
  0.563351289369E+02  0.893044658298E-02  0.140721320917E-01
  0.563351289369E+02  0.802922790170E-02  0.146051113341E-01
  0.563351289369E+02  0.709632152608E-02  0.150804508744E-01
  0.563351289369E+02  0.613540921141E-02  0.154962747648E-01
  0.563351289369E+02  0.515028323958E-02  0.158509419383E-01
  0.563351289369E+02  0.414483145275E-02  0.161430526855E-01
  0.563351289369E+02  0.312302190976E-02  0.163714541788E-01
  0.563351289369E+02  0.208888722607E-02  0.165352450219E-01
  0.563351289369E+02  0.104650865882E-02  0.166337788071E-01
  0.563351289369E+02 -0.268020441613E-17  0.166666666667E-01
  0.563351289369E+02 -0.104650865882E-02  0.166337788071E-01
  0.563351289369E+02 -0.208888722607E-02  0.165352450219E-01
  0.563351289369E+02 -0.312302190976E-02  0.163714541788E-01
  0.563351289369E+02 -0.414483145275E-02  0.161430526855E-01
  0.563351289369E+02 -0.515028323958E-02  0.158509419383E-01
  0.563351289369E+02 -0.613540921141E-02  0.154962747648E-01
  0.563351289369E+02 -0.709632152608E-02  0.150804508744E-01
  0.563351289369E+02 -0.802922790170E-02  0.146051113341E-01
  0.563351289369E+02 -0.893044658298E-02  0.140721320917E-01
  0.563351289369E+02 -0.979642087154E-02  0.134836165729E-01
  0.563351289369E+02 -0.106237331625E-01  0.128418873796E-01
  0.563351289369E+02 -0.114091184321E-01  0.121494771237E-01
  0.563351289369E+02 -0.121494771237E-01  0.114091184321E-01
  0.563351289369E+02 -0.128418873796E-01  0.106237331625E-01
  0.563351289369E+02 -0.134836165729E-01  0.979642087154E-02
  0.563351289369E+02 -0.140721320917E-01  0.893044658298E-02
  0.563351289369E+02 -0.146051113341E-01  0.802922790170E-02
  0.563351289369E+02 -0.150804508744E-01  0.709632152608E-02
  0.563351289369E+02 -0.154962747648E-01  0.613540921141E-02
  0.563351289369E+02 -0.158509419383E-01  0.515028323958E-02
  0.563351289369E+02 -0.161430526855E-01  0.414483145275E-02
  0.563351289369E+02 -0.163714541788E-01  0.312302190976E-02
  0.563351289369E+02 -0.165352450219E-01  0.208888722607E-02
  0.563351289369E+02 -0.166337788071E-01  0.104650865882E-02
  0.563351289369E+02 -0.166666666667E-01  0.204107799858E-17
  0.553802962431E+02  0.333333333333E-01  0.000000000000E+00
  0.553802962431E+02  0.332675576143E-01  0.209301731764E-02
  0.553802962431E+02  0.330704900438E-01  0.417777445214E-02
  0.553802962431E+02  0.327429083576E-01  0.624604381952E-02
  0.553802962431E+02  0.322861053710E-01  0.828966290550E-02
  0.553802962431E+02  0.317018838765E-01  0.103005664792E-01
  0.553802962431E+02  0.309925495296E-01  0.122708184228E-01
  0.553802962431E+02  0.301609017489E-01  0.141926430522E-01
  0.553802962431E+02  0.292102226681E-01  0.160584558034E-01
  0.553802962431E+02  0.281442641834E-01  0.178608931660E-01
  0.553802962431E+02  0.269672331458E-01  0.195928417431E-01
  0.553802962431E+02  0.256837747592E-01  0.212474663250E-01
  0.553802962431E+02  0.242989542474E-01  0.228182368643E-01
  0.553802962431E+02  0.228182368643E-01  0.242989542474E-01
  0.553802962431E+02  0.212474663250E-01  0.256837747592E-01
  0.553802962431E+02  0.195928417431E-01  0.269672331458E-01
  0.553802962431E+02  0.178608931660E-01  0.281442641834E-01
  0.553802962431E+02  0.160584558034E-01  0.292102226681E-01
  0.553802962431E+02  0.141926430522E-01  0.301609017489E-01
  0.553802962431E+02  0.122708184228E-01  0.309925495296E-01
  0.553802962431E+02  0.103005664792E-01  0.317018838765E-01
  0.553802962431E+02  0.828966290550E-02  0.322861053710E-01
  0.553802962431E+02  0.624604381952E-02  0.327429083576E-01
  0.553802962431E+02  0.417777445214E-02  0.330704900438E-01
  0.553802962431E+02  0.209301731764E-02  0.332675576143E-01
  0.553802962431E+02 -0.536040883226E-17  0.333333333333E-01
  0.553802962431E+02 -0.209301731764E-02  0.332675576143E-01
  0.553802962431E+02 -0.417777445214E-02  0.330704900438E-01
  0.553802962431E+02 -0.624604381952E-02  0.327429083576E-01
  0.553802962431E+02 -0.828966290550E-02  0.322861053710E-01
  0.553802962431E+02 -0.103005664792E-01  0.317018838765E-01
  0.553802962431E+02 -0.122708184228E-01  0.309925495296E-01
  0.553802962431E+02 -0.141926430522E-01  0.301609017489E-01
  0.553802962431E+02 -0.160584558034E-01  0.292102226681E-01
  0.553802962431E+02 -0.178608931660E-01  0.281442641834E-01
  0.553802962431E+02 -0.195928417431E-01  0.269672331458E-01
  0.553802962431E+02 -0.212474663250E-01  0.256837747592E-01
  0.553802962431E+02 -0.228182368643E-01  0.242989542474E-01
  0.553802962431E+02 -0.242989542474E-01  0.228182368643E-01
  0.553802962431E+02 -0.256837747592E-01  0.212474663250E-01
  0.553802962431E+02 -0.269672331458E-01  0.195928417431E-01
  0.553802962431E+02 -0.281442641834E-01  0.178608931660E-01
  0.553802962431E+02 -0.292102226681E-01  0.160584558034E-01
  0.553802962431E+02 -0.301609017489E-01  0.141926430522E-01
  0.553802962431E+02 -0.309925495296E-01  0.122708184228E-01
  0.553802962431E+02 -0.317018838765E-01  0.103005664792E-01
  0.553802962431E+02 -0.322861053710E-01  0.828966290550E-02
  0.553802962431E+02 -0.327429083576E-01  0.624604381952E-02
  0.553802962431E+02 -0.330704900438E-01  0.417777445214E-02
  0.553802962431E+02 -0.332675576143E-01  0.209301731764E-02
  0.553802962431E+02 -0.333333333333E-01  0.408215599716E-17
  0.544254635492E+02  0.500000000000E-01  0.000000000000E+00
  0.544254635492E+02  0.499013364214E-01  0.313952597647E-02
  0.544254635492E+02  0.496057350657E-01  0.626666167822E-02
  0.544254635492E+02  0.491143625364E-01  0.936906572929E-02
  0.544254635492E+02  0.484291580564E-01  0.124344943582E-01
  0.544254635492E+02  0.475528258148E-01  0.154508497187E-01
  0.544254635492E+02  0.464888242944E-01  0.184062276342E-01
  0.544254635492E+02  0.452413526233E-01  0.212889645783E-01
  0.544254635492E+02  0.438153340022E-01  0.240876837051E-01
  0.544254635492E+02  0.422163962751E-01  0.267913397489E-01
  0.544254635492E+02  0.404508497187E-01  0.293892626146E-01
  0.544254635492E+02  0.385256621388E-01  0.318711994874E-01
  0.544254635492E+02  0.364484313711E-01  0.342273552964E-01
  0.544254635492E+02  0.342273552964E-01  0.364484313711E-01
  0.544254635492E+02  0.318711994874E-01  0.385256621388E-01
  0.544254635492E+02  0.293892626146E-01  0.404508497187E-01
  0.544254635492E+02  0.267913397489E-01  0.422163962751E-01
  0.544254635492E+02  0.240876837051E-01  0.438153340022E-01
  0.544254635492E+02  0.212889645783E-01  0.452413526233E-01
  0.544254635492E+02  0.184062276342E-01  0.464888242944E-01
  0.544254635492E+02  0.154508497187E-01  0.475528258148E-01
  0.544254635492E+02  0.124344943582E-01  0.484291580564E-01
  0.544254635492E+02  0.936906572929E-02  0.491143625364E-01
  0.544254635492E+02  0.626666167822E-02  0.496057350657E-01
  0.544254635492E+02  0.313952597647E-02  0.499013364214E-01
  0.544254635492E+02 -0.804061324838E-17  0.500000000000E-01
  0.544254635492E+02 -0.313952597647E-02  0.499013364214E-01
  0.544254635492E+02 -0.626666167822E-02  0.496057350657E-01
  0.544254635492E+02 -0.936906572929E-02  0.491143625364E-01
  0.544254635492E+02 -0.124344943582E-01  0.484291580564E-01
  0.544254635492E+02 -0.154508497187E-01  0.475528258148E-01
  0.544254635492E+02 -0.184062276342E-01  0.464888242944E-01
  0.544254635492E+02 -0.212889645783E-01  0.452413526233E-01
  0.544254635492E+02 -0.240876837051E-01  0.438153340022E-01
  0.544254635492E+02 -0.267913397489E-01  0.422163962751E-01
  0.544254635492E+02 -0.293892626146E-01  0.404508497187E-01
  0.544254635492E+02 -0.318711994874E-01  0.385256621388E-01
  0.544254635492E+02 -0.342273552964E-01  0.364484313711E-01
  0.544254635492E+02 -0.364484313711E-01  0.342273552964E-01
  0.544254635492E+02 -0.385256621388E-01  0.318711994874E-01
  0.544254635492E+02 -0.404508497187E-01  0.293892626146E-01
  0.544254635492E+02 -0.422163962751E-01  0.267913397489E-01
  0.544254635492E+02 -0.438153340022E-01  0.240876837051E-01
  0.544254635492E+02 -0.452413526233E-01  0.212889645783E-01
  0.544254635492E+02 -0.464888242944E-01  0.184062276342E-01
  0.544254635492E+02 -0.475528258148E-01  0.154508497187E-01
  0.544254635492E+02 -0.484291580564E-01  0.124344943582E-01
  0.544254635492E+02 -0.491143625364E-01  0.936906572929E-02
  0.544254635492E+02 -0.496057350657E-01  0.626666167822E-02
  0.544254635492E+02 -0.499013364214E-01  0.313952597647E-02
  0.544254635492E+02 -0.500000000000E-01  0.612323399574E-17
  0.534706308554E+02  0.666666666667E-01  0.000000000000E+00
  0.534706308554E+02  0.665351152286E-01  0.418603463529E-02
  0.534706308554E+02  0.661409800876E-01  0.835554890429E-02
  0.534706308554E+02  0.654858167152E-01  0.124920876390E-01
  0.534706308554E+02  0.645722107419E-01  0.165793258110E-01
  0.534706308554E+02  0.634037677530E-01  0.206011329583E-01
  0.534706308554E+02  0.619850990592E-01  0.245416368456E-01
[...]
CELL_DATA                5950
SCALARS C_p_ise float 1
LOOKUP_TABLE default
  0.191385458883E-02
  0.191385458621E-02
  0.191385458620E-02
  0.191385458621E-02
  0.191385458622E-02
  0.191385458622E-02
  0.191385458620E-02
  0.191385458623E-02
  0.191385458623E-02
  0.191385458621E-02
  0.191385458622E-02
  0.191385458623E-02
  0.191385458624E-02
  0.191385458625E-02
  0.191385458625E-02
  0.191385458622E-02
  0.191385458621E-02
  0.191385458621E-02
  0.191385458621E-02
  0.191385458622E-02
  0.191385458622E-02
  0.191385458619E-02
  0.191385458620E-02
  0.191385458621E-02
  0.191385458621E-02
  0.191385458620E-02
  0.191385458620E-02
  0.191385458620E-02
  0.191385458621E-02
  0.191385458622E-02
  0.191385458622E-02
  0.191385458621E-02
  0.191385458623E-02
  0.191385458623E-02
  0.191385458621E-02
  0.191385458622E-02
  0.191385458624E-02
  0.191385458624E-02
  0.191385458625E-02
  0.191385458625E-02
  0.191385458622E-02
  0.191385458621E-02
  0.191385458622E-02
  0.191385458621E-02
  0.191385458623E-02
  0.191385458622E-02
  0.191385458619E-02
  0.191385458620E-02
  0.191385458620E-02
  0.191385458240E-02
  0.191385455939E-02
  0.191385456709E-02
  0.191385456449E-02
  0.191385456454E-02
  0.191385456453E-02
  0.191385456453E-02
  0.191385456455E-02
  0.191385456461E-02
  0.191385456463E-02
  0.191385456463E-02
  0.191385456460E-02
  0.191385456455E-02
  0.191385456454E-02
  0.191385456457E-02
  0.191385456452E-02
  0.191385456431E-02
  0.191385456438E-02
  0.191385456457E-02
  0.191385456457E-02
  0.191385456465E-02
  0.191385456463E-02
  0.191385456454E-02
  0.191385456456E-02
  0.191385456460E-02
  0.191385456463E-02
  0.191385456470E-02
  0.191385456469E-02
  0.191385456463E-02
  0.191385456459E-02
  0.191385456446E-02
  0.191385456449E-02
  0.191385456465E-02
  0.191385456462E-02
  0.191385456457E-02
  0.191385456459E-02
  0.191385456465E-02
  0.191385456464E-02
  0.191385456462E-02
  0.191385456459E-02
  0.191385456447E-02
  0.191385456449E-02
  0.191385456457E-02
  0.191385456456E-02
  0.191385456460E-02
  0.191385456459E-02
  0.191385456454E-02
  0.191385456456E-02
  0.191385456459E-02
  0.191385456460E-02
  0.191385456466E-02
  0.191385456462E-02
  0.191385456450E-02
  0.191385456451E-02
  0.191385456453E-02
  0.191385456452E-02
  0.191385456452E-02
  0.191385456455E-02
  0.191385456461E-02
  0.191385456462E-02
  0.191385456462E-02
  0.191385456461E-02
  0.191385456458E-02
  0.191385456456E-02
  0.191385456456E-02
  0.191385456451E-02
  0.191385456430E-02
  0.191385456437E-02
  0.191385456457E-02
  0.191385456457E-02
  0.191385456465E-02
  0.191385456461E-02
  0.191385456446E-02
  0.191385456451E-02
  0.191385456459E-02
  0.191385456462E-02
  0.191385456470E-02
  0.191385456469E-02
  0.191385456463E-02
  0.191385456459E-02
  0.191385456446E-02
  0.191385456448E-02
  0.191385456462E-02
  0.191385456460E-02
  0.191385456456E-02
  0.191385456459E-02
  0.191385456465E-02
  0.191385456464E-02
  0.191385456462E-02
  0.191385456459E-02
  0.191385456446E-02
  0.191385456449E-02
  0.191385456457E-02
  0.191385456457E-02
  0.191385456463E-02
  0.191385456461E-02
  0.191385456454E-02
  0.191385456456E-02
  0.191385456463E-02
  0.191385456493E-02
  0.191385457723E-02
  0.191385455987E-02
  0.191385456020E-02
  0.191385456012E-02
  0.191385455988E-02
  0.191385455990E-02
  0.191385455998E-02
  0.191385456001E-02
  0.191385456002E-02
  0.191385455999E-02
  0.191385455970E-02
  0.191385455970E-02
  0.191385455983E-02
  0.191385455981E-02
  0.191385455988E-02
  0.191385455992E-02
  0.191385456033E-02
  0.191385456028E-02
  0.191385456003E-02
  0.191385456002E-02
  0.191385455967E-02
  0.191385455971E-02
  0.191385455990E-02
  0.191385455989E-02
  0.191385455986E-02
  0.191385455989E-02
  0.191385455988E-02
  0.191385455987E-02
  0.191385455974E-02
  0.191385455975E-02
  0.191385456013E-02
  0.191385456011E-02
  0.191385456006E-02
  0.191385456006E-02
  0.191385455995E-02
  0.191385455997E-02
  0.191385456002E-02
  0.191385456001E-02
  0.191385455995E-02
  0.191385455994E-02
  0.191385456005E-02
  0.191385456002E-02
  0.191385455992E-02
  0.191385455994E-02
  0.191385455996E-02
  0.191385455998E-02
  0.191385456008E-02
  0.191385456006E-02
  0.191385455994E-02
  0.191385455994E-02
  0.191385455984E-02
  0.191385455987E-02
  0.191385456014E-02
  0.191385456008E-02
  0.191385455988E-02
  0.191385455991E-02
  0.191385456001E-02
  0.191385456004E-02
  0.191385456002E-02
  0.191385456000E-02
  0.191385455971E-02
  0.191385455971E-02
  0.191385455979E-02
  0.191385455980E-02
  0.191385456001E-02
  0.191385456004E-02
  0.191385456044E-02
  0.191385456035E-02
  0.191385455989E-02
  0.191385455992E-02
  0.191385455973E-02
  0.191385455977E-02
  0.191385456000E-02
  0.191385455997E-02
  0.191385455985E-02
  0.191385455990E-02
  0.191385455988E-02
  0.191385455987E-02
  0.191385455974E-02
  0.191385455976E-02
  0.191385456014E-02
  0.191385456011E-02
  0.191385456008E-02
  0.191385456012E-02
  0.191385456018E-02
  0.191385456017E-02
  0.191385456002E-02
  0.191385456001E-02
  0.191385455994E-02
  0.191385455994E-02
  0.191385456007E-02
  0.191385456003E-02
  0.191385455993E-02
  0.191385455995E-02
  0.191385455993E-02
  0.191385455996E-02
  0.191385456008E-02
  0.191385456007E-02
  0.191385455998E-02
  0.191385456042E-02
  0.191385456096E-02
  0.191385456181E-02
  0.191385456159E-02
  0.191385456160E-02
  0.191385456178E-02
  0.191385456171E-02
  0.191385456136E-02
  0.191385456141E-02
  0.191385456141E-02
  0.191385456147E-02
  0.191385456207E-02
  0.191385456199E-02
  0.191385456177E-02
  0.191385456177E-02
  0.191385456162E-02
  0.191385456165E-02
  0.191385456146E-02
  0.191385456154E-02
  0.191385456190E-02
  0.191385456190E-02
  0.191385456226E-02
  0.191385456218E-02
  0.191385456182E-02
  0.191385456181E-02
  0.191385456154E-02
  0.191385456157E-02
  0.191385456161E-02
  0.191385456167E-02
  0.191385456216E-02
  0.191385456211E-02
  0.191385456182E-02
  0.191385456186E-02
  0.191385456178E-02
  0.191385456173E-02
  0.191385456143E-02
  0.191385456146E-02
  0.191385456171E-02
  0.191385456171E-02
  0.191385456168E-02
  0.191385456168E-02
  0.191385456180E-02
  0.191385456178E-02
  0.191385456173E-02
  0.191385456171E-02
  0.191385456157E-02
  0.191385456154E-02
  0.191385456117E-02
  0.191385456126E-02
  0.191385456185E-02
  0.191385456183E-02
  0.191385456185E-02
  0.191385456185E-02
  0.191385456175E-02
  0.191385456177E-02
  0.191385456196E-02
  0.191385456191E-02
  0.191385456165E-02
  0.191385456168E-02
  0.191385456158E-02
  0.191385456162E-02
  0.191385456209E-02
  0.191385456200E-02
  0.191385456179E-02
  0.191385456178E-02
  0.191385456153E-02
  0.191385456158E-02
  0.191385456143E-02
  0.191385456150E-02
  0.191385456208E-02
  0.191385456203E-02
  0.191385456214E-02
  0.191385456210E-02
  0.191385456190E-02
  0.191385456187E-02
  0.191385456154E-02
  0.191385456158E-02
  0.191385456161E-02
  0.191385456167E-02
  0.191385456217E-02
  0.191385456211E-02
  0.191385456183E-02
  0.191385456187E-02
  0.191385456179E-02
  0.191385456174E-02
  0.191385456114E-02
  0.191385456120E-02
  0.191385456170E-02
  0.191385456167E-02
  0.191385456170E-02
  0.191385456169E-02
  0.191385456173E-02
  0.191385456168E-02
  0.191385456142E-02
  0.191385456144E-02
  0.191385456157E-02
  0.191385456155E-02
  0.191385456119E-02
  0.191385456125E-02
  0.191385456168E-02
  0.191385456232E-02
  0.191385456390E-02
  0.191385455924E-02
  0.191385455939E-02
  0.191385455943E-02
  0.191385455998E-02
  0.191385455988E-02
  0.191385455942E-02
  0.191385455945E-02
  0.191385455979E-02
  0.191385455982E-02
  0.191385455959E-02
  0.191385455961E-02
  0.191385455984E-02
  0.191385455977E-02
  0.191385455948E-02
  0.191385455944E-02
  0.191385455901E-02
  0.191385455903E-02
  0.191385455874E-02
  0.191385455885E-02
  0.191385455937E-02
  0.191385455937E-02
  0.191385455960E-02
  0.191385455957E-02
  0.191385455983E-02
  0.191385455979E-02
  0.191385455945E-02
  0.191385455952E-02
  0.191385455956E-02
  0.191385455953E-02
  0.191385455912E-02
  0.191385455909E-02
  0.191385455891E-02
  0.191385455894E-02
  0.191385455966E-02
  0.191385455960E-02
  0.191385455922E-02
  0.191385455930E-02
  0.191385455969E-02
  0.191385455967E-02
  0.191385455955E-02
  0.191385455947E-02
  0.191385455872E-02
  0.191385455875E-02
  0.191385455925E-02
  0.191385455932E-02
  0.191385456038E-02
  0.191385456024E-02
  0.191385455869E-02
  0.191385455882E-02
  0.191385455943E-02
  0.191385455939E-02
  0.191385455902E-02
  0.191385455910E-02
  0.191385455980E-02
  0.191385455971E-02
  0.191385455916E-02
  0.191385455921E-02
  0.191385455974E-02
  0.191385455975E-02
  0.191385455961E-02
  0.191385455961E-02
  0.191385455984E-02
  0.191385455977E-02
  0.191385455944E-02
  0.191385455940E-02
  0.191385455894E-02
  0.191385455896E-02
  0.191385455872E-02
  0.191385455884E-02
  0.191385455952E-02
  0.191385455950E-02
  0.191385455953E-02
  0.191385455950E-02
  0.191385455984E-02
  0.191385455979E-02
  0.191385455946E-02
  0.191385455952E-02
  0.191385455956E-02
  0.191385455953E-02
  0.191385455912E-02
  0.191385455909E-02
  0.191385455891E-02
  0.191385455893E-02
  0.191385455969E-02
  0.191385455963E-02
  0.191385455929E-02
  0.191385455936E-02
  0.191385455967E-02
  0.191385455966E-02
  0.191385455962E-02
  0.191385455952E-02
  0.191385455905E-02
  0.191385455905E-02
  0.191385455922E-02
  0.191385455933E-02
  0.191385456038E-02
  0.191385456026E-02
  0.191385455896E-02
  0.191385455979E-02
  0.191385456085E-02
  0.191385455976E-02
  0.191385455882E-02
  0.191385455887E-02
  0.191385455877E-02
  0.191385455886E-02
  0.191385456037E-02
  0.191385456025E-02
  0.191385455912E-02
  0.191385455922E-02
  0.191385455947E-02
  0.191385455941E-02
  0.191385455880E-02
  0.191385455886E-02
  0.191385456004E-02
  0.191385456003E-02
  0.191385456072E-02
  0.191385456068E-02
  0.191385456042E-02
  0.191385456039E-02
  0.191385455914E-02
  0.191385455924E-02
  0.191385455969E-02
  0.191385455969E-02
  0.191385455979E-02
  0.191385455978E-02
  0.191385455981E-02
  0.191385455980E-02
  0.191385455932E-02
  0.191385455934E-02
  0.191385455991E-02
  0.191385455992E-02
  0.191385456086E-02
  0.191385456081E-02
  0.191385456027E-02
  0.191385456027E-02
  0.191385455994E-02
  0.191385455989E-02
  0.191385455893E-02
  0.191385455899E-02
  0.191385455943E-02
  0.191385455942E-02
  0.191385456051E-02
  0.191385456035E-02
  0.191385455924E-02
  0.191385455936E-02
  0.191385455939E-02
  0.191385455944E-02
  0.191385456020E-02
  0.191385456016E-02
  0.191385456026E-02
  0.191385456027E-02
  0.191385456013E-02
  0.191385456005E-02
  0.191385455873E-02
  0.191385455885E-02
  0.191385456029E-02
  0.191385456018E-02
  0.191385455902E-02
  0.191385455912E-02
  0.191385455948E-02
  0.191385455941E-02
  0.191385455879E-02
  0.191385455886E-02
  0.191385456004E-02
  0.191385456003E-02
  0.191385456073E-02
  0.191385456068E-02
  0.191385456046E-02
  0.191385456042E-02
  0.191385455903E-02
  0.191385455915E-02
  0.191385455986E-02
  0.191385455983E-02
  0.191385455979E-02
  0.191385455978E-02
  0.191385455982E-02
  0.191385455980E-02
  0.191385455931E-02
  0.191385455934E-02
  0.191385455990E-02
  0.191385455990E-02
  0.191385456072E-02
  0.191385456069E-02
  0.191385456028E-02
  0.191385456024E-02
  0.191385455950E-02
  0.191385455948E-02
  0.191385455889E-02
  0.191385455893E-02
  0.191385455916E-02
  0.191385455918E-02
  0.191385456048E-02
  0.191385456033E-02
  0.191385455925E-02
  0.191385455938E-02
  0.191385455940E-02
  0.191385455945E-02
  0.191385455999E-02
  0.191385456085E-02
  0.191385456276E-02
  0.191385455867E-02
  0.191385455949E-02
  0.191385455948E-02
  0.191385455984E-02
  0.191385455978E-02
  0.191385455783E-02
  0.191385455794E-02
  0.191385455907E-02
  0.191385455909E-02
  0.191385455937E-02
  0.191385455942E-02
  0.191385456049E-02
  0.191385456038E-02
  0.191385455887E-02
  0.191385455895E-02
  0.191385455869E-02
  0.191385455873E-02
  0.191385455894E-02
  0.191385455877E-02
  0.191385455747E-02
  0.191385455758E-02
  0.191385455926E-02
  0.191385455930E-02
  0.191385455929E-02
  0.191385455921E-02
  0.191385455826E-02
  0.191385455833E-02
  0.191385455949E-02
  0.191385455942E-02
  0.191385455884E-02
  0.191385455883E-02
  0.191385455779E-02
  0.191385455782E-02
  0.191385455774E-02
  0.191385455774E-02
  0.191385455839E-02
  0.191385455835E-02
  0.191385455879E-02
  0.191385455869E-02
  0.191385455776E-02
  0.191385455781E-02
  0.191385455791E-02
  0.191385455800E-02
  0.191385455989E-02
  0.191385455980E-02
  0.191385455840E-02
  0.191385455855E-02
  0.191385455979E-02
  0.191385455971E-02
  0.191385455821E-02
  0.191385455826E-02
  0.191385455857E-02
  0.191385455858E-02
  0.191385455993E-02
  0.191385455978E-02
  0.191385455784E-02
  0.191385455795E-02
  0.191385455909E-02
  0.191385455911E-02
  0.191385455938E-02
  0.191385455943E-02
  0.191385456050E-02
  0.191385456031E-02
  0.191385455782E-02
  0.191385455797E-02
  0.191385455870E-02
  0.191385455874E-02
  0.191385455895E-02
  0.191385455879E-02
  0.191385455748E-02
  0.191385455759E-02
  0.191385455912E-02
  0.191385455917E-02
  0.191385455932E-02
  0.191385455924E-02
  0.191385455828E-02
  0.191385455836E-02
  0.191385455952E-02
  0.191385455946E-02
  0.191385455888E-02
  0.191385455886E-02
  0.191385455796E-02
  0.191385455798E-02
  0.191385455773E-02
  0.191385455774E-02
  0.191385455891E-02
  0.191385455882E-02
  0.191385455881E-02
  0.191385455875E-02
  0.191385455808E-02
  0.191385455818E-02
  0.191385455902E-02
  0.191385455906E-02
  0.191385455989E-02
  0.191385455982E-02
  0.191385455842E-02
  0.191385455855E-02
  0.191385455971E-02
  0.191385456065E-02
  0.191385456123E-02
  0.191385456399E-02
  0.191385456290E-02
  0.191385456296E-02
  0.191385456315E-02
  0.191385456322E-02
  0.191385456492E-02
  0.191385456485E-02
  0.191385456459E-02
  0.191385456457E-02
  0.191385456274E-02
  0.191385456276E-02
  0.191385456195E-02
  0.191385456197E-02
  0.191385456265E-02
  0.191385456279E-02
  0.191385456549E-02
  0.191385456542E-02
  0.191385456416E-02
  0.191385456413E-02
  0.191385456576E-02
  0.191385456562E-02
  0.191385456332E-02
  0.191385456343E-02
  0.191385456252E-02
  0.191385456262E-02
  0.191385456511E-02
  0.191385456507E-02
  0.191385456444E-02
  0.191385456441E-02
  0.191385456359E-02
  0.191385456352E-02
  0.191385456344E-02
  0.191385456343E-02
  0.191385456393E-02
  0.191385456393E-02
  0.191385456411E-02
  0.191385456411E-02
  0.191385456408E-02
  0.191385456409E-02
  0.191385456516E-02
  0.191385456518E-02
  0.191385456581E-02
  0.191385456572E-02
  0.191385456291E-02
  0.191385456300E-02
  0.191385456342E-02
  0.191385456338E-02
  0.191385456225E-02
  0.191385456238E-02
  0.191385456415E-02
  0.191385456398E-02
  0.191385456250E-02
  0.191385456257E-02
  0.191385456316E-02
  0.191385456323E-02
  0.191385456491E-02
  0.191385456484E-02
  0.191385456456E-02
  0.191385456454E-02
  0.191385456273E-02
  0.191385456282E-02
  0.191385456323E-02
  0.191385456317E-02
  0.191385456381E-02
  0.191385456388E-02
  0.191385456543E-02
  0.191385456543E-02
  0.191385456415E-02
  0.191385456411E-02
  0.191385456574E-02
  0.191385456561E-02
  0.191385456331E-02
  0.191385456341E-02
  0.191385456250E-02
  0.191385456259E-02
  0.191385456508E-02
  0.191385456504E-02
  0.191385456443E-02
  0.191385456441E-02
  0.191385456358E-02
  0.191385456351E-02
  0.191385456344E-02
  0.191385456342E-02
  0.191385456395E-02
  0.191385456395E-02
  0.191385456414E-02
  0.191385456414E-02
  0.191385456411E-02
  0.191385456411E-02
  0.191385456516E-02
  0.191385456518E-02
  0.191385456466E-02
  0.191385456469E-02
  0.191385456363E-02
  0.191385456361E-02
  0.191385456343E-02
  0.191385456342E-02
  0.191385456285E-02
  0.191385456420E-02
  0.191385456903E-02
  0.191385455780E-02
  0.191385456018E-02
  0.191385455994E-02
  0.191385455603E-02
  0.191385455618E-02
  0.191385455735E-02
  0.191385455732E-02
  0.191385455595E-02
  0.191385455603E-02
  0.191385455795E-02
  0.191385455792E-02
  0.191385455923E-02
  0.191385455915E-02
  0.191385455843E-02
  0.191385455844E-02
  0.191385455545E-02
  0.191385455560E-02
  0.191385455627E-02
  0.191385455628E-02
  0.191385455842E-02
  0.191385455827E-02
  0.191385455612E-02
  0.191385455625E-02
  0.191385455931E-02
  0.191385455919E-02
  0.191385455662E-02
  0.191385455676E-02
  0.191385455689E-02
  0.191385455687E-02
  0.191385455765E-02
  0.191385455767E-02
  0.191385456002E-02
  0.191385456000E-02
  0.191385456003E-02
  0.191385456008E-02
  0.191385456027E-02
  0.191385456023E-02
  0.191385455934E-02
  0.191385455924E-02
  0.191385455757E-02
  0.191385455754E-02
  0.191385455567E-02
  0.191385455583E-02
  0.191385455929E-02
  0.191385455913E-02
  0.191385455804E-02
  0.191385455812E-02
  0.191385455967E-02
  0.191385455967E-02
  0.191385455882E-02
  0.191385455887E-02
  0.191385456055E-02
  0.191385456027E-02
  0.191385455600E-02
  0.191385455618E-02
  0.191385455740E-02
  0.191385455737E-02
  0.191385455596E-02
  0.191385455604E-02
  0.191385455804E-02
  0.191385455793E-02
  0.191385455643E-02
  0.191385455651E-02
  0.191385455848E-02
  0.191385455841E-02
  0.191385455538E-02
  0.191385455553E-02
  0.191385455628E-02
  0.191385455628E-02
  0.191385455845E-02
  0.191385455829E-02
  0.191385455613E-02
  0.191385455627E-02
  0.191385455933E-02
  0.191385455921E-02
  0.191385455659E-02
  0.191385455673E-02
  0.191385455685E-02
  0.191385455683E-02
  0.191385455766E-02
  0.191385455768E-02
  0.191385456002E-02
  0.191385456000E-02
  0.191385456002E-02
  0.191385456007E-02
  0.191385456022E-02
  0.191385456019E-02
  0.191385455934E-02
  0.191385455925E-02
  0.191385455757E-02
  0.191385455755E-02
  0.191385455566E-02
  0.191385455582E-02
  0.191385455860E-02
  0.191385455848E-02
  0.191385455811E-02
  0.191385455817E-02
  0.191385455962E-02
  0.191385456094E-02
  0.191385456096E-02
  0.191385456167E-02
  0.191385456180E-02
  0.191385456179E-02
  0.191385456335E-02
  0.191385456322E-02
  0.191385456210E-02
  0.191385456224E-02
  0.191385456430E-02
  0.191385456427E-02
  0.191385456357E-02
  0.191385456340E-02
  0.191385455863E-02
  0.191385455866E-02
  0.191385455917E-02
  0.191385455933E-02
  0.191385456300E-02
  0.191385456303E-02
  0.191385456411E-02
  0.191385456387E-02
  0.191385455842E-02
  0.191385455864E-02
  0.191385456332E-02
  0.191385456333E-02
  0.191385456347E-02
  0.191385456337E-02
  0.191385456031E-02
  0.191385456024E-02
  0.191385455922E-02
  0.191385455931E-02
  0.191385456130E-02
  0.191385456128E-02
  0.191385455971E-02
  0.191385455978E-02
  0.191385455896E-02
  0.191385455897E-02
  0.191385455830E-02
  0.191385455839E-02
  0.191385456059E-02
  0.191385456041E-02
  0.191385455976E-02
  0.191385455979E-02
  0.191385456254E-02
  0.191385456251E-02
  0.191385456103E-02
  0.191385456097E-02
  0.191385455905E-02
  0.191385455921E-02
  0.191385456194E-02
  0.191385456204E-02
  0.191385456198E-02
  0.191385456192E-02
  0.191385456085E-02
  0.191385456082E-02
  0.191385456351E-02
  0.191385456337E-02
  0.191385456219E-02
  0.191385456234E-02
  0.191385456447E-02
  0.191385456442E-02
  0.191385456365E-02
  0.191385456357E-02
  0.191385456189E-02
  0.191385456175E-02
  0.191385455923E-02
  0.191385455947E-02
  0.191385456321E-02
  0.191385456323E-02
  0.191385456424E-02
  0.191385456400E-02
  0.191385455853E-02
  0.191385455874E-02
  0.191385456345E-02
  0.191385456346E-02
  0.191385456360E-02
  0.191385456350E-02
  0.191385456051E-02
  0.191385456044E-02
  0.191385455941E-02
  0.191385455950E-02
  0.191385456144E-02
  0.191385456137E-02
  0.191385455876E-02
  0.191385455890E-02
  0.191385455911E-02
  0.191385455905E-02
  0.191385455686E-02
  0.191385455703E-02
  0.191385456066E-02
  0.191385456049E-02
  0.191385455997E-02
  0.191385455999E-02
  0.191385456273E-02
  0.191385456270E-02
  0.191385456116E-02
  0.191385456111E-02
  0.191385455919E-02
  0.191385455936E-02
  0.191385456185E-02