# vtk DataFile Version 3.0
MachLine results file. Generated by MachLine, USU AeroLab (c) 2022.
ASCII
DATASET POLYDATA
POINTS                 781 float
  0.572899616308E+02  0.000000000000E+00  0.000000000000E+00
  0.553802962431E+02  0.333333333333E-01  0.000000000000E+00
  0.553802962431E+02  0.330704900438E-01  0.417777445214E-02
  0.553802962431E+02  0.322861053710E-01  0.828966290550E-02
  0.553802962431E+02  0.309925495296E-01  0.122708184228E-01
  0.553802962431E+02  0.292102226681E-01  0.160584558034E-01
  0.553802962431E+02  0.269672331458E-01  0.195928417431E-01
  0.553802962431E+02  0.242989542474E-01  0.228182368643E-01
  0.553802962431E+02  0.212474663250E-01  0.256837747592E-01
  0.553802962431E+02  0.178608931660E-01  0.281442641834E-01
  0.553802962431E+02  0.141926430522E-01  0.301609017489E-01
  0.553802962431E+02  0.103005664792E-01  0.317018838765E-01
  0.553802962431E+02  0.624604381952E-02  0.327429083576E-01
  0.553802962431E+02  0.209301731764E-02  0.332675576143E-01
  0.553802962431E+02 -0.209301731764E-02  0.332675576143E-01
  0.553802962431E+02 -0.624604381952E-02  0.327429083576E-01
  0.553802962431E+02 -0.103005664792E-01  0.317018838765E-01
  0.553802962431E+02 -0.141926430522E-01  0.301609017489E-01
  0.553802962431E+02 -0.178608931660E-01  0.281442641834E-01
  0.553802962431E+02 -0.212474663250E-01  0.256837747592E-01
  0.553802962431E+02 -0.242989542474E-01  0.228182368643E-01
  0.553802962431E+02 -0.269672331458E-01  0.195928417431E-01
  0.553802962431E+02 -0.292102226681E-01  0.160584558034E-01
  0.553802962431E+02 -0.309925495296E-01  0.122708184228E-01
  0.553802962431E+02 -0.322861053710E-01  0.828966290550E-02
  0.553802962431E+02 -0.330704900438E-01  0.417777445214E-02
  0.553802962431E+02 -0.333333333333E-01  0.408215599716E-17
  0.534706308554E+02  0.666666666667E-01  0.000000000000E+00
  0.534706308554E+02  0.661409800876E-01  0.835554890429E-02
  0.534706308554E+02  0.645722107419E-01  0.165793258110E-01
  0.534706308554E+02  0.619850990592E-01  0.245416368456E-01
  0.534706308554E+02  0.584204453363E-01  0.321169116068E-01
  0.534706308554E+02  0.539344662917E-01  0.391856834862E-01
  0.534706308554E+02  0.485979084948E-01  0.456364737286E-01
  0.534706308554E+02  0.424949326499E-01  0.513675495184E-01
  0.534706308554E+02  0.357217863319E-01  0.562885283668E-01
  0.534706308554E+02  0.283852861043E-01  0.603218034977E-01
  0.534706308554E+02  0.206011329583E-01  0.634037677530E-01
  0.534706308554E+02  0.124920876390E-01  0.654858167152E-01
  0.534706308554E+02  0.418603463529E-02  0.665351152286E-01
  0.534706308554E+02 -0.418603463529E-02  0.665351152286E-01
  0.534706308554E+02 -0.124920876390E-01  0.654858167152E-01
  0.534706308554E+02 -0.206011329583E-01  0.634037677530E-01
  0.534706308554E+02 -0.283852861043E-01  0.603218034977E-01
  0.534706308554E+02 -0.357217863319E-01  0.562885283668E-01
  0.534706308554E+02 -0.424949326499E-01  0.513675495184E-01
  0.534706308554E+02 -0.485979084948E-01  0.456364737286E-01
  0.534706308554E+02 -0.539344662917E-01  0.391856834862E-01
  0.534706308554E+02 -0.584204453363E-01  0.321169116068E-01
  0.534706308554E+02 -0.619850990592E-01  0.245416368456E-01
  0.534706308554E+02 -0.645722107419E-01  0.165793258110E-01
  0.534706308554E+02 -0.661409800876E-01  0.835554890429E-02
  0.534706308554E+02 -0.666666666667E-01  0.816431199432E-17
  0.515609654677E+02  0.100000000000E+00  0.000000000000E+00
  0.515609654677E+02  0.992114701314E-01  0.125333233564E-01
  0.515609654677E+02  0.968583161129E-01  0.248689887165E-01
  0.515609654677E+02  0.929776485888E-01  0.368124552685E-01
  0.515609654677E+02  0.876306680044E-01  0.481753674102E-01
  0.515609654677E+02  0.809016994375E-01  0.587785252292E-01
  0.515609654677E+02  0.728968627421E-01  0.684547105929E-01
  0.515609654677E+02  0.637423989749E-01  0.770513242776E-01
  0.515609654677E+02  0.535826794979E-01  0.844327925502E-01
  0.515609654677E+02  0.425779291565E-01  0.904827052466E-01
  0.515609654677E+02  0.309016994375E-01  0.951056516295E-01
  0.515609654677E+02  0.187381314586E-01  0.982287250729E-01
  0.515609654677E+02  0.627905195293E-02  0.998026728428E-01
  0.515609654677E+02 -0.627905195293E-02  0.998026728428E-01
  0.515609654677E+02 -0.187381314586E-01  0.982287250729E-01
  0.515609654677E+02 -0.309016994375E-01  0.951056516295E-01
  0.515609654677E+02 -0.425779291565E-01  0.904827052466E-01
  0.515609654677E+02 -0.535826794979E-01  0.844327925502E-01
  0.515609654677E+02 -0.637423989749E-01  0.770513242776E-01
  0.515609654677E+02 -0.728968627421E-01  0.684547105929E-01
  0.515609654677E+02 -0.809016994375E-01  0.587785252292E-01
  0.515609654677E+02 -0.876306680044E-01  0.481753674102E-01
  0.515609654677E+02 -0.929776485888E-01  0.368124552685E-01
  0.515609654677E+02 -0.968583161129E-01  0.248689887165E-01
  0.515609654677E+02 -0.992114701314E-01  0.125333233564E-01
  0.515609654677E+02 -0.100000000000E+00  0.122464679915E-16
  0.496513000800E+02  0.133333333333E+00  0.000000000000E+00
  0.496513000800E+02  0.132281960175E+00  0.167110978086E-01
  0.496513000800E+02  0.129144421484E+00  0.331586516220E-01
  0.496513000800E+02  0.123970198118E+00  0.490832736913E-01
  0.496513000800E+02  0.116840890673E+00  0.642338232136E-01
  0.496513000800E+02  0.107868932583E+00  0.783713669723E-01
  0.496513000800E+02  0.971958169895E-01  0.912729474572E-01
  0.496513000800E+02  0.849898652998E-01  0.102735099037E+00
  0.496513000800E+02  0.714435726639E-01  0.112577056734E+00
  0.496513000800E+02  0.567705722087E-01  0.120643606995E+00
  0.496513000800E+02  0.412022659167E-01  0.126807535506E+00
  0.496513000800E+02  0.249841752781E-01  0.130971633430E+00
  0.496513000800E+02  0.837206927058E-02  0.133070230457E+00
  0.496513000800E+02 -0.837206927058E-02  0.133070230457E+00
  0.496513000800E+02 -0.249841752781E-01  0.130971633430E+00
  0.496513000800E+02 -0.412022659167E-01  0.126807535506E+00
  0.496513000800E+02 -0.567705722087E-01  0.120643606995E+00
  0.496513000800E+02 -0.714435726639E-01  0.112577056734E+00
  0.496513000800E+02 -0.849898652998E-01  0.102735099037E+00
  0.496513000800E+02 -0.971958169895E-01  0.912729474572E-01
  0.496513000800E+02 -0.107868932583E+00  0.783713669723E-01
  0.496513000800E+02 -0.116840890673E+00  0.642338232136E-01
  0.496513000800E+02 -0.123970198118E+00  0.490832736913E-01
  0.496513000800E+02 -0.129144421484E+00  0.331586516220E-01
  0.496513000800E+02 -0.132281960175E+00  0.167110978086E-01
  0.496513000800E+02 -0.133333333333E+00  0.163286239886E-16
  0.477416346923E+02  0.166666666667E+00  0.000000000000E+00
  0.477416346923E+02  0.165352450219E+00  0.208888722607E-01
  0.477416346923E+02  0.161430526855E+00  0.414483145275E-01
  0.477416346923E+02  0.154962747648E+00  0.613540921141E-01
  0.477416346923E+02  0.146051113341E+00  0.802922790170E-01
  0.477416346923E+02  0.134836165729E+00  0.979642087154E-01
  0.477416346923E+02  0.121494771237E+00  0.114091184321E+00
  0.477416346923E+02  0.106237331625E+00  0.128418873796E+00
  0.477416346923E+02  0.893044658298E-01  0.140721320917E+00
  0.477416346923E+02  0.709632152608E-01  0.150804508744E+00
  0.477416346923E+02  0.515028323958E-01  0.158509419383E+00
  0.477416346923E+02  0.312302190976E-01  0.163714541788E+00
  0.477416346923E+02  0.104650865882E-01  0.166337788071E+00
  0.477416346923E+02 -0.104650865882E-01  0.166337788071E+00
  0.477416346923E+02 -0.312302190976E-01  0.163714541788E+00
  0.477416346923E+02 -0.515028323958E-01  0.158509419383E+00
  0.477416346923E+02 -0.709632152608E-01  0.150804508744E+00
  0.477416346923E+02 -0.893044658298E-01  0.140721320917E+00
  0.477416346923E+02 -0.106237331625E+00  0.128418873796E+00
  0.477416346923E+02 -0.121494771237E+00  0.114091184321E+00
  0.477416346923E+02 -0.134836165729E+00  0.979642087154E-01
  0.477416346923E+02 -0.146051113341E+00  0.802922790170E-01
  0.477416346923E+02 -0.154962747648E+00  0.613540921141E-01
  0.477416346923E+02 -0.161430526855E+00  0.414483145275E-01
  0.477416346923E+02 -0.165352450219E+00  0.208888722607E-01
  0.477416346923E+02 -0.166666666667E+00  0.204107799858E-16
  0.458319693046E+02  0.200000000000E+00  0.000000000000E+00
  0.458319693046E+02  0.198422940263E+00  0.250666467129E-01
  0.458319693046E+02  0.193716632226E+00  0.497379774330E-01
  0.458319693046E+02  0.185955297178E+00  0.736249105369E-01
  0.458319693046E+02  0.175261336009E+00  0.963507348203E-01
  0.458319693046E+02  0.161803398875E+00  0.117557050458E+00
  0.458319693046E+02  0.145793725484E+00  0.136909421186E+00
  0.458319693046E+02  0.127484797950E+00  0.154102648555E+00
  0.458319693046E+02  0.107165358996E+00  0.168865585100E+00
  0.458319693046E+02  0.851558583130E-01  0.180965410493E+00
  0.458319693046E+02  0.618033988750E-01  0.190211303259E+00
  0.458319693046E+02  0.374762629171E-01  0.196457450146E+00
  0.458319693046E+02  0.125581039059E-01  0.199605345686E+00
  0.458319693046E+02 -0.125581039059E-01  0.199605345686E+00
  0.458319693046E+02 -0.374762629171E-01  0.196457450146E+00
  0.458319693046E+02 -0.618033988750E-01  0.190211303259E+00
  0.458319693046E+02 -0.851558583130E-01  0.180965410493E+00
  0.458319693046E+02 -0.107165358996E+00  0.168865585100E+00
  0.458319693046E+02 -0.127484797950E+00  0.154102648555E+00
  0.458319693046E+02 -0.145793725484E+00  0.136909421186E+00
  0.458319693046E+02 -0.161803398875E+00  0.117557050458E+00
  0.458319693046E+02 -0.175261336009E+00  0.963507348203E-01
  0.458319693046E+02 -0.185955297178E+00  0.736249105369E-01
  0.458319693046E+02 -0.193716632226E+00  0.497379774330E-01
  0.458319693046E+02 -0.198422940263E+00  0.250666467129E-01
  0.458319693046E+02 -0.200000000000E+00  0.244929359829E-16
  0.439223039169E+02  0.233333333333E+00  0.000000000000E+00
  0.439223039169E+02  0.231493430307E+00  0.292444211650E-01
  0.439223039169E+02  0.226002737597E+00  0.580276403385E-01
  0.439223039169E+02  0.216947846707E+00  0.858957289598E-01
[...]
CELL_DATA                1475
SCALARS C_p_ise float 1
LOOKUP_TABLE default
  0.166470914833E-02
  0.166470914262E-02
  0.166470914260E-02
  0.166470914261E-02
  0.166470914260E-02
  0.166470914265E-02
  0.166470914266E-02
  0.166470914261E-02
  0.166470914260E-02
  0.166470914263E-02
  0.166470914262E-02
  0.166470914260E-02
  0.166470914261E-02
  0.166470914260E-02
  0.166470914262E-02
  0.166470914263E-02
  0.166470914261E-02
  0.166470914265E-02
  0.166470914269E-02
  0.166470914267E-02
  0.166470914264E-02
  0.166470914262E-02
  0.166470914262E-02
  0.166470914254E-02
  0.166470913406E-02
  0.166470908210E-02
  0.166470909900E-02
  0.166470909334E-02
  0.166470909345E-02
  0.166470909340E-02
  0.166470909328E-02
  0.166470909330E-02
  0.166470909332E-02
  0.166470909334E-02
  0.166470909342E-02
  0.166470909339E-02
  0.166470909313E-02
  0.166470909320E-02
  0.166470909336E-02
  0.166470909334E-02
  0.166470909346E-02
  0.166470909342E-02
  0.166470909331E-02
  0.166470909334E-02
  0.166470909336E-02
  0.166470909334E-02
  0.166470909334E-02
  0.166470909331E-02
  0.166470909325E-02
  0.166470909326E-02
  0.166470909330E-02
  0.166470909330E-02
  0.166470909337E-02
  0.166470909335E-02
  0.166470909327E-02
  0.166470909331E-02
  0.166470909341E-02
  0.166470909340E-02
  0.166470909345E-02
  0.166470909341E-02
  0.166470909317E-02
  0.166470909323E-02
  0.166470909329E-02
  0.166470909326E-02
  0.166470909323E-02
  0.166470909323E-02
  0.166470909331E-02
  0.166470909328E-02
  0.166470909328E-02
  0.166470909329E-02
  0.166470909331E-02
  0.166470909331E-02
  0.166470909356E-02
  0.166470909371E-02
  0.166470911962E-02
  0.166470908664E-02
  0.166470908671E-02
  0.166470908667E-02
  0.166470908661E-02
  0.166470908664E-02
  0.166470908688E-02
  0.166470908683E-02
  0.166470908666E-02
  0.166470908658E-02
  0.166470908603E-02
  0.166470908615E-02
  0.166470908675E-02
  0.166470908670E-02
  0.166470908657E-02
  0.166470908666E-02
  0.166470908696E-02
  0.166470908697E-02
  0.166470908706E-02
  0.166470908703E-02
  0.166470908684E-02
  0.166470908687E-02
  0.166470908708E-02
  0.166470908698E-02
  0.166470908670E-02
  0.166470908674E-02
  0.166470908694E-02
  0.166470908698E-02
  0.166470908710E-02
  0.166470908709E-02
  0.166470908695E-02
  0.166470908693E-02
  0.166470908675E-02
  0.166470908678E-02
  0.166470908678E-02
  0.166470908676E-02
  0.166470908674E-02
  0.166470908676E-02
  0.166470908697E-02
  0.166470908694E-02
  0.166470908686E-02
  0.166470908684E-02
  0.166470908681E-02
  0.166470908683E-02
  0.166470908693E-02
  0.166470908691E-02
  0.166470908683E-02
  0.166470908684E-02
  0.166470908681E-02
  0.166470908717E-02
  0.166470908781E-02
  0.166470908516E-02
  0.166470908511E-02
  0.166470908513E-02
  0.166470908548E-02
  0.166470908541E-02
  0.166470908479E-02
  0.166470908488E-02
  0.166470908554E-02
  0.166470908552E-02
  0.166470908619E-02
  0.166470908612E-02
  0.166470908563E-02
  0.166470908562E-02
  0.166470908499E-02
  0.166470908498E-02
  0.166470908445E-02
  0.166470908453E-02
  0.166470908456E-02
  0.166470908464E-02
  0.166470908532E-02
  0.166470908514E-02
  0.166470908390E-02
  0.166470908403E-02
  0.166470908528E-02
  0.166470908524E-02
  0.166470908509E-02
  0.166470908514E-02
  0.166470908493E-02
  0.166470908483E-02
  0.166470908410E-02
  0.166470908413E-02
  0.166470908470E-02
  0.166470908472E-02
  0.166470908490E-02
  0.166470908489E-02
  0.166470908499E-02
  0.166470908499E-02
  0.166470908487E-02
  0.166470908494E-02
  0.166470908528E-02
  0.166470908527E-02
  0.166470908548E-02
  0.166470908544E-02
  0.166470908506E-02
  0.166470908515E-02
  0.166470908571E-02
  0.166470908562E-02
  0.166470908504E-02
  0.166470908547E-02
  0.166470908600E-02
  0.166470908672E-02
  0.166470908662E-02
  0.166470908662E-02
  0.166470908649E-02
  0.166470908655E-02
  0.166470908724E-02
  0.166470908718E-02
  0.166470908664E-02
  0.166470908668E-02
  0.166470908641E-02
  0.166470908648E-02
  0.166470908679E-02
  0.166470908672E-02
  0.166470908689E-02
  0.166470908680E-02
  0.166470908685E-02
  0.166470908702E-02
  0.166470908852E-02
  0.166470908836E-02
  0.166470908613E-02
  0.166470908612E-02
  0.166470908683E-02
  0.166470908678E-02
  0.166470908672E-02
  0.166470908687E-02
  0.166470908696E-02
  0.166470908703E-02
  0.166470908737E-02
  0.166470908738E-02
  0.166470908856E-02
  0.166470908828E-02
  0.166470908639E-02
  0.166470908647E-02
  0.166470908637E-02
  0.166470908651E-02
  0.166470908762E-02
  0.166470908761E-02
  0.166470908734E-02
  0.166470908739E-02
  0.166470908736E-02
  0.166470908729E-02
  0.166470908629E-02
  0.166470908633E-02
  0.166470908675E-02
  0.166470908673E-02
  0.166470908632E-02
  0.166470908641E-02
  0.166470908726E-02
  0.166470908767E-02
  0.166470908831E-02
  0.166470908301E-02
  0.166470908413E-02
  0.166470908409E-02
  0.166470908375E-02
  0.166470908374E-02
  0.166470908308E-02
  0.166470908312E-02
  0.166470908339E-02
  0.166470908335E-02
  0.166470908313E-02
  0.166470908309E-02
  0.166470908221E-02
  0.166470908230E-02
  0.166470908360E-02
  0.166470908347E-02
  0.166470908289E-02
  0.166470908287E-02
  0.166470908077E-02
  0.166470908107E-02
  0.166470908434E-02
  0.166470908417E-02
  0.166470908511E-02
  0.166470908507E-02
  0.166470908442E-02
  0.166470908440E-02
  0.166470908260E-02
  0.166470908255E-02
  0.166470908115E-02
  0.166470908141E-02
  0.166470908379E-02
  0.166470908370E-02
  0.166470908441E-02
  0.166470908426E-02
  0.166470908406E-02
  0.166470908412E-02
  0.166470908341E-02
  0.166470908358E-02
  0.166470908425E-02
  0.166470908422E-02
  0.166470908376E-02
  0.166470908371E-02
  0.166470908398E-02
  0.166470908382E-02
  0.166470908280E-02
  0.166470908293E-02
  0.166470908392E-02
  0.166470908402E-02
  0.166470908463E-02
  0.166470908505E-02
  0.166470908406E-02
  0.166470908791E-02
  0.166470908743E-02
  0.166470908767E-02
  0.166470908996E-02
  0.166470908991E-02
  0.166470908977E-02
  0.166470908966E-02
  0.166470908845E-02
  0.166470908845E-02
  0.166470908856E-02
  0.166470908863E-02
  0.166470909039E-02
  0.166470909020E-02
  0.166470908771E-02
  0.166470908782E-02
  0.166470908936E-02
  0.166470908942E-02
  0.166470909119E-02
  0.166470909111E-02
  0.166470908861E-02
  0.166470908871E-02
  0.166470908823E-02
  0.166470908827E-02
  0.166470908816E-02
  0.166470908813E-02
  0.166470908880E-02
  0.166470908874E-02
  0.166470909074E-02
  0.166470909046E-02
  0.166470908512E-02
  0.166470908553E-02
  0.166470908925E-02
  0.166470908912E-02
  0.166470908853E-02
  0.166470908856E-02
  0.166470908839E-02
  0.166470908837E-02
  0.166470908672E-02
  0.166470908677E-02
  0.166470908694E-02
  0.166470908682E-02
  0.166470908652E-02
  0.166470908659E-02
  0.166470908931E-02
  0.166470908928E-02
  0.166470908843E-02
  0.166470908843E-02
  0.166470908610E-02
  0.166470908691E-02
  0.166470909119E-02
  0.166470908199E-02
  0.166470908136E-02
  0.166470908136E-02
  0.166470907839E-02
  0.166470907853E-02
  0.166470907875E-02
  0.166470907882E-02
  0.166470908168E-02
  0.166470908155E-02
  0.166470908106E-02
  0.166470908104E-02
  0.166470907967E-02
  0.166470907974E-02
  0.166470908140E-02
  0.166470908128E-02
  0.166470908070E-02
  0.166470908081E-02
  0.166470907973E-02
  0.166470907978E-02
  0.166470907977E-02
  0.166470907974E-02
  0.166470908069E-02
  0.166470908050E-02
  0.166470907748E-02
  0.166470907762E-02
  0.166470908023E-02
  0.166470908013E-02
  0.166470907880E-02
  0.166470907872E-02
  0.166470907949E-02
  0.166470907936E-02
  0.166470907716E-02
  0.166470907761E-02
  0.166470908193E-02
  0.166470908176E-02
  0.166470907943E-02
  0.166470907921E-02
  0.166470907636E-02
  0.166470907653E-02
  0.166470908020E-02
  0.166470908043E-02
  0.166470908547E-02
  0.166470908536E-02
  0.166470908310E-02
  0.166470908314E-02
  0.166470908111E-02
  0.166470908109E-02
  0.166470908167E-02
  0.166470908272E-02
  0.166470908899E-02
  0.166470909084E-02
  0.166470908708E-02
  0.166470908729E-02
  0.166470909167E-02
  0.166470909143E-02
  0.166470908839E-02
  0.166470908841E-02
  0.166470908738E-02
  0.166470908758E-02
  0.166470908984E-02
  0.166470908979E-02
  0.166470908970E-02
  0.166470908973E-02
  0.166470909065E-02
  0.166470909065E-02
  0.166470909086E-02
  0.166470909075E-02
  0.166470908757E-02
  0.166470908791E-02
  0.166470909400E-02
  0.166470909370E-02
  0.166470908916E-02
  0.166470908930E-02
  0.166470909385E-02
  0.166470909359E-02
  0.166470909032E-02
  0.166470909046E-02
  0.166470909148E-02
  0.166470909159E-02
  0.166470909622E-02
  0.166470909591E-02
  0.166470909229E-02
  0.166470909233E-02
  0.166470908777E-02
  0.166470908803E-02
  0.166470909035E-02
  0.166470909043E-02
  0.166470909822E-02
  0.166470909786E-02
  0.166470909208E-02
  0.166470909228E-02
  0.166470908754E-02
  0.166470908773E-02
  0.166470908698E-02
  0.166470908728E-02
  0.166470909431E-02
  0.166470909406E-02
  0.166470909233E-02
  0.166470909338E-02
  0.166470909294E-02
  0.166470908135E-02
  0.166470908289E-02
  0.166470908251E-02
  0.166470907524E-02
  0.166470907589E-02
  0.166470908799E-02
  0.166470908771E-02
  0.166470908550E-02
  0.166470908548E-02
  0.166470908268E-02
  0.166470908259E-02
  0.166470907937E-02
  0.166470907947E-02
  0.166470908097E-02
  0.166470908108E-02
  0.166470908211E-02
  0.166470908210E-02
  0.166470908392E-02
  0.166470908374E-02
  0.166470907748E-02
  0.166470907776E-02
  0.166470908212E-02
  0.166470908211E-02
  0.166470908438E-02
  0.166470908437E-02
  0.166470908395E-02
  0.166470908393E-02
  0.166470908453E-02
  0.166470908425E-02
  0.166470907572E-02
  0.166470907637E-02
  0.166470908922E-02
  0.166470908879E-02
  0.166470908403E-02
  0.166470908393E-02
  0.166470908231E-02
  0.166470908243E-02
  0.166470908060E-02
  0.166470908081E-02
  0.166470908286E-02
  0.166470908257E-02
  0.166470907976E-02
  0.166470908002E-02
  0.166470908669E-02
  0.166470908650E-02
  0.166470907788E-02
  0.166470907824E-02
  0.166470908216E-02
  0.166470908314E-02
  0.166470908361E-02
  0.166470908573E-02
  0.166470909246E-02
  0.166470909215E-02
  0.166470909206E-02
  0.166470909186E-02
  0.166470908198E-02
  0.166470908260E-02
  0.166470908792E-02
  0.166470908757E-02
  0.166470908279E-02
  0.166470908301E-02
  0.166470909267E-02
  0.166470909236E-02
  0.166470908731E-02
  0.166470908726E-02
  0.166470908240E-02
  0.166470908269E-02
  0.166470908780E-02
  0.166470908764E-02
  0.166470908595E-02
  0.166470908607E-02
  0.166470908960E-02
  0.166470908966E-02
  0.166470908647E-02
  0.166470908656E-02
  0.166470908610E-02
  0.166470908606E-02
  0.166470908628E-02
  0.166470908627E-02
  0.166470909131E-02
  0.166470909115E-02
  0.166470908357E-02
  0.166470908386E-02
  0.166470908469E-02
  0.166470908442E-02
  0.166470908597E-02
  0.166470908604E-02
  0.166470908677E-02
  0.166470908691E-02
  0.166470908766E-02
  0.166470908753E-02
  0.166470908874E-02
  0.166470908860E-02
  0.166470908321E-02
  0.166470908339E-02
  0.166470908402E-02
  0.166470908396E-02
  0.166470908458E-02
  0.166470908594E-02
  0.166470908948E-02
  0.166470908614E-02
  0.166470908156E-02
  0.166470908166E-02
  0.166470908376E-02
  0.166470908360E-02
  0.166470908457E-02
  0.166470908465E-02
  0.166470908306E-02
  0.166470908306E-02
  0.166470908545E-02
  0.166470908484E-02
  0.166470907098E-02
  0.166470907163E-02
  0.166470908324E-02
  0.166470908305E-02
  0.166470908515E-02
  0.166470908488E-02
  0.166470907716E-02
  0.166470907749E-02
  0.166470908322E-02
  0.166470908312E-02
  0.166470907981E-02
  0.166470907997E-02
  0.166470907819E-02
  0.166470907825E-02
  0.166470908127E-02
  0.166470908128E-02
  0.166470908285E-02
  0.166470908269E-02
  0.166470907906E-02
  0.166470907898E-02
  0.166470907548E-02
  0.166470907570E-02
  0.166470908233E-02
  0.166470908196E-02
  0.166470907883E-02
  0.166470907903E-02
  0.166470908048E-02
  0.166470908088E-02
  0.166470908589E-02
  0.166470908574E-02
  0.166470908414E-02
  0.166470908401E-02
  0.166470908287E-02
  0.166470908290E-02
  0.166470908524E-02
  0.166470908490E-02
  0.166470907793E-02
  0.166470907933E-02
  0.166470907989E-02
  0.166470908648E-02
  0.166470908898E-02
  0.166470908864E-02
  0.166470908254E-02
  0.166470908278E-02
  0.166470909060E-02
  0.166470909044E-02
  0.166470908349E-02
  0.166470908388E-02
  0.166470909549E-02
  0.166470909493E-02
  0.166470909370E-02
  0.166470909383E-02
  0.166470909576E-02
  0.166470909588E-02
  0.166470909109E-02
  0.166470909078E-02
  0.166470908760E-02
  0.166470908759E-02
  0.166470908732E-02
  0.166470908755E-02
  0.166470908964E-02
  0.166470908966E-02
  0.166470908985E-02
  0.166470909001E-02
  0.166470909433E-02
  0.166470909392E-02
  0.166470908018E-02
  0.166470908054E-02
  0.166470909184E-02
  0.166470909152E-02
  0.166470908941E-02
  0.166470908971E-02
  0.166470909564E-02
  0.166470909561E-02
  0.166470909669E-02
  0.166470909617E-02
  0.166470908129E-02
  0.166470908176E-02
  0.166470908195E-02
  0.166470908229E-02
  0.166470908923E-02
  0.166470908871E-02
  0.166470908106E-02
  0.166470908140E-02
  0.166470909025E-02
  0.166470909018E-02
  0.166470909426E-02
  0.166470909574E-02
  0.166470910515E-02
  0.166470908346E-02
  0.166470908189E-02
  0.166470908159E-02
  0.166470908019E-02
  0.166470908027E-02
  0.166470908259E-02
  0.166470908291E-02
  0.166470908748E-02
  0.166470908712E-02
  0.166470907424E-02
  0.166470907460E-02
  0.166470908695E-02
  0.166470908673E-02
  0.166470907864E-02
  0.166470907902E-02
  0.166470908386E-02
  0.166470908333E-02
  0.166470908263E-02
  0.166470908268E-02
  0.166470908766E-02
  0.166470908773E-02
  0.166470908346E-02
  0.166470908321E-02
  0.166470907384E-02
  0.166470907418E-02
  0.166470907888E-02
  0.166470907929E-02
  0.166470909677E-02
  0.166470909584E-02
  0.166470907582E-02
  0.166470907629E-02
  0.166470908529E-02
  0.166470908522E-02
  0.166470907760E-02
  0.166470907774E-02
  0.166470907621E-02
  0.166470907615E-02
  0.166470908755E-02
  0.166470908727E-02
  0.166470908326E-02
  0.166470908366E-02
  0.166470908507E-02
  0.166470908480E-02
  0.166470908382E-02
  0.166470908375E-02
  0.166470908114E-02
  0.166470908147E-02
  0.166470908274E-02
  0.166470908417E-02
  0.166470907827E-02
  0.166470908499E-02
  0.166470907430E-02
  0.166470907438E-02
  0.166470908698E-02
  0.166470908674E-02
  0.166470907900E-02
  0.166470907984E-02
  0.166470909252E-02
  0.166470909226E-02
  0.166470909018E-02
  0.166470908984E-02
  0.166470908290E-02
  0.166470908311E-02
  0.166470908230E-02
  0.166470908215E-02
  0.166470907552E-02
  0.166470907548E-02
  0.166470908454E-02
  0.166470908448E-02
  0.166470908218E-02
  0.166470908237E-02
  0.166470908052E-02
  0.166470908043E-02
  0.166470908962E-02
  0.166470908944E-02
  0.166470908442E-02
  0.166470908473E-02
  0.166470907668E-02
  0.166470907685E-02
  0.166470908977E-02
  0.166470908923E-02
  0.166470908149E-02
  0.166470908184E-02
  0.166470908411E-02
  0.166470908410E-02
  0.166470908818E-02
  0.166470908794E-02
  0.166470908437E-02
  0.166470908449E-02
  0.166470908367E-02
  0.166470908381E-02
  0.166470908057E-02
  0.166470908032E-02
  0.166470907952E-02
  0.166470907960E-02
  0.166470908479E-02
  0.166470908498E-02
  0.166470908359E-02
  0.166470908633E-02
  0.166470912307E-02
  0.166470908663E-02
  0.166470908566E-02
  0.166470908530E-02
  0.166470908318E-02
  0.166470908325E-02
  0.166470907920E-02
  0.166470907934E-02
  0.166470906559E-02
  0.166470906626E-02
  0.166470908183E-02
  0.166470908123E-02
  0.166470907574E-02
  0.166470907597E-02
  0.166470908364E-02
  0.166470908385E-02
  0.166470909585E-02
  0.166470909553E-02
  0.166470909376E-02
  0.166470909355E-02
  0.166470907945E-02
  0.166470908027E-02
  0.166470910246E-02
  0.166470910168E-02
  0.166470908215E-02
  0.166470908234E-02
  0.166470908384E-02
  0.166470908384E-02
  0.166470907961E-02
  0.166470907952E-02
  0.166470908023E-02
  0.166470908024E-02
  0.166470908317E-02
  0.166470908314E-02
  0.166470907955E-02
  0.166470907964E-02
  0.166470907990E-02
  0.166470907985E-02
  0.166470908131E-02
  0.166470908178E-02
  0.166470909647E-02
  0.166470909597E-02
  0.166470907703E-02
  0.166470907717E-02
  0.166470909282E-02
  0.166470909287E-02
  0.166470909292E-02
  0.166470909328E-02
  0.166470909325E-02
  0.166470909478E-02
  0.166470905857E-02
  0.166470908309E-02
  0.166470908782E-02
  0.166470908720E-02
  0.166470907955E-02
  0.166470908010E-02
  0.166470909818E-02
  0.166470909786E-02
  0.166470908743E-02
  0.166470908741E-02
  0.166470907897E-02
  0.166470907962E-02
  0.166470910441E-02
  0.166470910372E-02
  0.166470907937E-02
  0.166470907971E-02
  0.166470907606E-02
  0.166470907607E-02
  0.166470907459E-02
  0.166470907492E-02
  0.166470909472E-02
  0.166470909399E-02
  0.166470905806E-02
  0.166470905887E-02
  0.166470908773E-02
  0.166470908722E-02
  0.166470908503E-02
  0.166470908513E-02
  0.166470908666E-02
  0.166470908623E-02
  0.166470907930E-02
  0.166470907963E-02
  0.166470908963E-02
  0.166470908974E-02
  0.166470909160E-02
  0.166470909155E-02
  0.166470909076E-02
  0.166470909074E-02
  0.166470909135E-02
  0.166470909135E-02
  0.166470907415E-02
  0.166470907487E-02
  0.166470909917E-02
  0.166470909853E-02
  0.166470909286E-02
  0.166470909278E-02
  0.166470907214E-02
  0.166470907232E-02
  0.166470906588E-02
  0.166470906744E-02
  0.166470906876E-02
  0.166470907027E-02
  0.166470908285E-02
  0.166470908267E-02
  0.166470909279E-02
  0.166470909270E-02
  0.166470907860E-02
  0.166470907892E-02
  0.166470908177E-02
  0.166470908184E-02
  0.166470909632E-02
  0.166470909619E-02
  0.166470907753E-02
  0.166470907832E-02
  0.166470910407E-02
  0.166470910292E-02
  0.166470907657E-02
  0.166470907679E-02
  0.166470908802E-02
  0.166470908777E-02
  0.166470906907E-02
  0.166470906959E-02
  0.166470909244E-02
  0.166470909190E-02
  0.166470908265E-02
  0.166470908312E-02
  0.166470908670E-02
  0.166470908683E-02
  0.166470909055E-02
  0.166470909048E-02
  0.166470910196E-02
  0.166470910144E-02
  0.166470907920E-02
  0.166470907971E-02
  0.166470908328E-02
  0.166470908323E-02
  0.166470908109E-02
  0.166470908120E-02
  0.166470908685E-02
  0.166470908704E-02
  0.166470909325E-02
  0.166470909336E-02
  0.166470909057E-02
  0.166470909053E-02
  0.166470908583E-02
  0.166470908566E-02
  0.166470908823E-02
  0.166470908814E-02
  0.166470910104E-02
  0.166470910262E-02
  0.166470911014E-02
  0.166470909852E-02
  0.166470908756E-02
  0.166470908804E-02
  0.166470909924E-02
  0.166470909898E-02
  0.166470908203E-02
  0.166470908229E-02
  0.166470909492E-02
  0.166470909476E-02
  0.166470908323E-02
  0.166470908385E-02
  0.166470909621E-02
  0.166470909599E-02
  0.166470907799E-02
  0.166470907819E-02
  0.166470910064E-02
  0.166470910003E-02
  0.166470909698E-02
  0.166470909691E-02
  0.166470909118E-02
  0.166470909097E-02
  0.166470908347E-02
  0.166470908403E-02
  0.166470910063E-02
  0.166470910043E-02
  0.166470908550E-02
  0.166470908561E-02
  0.166470908119E-02
  0.166470908101E-02
  0.166470907264E-02
  0.166470907252E-02
  0.166470907503E-02
  0.166470907523E-02
  0.166470908684E-02
  0.166470908729E-02
  0.166470910205E-02
  0.166470910162E-02
  0.166470908387E-02
  0.166470908409E-02
  0.166470907924E-02
  0.166470907919E-02
  0.166470906701E-02
  0.166470906744E-02
  0.166470908754E-02
  0.166470908726E-02
  0.166470908831E-02
  0.166470908809E-02
  0.166470908021E-02
  0.166470908234E-02
  0.166470908893E-02
  0.166470908686E-02
  0.166470909154E-02
  0.166470909212E-02
  0.166470910737E-02
  0.166470910734E-02
  0.166470910454E-02
  0.166470910373E-02
  0.166470908026E-02
  0.166470908048E-02
  0.166470908172E-02
  0.166470908171E-02
  0.166470906978E-02
  0.166470907020E-02
  0.166470908253E-02
  0.166470908235E-02
  0.166470908661E-02
  0.166470908622E-02
  0.166470907098E-02
  0.166470907111E-02
  0.166470908225E-02
  0.166470908206E-02
  0.166470908868E-02
  0.166470908856E-02