# vtk DataFile Version 3.0
TriPan results file. Generated by TriPan, USU AeroLab (c) 2021.
ASCII
DATASET POLYDATA
POINTS                 144 float
  0.000000000000E+00  0.000000000000E+00  0.000000000000E+00
  0.113538098335E+01  0.000000000000E+00 -0.658124566078E+00
  0.113538098335E+01  0.000000000000E+00  0.658124566078E+00
  0.192375373840E+01  0.192375373840E+01  0.000000000000E+00
  0.305913543701E+01  0.192375373840E+01 -0.658124983311E+00
  0.305913543701E+01  0.192375373840E+01  0.658124983311E+00
  0.423028087616E+01  0.000000000000E+00 -0.108747220039E+01
  0.423028087616E+01  0.000000000000E+00  0.108747220039E+01
  0.547033166885E+01  0.547033166885E+01  0.000000000000E+00
  0.615403699875E+01  0.192375373840E+01 -0.108747279644E+01
  0.615403699875E+01  0.192375373840E+01  0.108747279644E+01
  0.660571479797E+01  0.547033166885E+01 -0.658125698566E+00
  0.660571479797E+01  0.547033166885E+01  0.658125698566E+00
  0.939508819580E+01  0.000000000000E+00 -0.980745851994E+00
  0.939508819580E+01  0.000000000000E+00  0.980745851994E+00
  0.970061969757E+01  0.547033166885E+01 -0.108747410774E+01
  0.970061969757E+01  0.547033166885E+01  0.108747410774E+01
  0.113188476562E+02  0.192375373840E+01 -0.980746448040E+00
  0.113188476562E+02  0.192375373840E+01  0.980746448040E+00
  0.113820018768E+02  0.113820018768E+02  0.000000000000E+00
  0.125173873901E+02  0.113820018768E+02 -0.658127009869E+00
  0.125173873901E+02  0.113820018768E+02  0.658127009869E+00
  0.145402030945E+02  0.000000000000E+00 -0.479613035917E+00
  0.145402030945E+02  0.000000000000E+00  0.479613035917E+00
  0.148654365540E+02  0.547033166885E+01 -0.980747580528E+00
  0.148654365540E+02  0.547033166885E+01  0.980747580528E+00
  0.156122989655E+02  0.113820018768E+02 -0.108747613430E+01
  0.156122989655E+02  0.113820018768E+02  0.108747613430E+01
  0.164639663696E+02  0.192375373840E+01 -0.479613333941E+00
  0.164639663696E+02  0.192375373840E+01  0.479613333941E+00
  0.176505107880E+02  0.000000000000E+00 -0.144198849797E+00
  0.176505107880E+02  0.000000000000E+00  0.144198849797E+00
  0.190000000000E+02  0.000000000000E+00  0.000000000000E+00
  0.195742740631E+02  0.192375373840E+01 -0.144198939204E+00
  0.195742740631E+02  0.192375373840E+01  0.144198939204E+00
  0.197561950684E+02  0.197561950684E+02  0.000000000000E+00
  0.200105609894E+02  0.547033166885E+01 -0.479613870382E+00
  0.200105609894E+02  0.547033166885E+01  0.479613870382E+00
  0.207771244049E+02  0.113820018768E+02 -0.980749428272E+00
  0.207771244049E+02  0.113820018768E+02  0.980749428272E+00
  0.208915824890E+02  0.197561950684E+02 -0.658128738403E+00
  0.208915824890E+02  0.197561950684E+02  0.658128738403E+00
  0.209237651825E+02  0.192375373840E+01  0.000000000000E+00
  0.231208724976E+02  0.547033166885E+01 -0.144199103117E+00
  0.231208724976E+02  0.547033166885E+01  0.144199103117E+00
  0.239865016937E+02  0.197561950684E+02 -0.108747911453E+01
  0.239865016937E+02  0.197561950684E+02  0.108747911453E+01
  0.244703655243E+02  0.547033166885E+01  0.000000000000E+00
  0.259222583771E+02  0.113820018768E+02 -0.479614794254E+00
  0.259222583771E+02  0.113820018768E+02  0.479614794254E+00
  0.290325775146E+02  0.113820018768E+02 -0.144199386239E+00
  0.290325775146E+02  0.113820018768E+02  0.144199386239E+00
  0.291513423920E+02  0.197561950684E+02 -0.980752110481E+00
  0.291513423920E+02  0.197561950684E+02  0.980752110481E+00
  0.292438049316E+02  0.292438049316E+02  0.000000000000E+00
  0.303791980743E+02  0.292438049316E+02 -0.658130764961E+00
  0.303791980743E+02  0.292438049316E+02  0.658130764961E+00
  0.303820724487E+02  0.113820018768E+02  0.000000000000E+00
  0.334741249084E+02  0.292438049316E+02 -0.108748245239E+01
  0.334741249084E+02  0.292438049316E+02  0.108748245239E+01
  0.342964897156E+02  0.197561950684E+02 -0.479616105556E+00
  0.342964897156E+02  0.197561950684E+02  0.479616105556E+00
  0.374068183899E+02  0.197561950684E+02 -0.144199773669E+00
  0.374068183899E+02  0.197561950684E+02  0.144199773669E+00
  0.376179962158E+02  0.376179962158E+02  0.000000000000E+00
  0.386389808655E+02  0.292438049316E+02 -0.980755090714E+00
  0.386389808655E+02  0.292438049316E+02  0.980755090714E+00
  0.387533912659E+02  0.376179962158E+02 -0.658132553101E+00
  0.387533912659E+02  0.376179962158E+02  0.658132553101E+00
  0.387563171387E+02  0.197561950684E+02  0.000000000000E+00
  0.418483314514E+02  0.376179962158E+02 -0.108748543262E+01
  0.418483314514E+02  0.376179962158E+02  0.108748543262E+01
  0.435296669006E+02  0.435296669006E+02  0.000000000000E+00
  0.437841453552E+02  0.292438049316E+02 -0.479617565870E+00
  0.437841453552E+02  0.292438049316E+02  0.479617565870E+00
  0.446650657654E+02  0.435296669006E+02 -0.658133804798E+00
  0.446650657654E+02  0.435296669006E+02  0.658133804798E+00
  0.468944816589E+02  0.292438049316E+02 -0.144200220704E+00
  0.468944816589E+02  0.292438049316E+02  0.144200220704E+00
  0.470131988525E+02  0.376179962158E+02 -0.980757772923E+00
  0.470131988525E+02  0.376179962158E+02  0.980757772923E+00
  0.470762481689E+02  0.470762481689E+02  0.000000000000E+00
  0.477600097656E+02  0.435296669006E+02 -0.108748745918E+01
  0.477600097656E+02  0.435296669006E+02  0.108748745918E+01
  0.482116432190E+02  0.470762481689E+02 -0.658134579659E+00
  0.482116432190E+02  0.470762481689E+02  0.658134579659E+00
  0.482439842224E+02  0.292438049316E+02  0.000000000000E+00
  0.490000000000E+02  0.490000000000E+02  0.000000000000E+00
  0.501353988647E+02  0.490000000000E+02 -0.658134996891E+00
  0.501353988647E+02  0.490000000000E+02  0.658134996891E+00
  0.506007728577E+02  0.494653701782E+02 -0.465371757746E+00
  0.506007728577E+02  0.494653701782E+02  0.465371757746E+00
  0.507935333252E+02  0.496581344604E+02 -0.771266485397E-15
  0.513065910339E+02  0.470762481689E+02 -0.108748877048E+01
  0.513065910339E+02  0.470762481689E+02  0.108748877048E+01
  0.521583786011E+02  0.376179962158E+02 -0.479618877172E+00
  0.521583786011E+02  0.376179962158E+02  0.479618877172E+00
  0.529248886108E+02  0.435296669006E+02 -0.980759620667E+00
  0.529248886108E+02  0.435296669006E+02  0.980759620667E+00
  0.532303466797E+02  0.490000000000E+02 -0.108748936653E+01
  0.532303466797E+02  0.490000000000E+02  0.108748936653E+01
  0.539993209839E+02  0.497689704895E+02 -0.768971264362E+00
  0.539993209839E+02  0.497689704895E+02  0.768971264362E+00
  0.543178405762E+02  0.500874900818E+02 -0.157378642191E-15
  0.552687225342E+02  0.376179962158E+02 -0.144200608134E+00
  0.552687225342E+02  0.376179962158E+02  0.144200608134E+00
  0.564714775085E+02  0.470762481689E+02 -0.980760753155E+00
  0.564714775085E+02  0.470762481689E+02  0.980760753155E+00
  0.566182289124E+02  0.376179962158E+02  0.000000000000E+00
  0.580700759888E+02  0.435296669006E+02 -0.479619771242E+00
  0.580700759888E+02  0.435296669006E+02  0.479619771242E+00
  0.583952369690E+02  0.490000000000E+02 -0.980761349201E+00
  0.583952369690E+02  0.490000000000E+02  0.980761349201E+00
  0.590887413025E+02  0.496935043335E+02 -0.693503141403E+00
  0.590887413025E+02  0.496935043335E+02  0.693503141403E+00
  0.593759994507E+02  0.499807624817E+02  0.000000000000E+00
  0.611804275513E+02  0.435296669006E+02 -0.144200876355E+00
  0.611804275513E+02  0.435296669006E+02  0.144200876355E+00
  0.616166725159E+02  0.470762481689E+02 -0.479620337486E+00
  0.616166725159E+02  0.470762481689E+02  0.479620337486E+00
  0.625299339294E+02  0.435296669006E+02  0.000000000000E+00
  0.635404319763E+02  0.490000000000E+02 -0.479620635509E+00
  0.635404319763E+02  0.490000000000E+02  0.479620635509E+00
  0.638795776367E+02  0.493391418457E+02 -0.339143037796E+00
  0.638795776367E+02  0.493391418457E+02  0.339143037796E+00
  0.640200576782E+02  0.494796218872E+02  0.296956834055E-15
  0.647270278931E+02  0.470762481689E+02 -0.144201040268E+00
  0.647270278931E+02  0.470762481689E+02  0.144201040268E+00
  0.660765380859E+02  0.470762481689E+02  0.000000000000E+00
  0.666507873535E+02  0.490000000000E+02 -0.144201144576E+00
  0.666507873535E+02  0.490000000000E+02  0.144201144576E+00
  0.667527542114E+02  0.491019668579E+02 -0.101965606213E+00
  0.667527542114E+02  0.491019668579E+02  0.101965606213E+00
  0.667949905396E+02  0.491441993713E+02 -0.260488604752E-16
  0.680002975464E+02  0.490000000000E+02  0.000000000000E+00
  0.209237651825E+02  0.192375373840E+01  0.000000000000E+00
  0.190000000000E+02  0.000000000000E+00  0.000000000000E+00
  0.244703655243E+02  0.547033166885E+01  0.000000000000E+00
  0.303820724487E+02  0.113820018768E+02  0.000000000000E+00
  0.387563171387E+02  0.197561950684E+02  0.000000000000E+00
  0.482439842224E+02  0.292438049316E+02  0.000000000000E+00
  0.566182289124E+02  0.376179962158E+02  0.000000000000E+00
  0.625299339294E+02  0.435296669006E+02  0.000000000000E+00
  0.660765380859E+02  0.470762481689E+02  0.000000000000E+00
POLYGONS                 256                1024
3                  32                  33                  42
3                  32                  30                  33
3                  30                  28                  33
3                  30                  22                  28
3                  22                  17                  28
3                  22                  13                  17
3                  13                   6                  17
3                  17                   6                   9
3                   6                   1                   9
3                   9                   1                   4
3                   1                   0                   4
3                   4                   0                   3
3                   0                   5                   3
3                   0                   2                   5
3                   2                  10                   5
3                   2                   7                  10
[...]
CELL_DATA                 256
SCALARS sigma float 1
LOOKUP_TABLE default
  0.000000000000E+00
  0.000000000000E+00
  0.000000000000E+00
  0.000000000000E+00
  0.000000000000E+00
  0.000000000000E+00
  0.000000000000E+00
  0.000000000000E+00
  0.000000000000E+00
  0.000000000000E+00
  0.000000000000E+00
  0.000000000000E+00
  0.000000000000E+00
  0.000000000000E+00
  0.000000000000E+00
  0.000000000000E+00
  0.000000000000E+00
  0.000000000000E+00
  0.000000000000E+00
  0.000000000000E+00
  0.000000000000E+00
  0.000000000000E+00
  0.000000000000E+00
  0.000000000000E+00
  0.000000000000E+00
  0.000000000000E+00
  0.000000000000E+00
  0.000000000000E+00
  0.000000000000E+00
  0.000000000000E+00
  0.000000000000E+00
  0.000000000000E+00
  0.000000000000E+00
  0.000000000000E+00
  0.000000000000E+00
  0.000000000000E+00
  0.000000000000E+00
  0.000000000000E+00
  0.000000000000E+00
  0.000000000000E+00
  0.000000000000E+00
  0.000000000000E+00
  0.000000000000E+00
  0.000000000000E+00
  0.000000000000E+00
  0.000000000000E+00
  0.000000000000E+00
  0.000000000000E+00
  0.000000000000E+00
  0.000000000000E+00
  0.000000000000E+00
  0.000000000000E+00
  0.000000000000E+00
  0.000000000000E+00
  0.000000000000E+00
  0.000000000000E+00
  0.000000000000E+00
  0.000000000000E+00
  0.000000000000E+00
  0.000000000000E+00
  0.000000000000E+00
  0.000000000000E+00
  0.000000000000E+00
  0.000000000000E+00
  0.000000000000E+00
  0.000000000000E+00
  0.000000000000E+00
  0.000000000000E+00
  0.000000000000E+00
  0.000000000000E+00
  0.000000000000E+00
  0.000000000000E+00
  0.000000000000E+00
  0.000000000000E+00
  0.000000000000E+00
  0.000000000000E+00
  0.000000000000E+00
  0.000000000000E+00
  0.000000000000E+00
  0.000000000000E+00
  0.000000000000E+00
  0.000000000000E+00
  0.000000000000E+00
  0.000000000000E+00
  0.000000000000E+00
  0.000000000000E+00
  0.000000000000E+00
  0.000000000000E+00
  0.000000000000E+00
  0.000000000000E+00
  0.000000000000E+00
  0.000000000000E+00
  0.000000000000E+00
  0.000000000000E+00
  0.000000000000E+00
  0.000000000000E+00
  0.000000000000E+00
  0.000000000000E+00
  0.000000000000E+00
  0.000000000000E+00
  0.000000000000E+00
  0.000000000000E+00
  0.000000000000E+00
  0.000000000000E+00
  0.000000000000E+00
  0.000000000000E+00
  0.000000000000E+00
  0.000000000000E+00
  0.000000000000E+00
  0.000000000000E+00
  0.000000000000E+00
  0.000000000000E+00
  0.000000000000E+00
  0.000000000000E+00
  0.000000000000E+00
  0.000000000000E+00
  0.000000000000E+00
  0.000000000000E+00
  0.000000000000E+00
  0.000000000000E+00
  0.000000000000E+00
  0.000000000000E+00
  0.000000000000E+00
  0.000000000000E+00
  0.000000000000E+00
  0.000000000000E+00
  0.000000000000E+00
  0.000000000000E+00
  0.000000000000E+00
  0.000000000000E+00
  0.000000000000E+00
  0.000000000000E+00
  0.000000000000E+00
  0.000000000000E+00
  0.000000000000E+00
  0.000000000000E+00
  0.000000000000E+00
  0.000000000000E+00
  0.000000000000E+00
  0.000000000000E+00
  0.000000000000E+00
  0.000000000000E+00
  0.000000000000E+00
  0.000000000000E+00
  0.000000000000E+00
  0.000000000000E+00
  0.000000000000E+00
  0.000000000000E+00
  0.000000000000E+00
  0.000000000000E+00
  0.000000000000E+00
  0.000000000000E+00
  0.000000000000E+00
  0.000000000000E+00
  0.000000000000E+00
  0.000000000000E+00
  0.000000000000E+00
  0.000000000000E+00
  0.000000000000E+00
  0.000000000000E+00
  0.000000000000E+00
  0.000000000000E+00
  0.000000000000E+00
  0.000000000000E+00
  0.000000000000E+00
  0.000000000000E+00
  0.000000000000E+00
  0.000000000000E+00
  0.000000000000E+00
  0.000000000000E+00
  0.000000000000E+00
  0.000000000000E+00
  0.000000000000E+00
  0.000000000000E+00
  0.000000000000E+00
  0.000000000000E+00
  0.000000000000E+00
  0.000000000000E+00
  0.000000000000E+00
  0.000000000000E+00
  0.000000000000E+00
  0.000000000000E+00
  0.000000000000E+00
  0.000000000000E+00
  0.000000000000E+00
  0.000000000000E+00
  0.000000000000E+00
  0.000000000000E+00
  0.000000000000E+00
  0.000000000000E+00
  0.000000000000E+00
  0.000000000000E+00
  0.000000000000E+00
  0.000000000000E+00
  0.000000000000E+00
  0.000000000000E+00
  0.000000000000E+00
  0.000000000000E+00
  0.000000000000E+00
  0.000000000000E+00
  0.000000000000E+00
  0.000000000000E+00
  0.000000000000E+00
  0.000000000000E+00
  0.000000000000E+00
  0.000000000000E+00
  0.000000000000E+00
  0.000000000000E+00
  0.000000000000E+00
  0.000000000000E+00
  0.000000000000E+00
  0.000000000000E+00
  0.000000000000E+00
  0.000000000000E+00
  0.000000000000E+00
  0.000000000000E+00
  0.000000000000E+00
  0.000000000000E+00
  0.000000000000E+00
  0.000000000000E+00
  0.000000000000E+00
  0.000000000000E+00
  0.000000000000E+00
  0.000000000000E+00
  0.000000000000E+00
  0.000000000000E+00
  0.000000000000E+00
  0.000000000000E+00
  0.000000000000E+00
  0.000000000000E+00
  0.000000000000E+00
  0.000000000000E+00
  0.000000000000E+00
  0.000000000000E+00
  0.000000000000E+00
  0.000000000000E+00
  0.000000000000E+00
  0.000000000000E+00
  0.000000000000E+00
  0.000000000000E+00
  0.000000000000E+00
  0.000000000000E+00
  0.000000000000E+00
  0.000000000000E+00
  0.000000000000E+00
  0.000000000000E+00
  0.000000000000E+00
  0.000000000000E+00
  0.000000000000E+00
  0.000000000000E+00
  0.000000000000E+00
  0.000000000000E+00
  0.000000000000E+00
  0.000000000000E+00
  0.000000000000E+00
  0.000000000000E+00
SCALARS C_p_inc float 1
LOOKUP_TABLE default
  0.134891724905E+00
  0.114191479033E+00
  0.751048575823E-01
  0.561846579009E-01
  0.218404315643E-01
  0.847770038385E-02
  0.488535397232E-01
  0.263884455640E-01
  0.245016948542E+00
  0.178720247520E+00
  0.593111926202E+00
  0.594415817471E+00
 -0.527105589904E+00
  0.178022728355E-01
 -0.653303590653E+00
 -0.457976783658E+00
 -0.464544755447E+00
 -0.475362474858E+00
 -0.334901505178E+00
 -0.273909951666E+00
 -0.149663515083E+00
 -0.712758285041E-01
  0.126066661572E-01
  0.990150833364E-01
  0.130213899932E+00
  0.133548202462E+00
  0.775327796724E-01
  0.749740918813E-01
  0.300708636737E-01
  0.219664615426E-01
  0.270563731641E-01
  0.224450290075E-01
  0.173565348140E+00
  0.175598119407E+00
  0.521771215077E+00
  0.508555262054E+00
 -0.810208740570E+00
 -0.502605954093E+00
 -0.790352327841E+00
 -0.648081221199E+00
 -0.477266997358E+00
 -0.482076561258E+00
 -0.274581033544E+00
 -0.220367039160E+00
 -0.710295370632E-01
 -0.251727169363E-01
  0.958934545882E-01
  0.112347069498E+00
  0.128817348729E+00
  0.129448751681E+00
  0.754060281643E-01
  0.772502348466E-01
  0.323247259594E-01
  0.302026077554E-01
  0.226136428467E-01
  0.326909108097E-01
  0.174183966828E+00
  0.195595048130E+00
  0.511497703432E+00
  0.495773424065E+00
 -0.999367095535E+00
 -0.804697476003E+00
 -0.868552176650E+00
 -0.794522009855E+00
 -0.479561064220E+00
 -0.492914417358E+00
 -0.221742186515E+00
 -0.195932992095E+00
 -0.251715053319E-01
 -0.103229019217E-01
  0.112427224317E+00
  0.119601260700E+00
  0.126206907063E+00
  0.127913519718E+00
  0.722135829335E-01
  0.750190298118E-01
  0.313496488462E-01
  0.323139646711E-01
  0.326961887383E-01
  0.383482319965E-01
  0.196170747898E+00
  0.212920878743E+00
  0.506103791378E+00
  0.493950262503E+00
 -0.109639962379E+01
 -0.999357736290E+00
 -0.905403397557E+00
 -0.875272459985E+00
 -0.485050916263E+00
 -0.488181195781E+00
 -0.197313592856E+00
 -0.188945639349E+00
 -0.102647458541E-01
 -0.218692856418E-02
  0.120708799857E+00
  0.127375578451E+00
  0.117251005724E+00
  0.124708616479E+00
  0.613793654722E-01
  0.715439602210E-01
  0.223605056228E-01
  0.312010757782E-01
  0.382261838897E-01
  0.332490892507E-01
  0.212602997618E+00
  0.214508481426E+00
  0.497473448678E+00
  0.493812595617E+00
 -0.112161673695E+01
 -0.109677179262E+01
 -0.910550693115E+00
 -0.909022854778E+00
 -0.478617461359E+00
 -0.489412936844E+00
 -0.190265918307E+00
 -0.176171722519E+00
 -0.222144815211E-02
  0.149611675969E-01
  0.128914550680E+00
  0.144805366043E+00
  0.103761649455E+00
  0.113693600287E+00
  0.391074294841E-01
  0.596463783558E-01
 -0.424026663859E-02
  0.218862247196E-01
  0.326639088633E-01
  0.830464485873E-02
  0.212249246808E+00
  0.195944003598E+00
  0.489675044066E+00
  0.496132618911E+00
 -0.107905265049E+01
 -0.112187178268E+01
 -0.879909990847E+00
 -0.914032928885E+00
 -0.449163166448E+00
 -0.483833770659E+00
 -0.177437888224E+00
 -0.141680073925E+00
  0.147368260495E-01
  0.600258557472E-01
  0.147211513511E+00
  0.191310100138E+00
  0.187964421025E+00
  0.897241204761E-01
 -0.154166844583E-02
  0.312769014523E-01
 -0.630032193578E-01
 -0.660842103383E-02
  0.539058613897E-02
 -0.516949553364E-01
  0.188996341890E+00
  0.147847623778E+00
  0.479894224815E+00
  0.496224712006E+00
 -0.985452948368E+00
 -0.107905479078E+01
 -0.821702927928E+00
 -0.884566617595E+00
 -0.400072887865E+00
 -0.457369291352E+00
 -0.142166377143E+00
 -0.909349088185E-01
  0.597716299366E-01
  0.132606435407E+00
  0.194503384092E+00
  0.378564783164E+00
 -0.223873099764E+02
 -0.883288601394E-01
  0.679723714994E+00
 -0.143775347547E+00
 -0.454263342335E+00
 -0.755781784339E-01
 -0.667335497517E-01
 -0.140743160510E+00
  0.126816362404E+00
  0.533535745025E-01
  0.452745776071E+00
  0.481736232342E+00
 -0.863147921991E+00
 -0.984536256053E+00
 -0.740524352449E+00
 -0.828988069031E+00
 -0.341851202164E+00
 -0.414121992131E+00
 -0.905523791399E-01
 -0.308993756175E+00
  0.102748185544E+00
  0.774855775766E+00
 -0.250606600852E+00
 -0.216692145982E+02
 -0.402962808288E+08
 -0.210589786428E+05
 -0.118444553313E+05
  0.869374184785E+00
  0.102338548578E+00
 -0.448381193241E+00
 -0.229087522585E+00
 -0.262982733599E+00
 -0.119109987902E-01
 -0.423087465450E-01
  0.308864927023E+00
  0.395741529996E+00
 -0.676256956096E+00
 -0.859253778661E+00
 -0.523901005175E+00
 -0.790595762491E+00
 -0.356627039969E+00
 -0.368782598246E+00
 -0.357103496610E+00
 -0.630998062001E+00
  0.846334647722E+00
 -0.117458307289E+05
 -0.209074195763E+05
 -0.402992762309E+08
 -0.839347488226E+08
 -0.476647664038E+06
 -0.177982307917E+05
 -0.240574076934E+02
 -0.538148972754E+00
 -0.643823816358E+00
 -0.443038038096E+00
 -0.267035301156E+00
 -0.286315839864E+00
 -0.117530973106E+00
 -0.675685245655E+00
 -0.477371560141E+00
 -0.662509552572E+00
 -0.537525709149E+00
 -0.454815877705E+00
  0.617826518424E+00
 -0.389716419759E+02
 -0.180041636406E+05
 -0.474057847433E+06
 -0.839151576839E+08
 -0.573664194563E+08
 -0.570381238073E+06
 -0.212891796525E+05
 -0.360657353528E+02
 -0.388211654852E+00
 -0.896386872724E+00
 -0.681442927739E+00
 -0.499413128189E+00
 -0.527085871236E+00
 -0.388324220410E+00
 -0.577627242658E+00
 -0.589866528236E+00
 -0.612553676693E+00
 -0.727355124226E+00
 -0.684495452433E+00
  0.975004679482E+00
 -0.617035146229E+02
 -0.214904789038E+05
 -0.566438277757E+06
 -0.573499553217E+08
SCALARS inclination float 1
LOOKUP_TABLE default
  0.100000000000E+01
  0.100000000000E+01
  0.100000000000E+01
  0.100000000000E+01
  0.100000000000E+01
  0.100000000000E+01
  0.100000000000E+01
  0.100000000000E+01
  0.100000000000E+01
  0.100000000000E+01
  0.100000000000E+01
  0.100000000000E+01
  0.100000000000E+01
  0.100000000000E+01
  0.100000000000E+01
  0.100000000000E+01
  0.100000000000E+01
  0.100000000000E+01
  0.100000000000E+01
  0.100000000000E+01
  0.100000000000E+01
  0.100000000000E+01
  0.100000000000E+01
  0.100000000000E+01
  0.100000000000E+01
  0.100000000000E+01
  0.100000000000E+01
  0.100000000000E+01
  0.100000000000E+01
  0.100000000000E+01
  0.100000000000E+01
  0.100000000000E+01
  0.100000000000E+01
  0.100000000000E+01
  0.100000000000E+01
  0.100000000000E+01
  0.100000000000E+01
  0.100000000000E+01
  0.100000000000E+01
  0.100000000000E+01
  0.100000000000E+01
  0.100000000000E+01
  0.100000000000E+01
  0.100000000000E+01
  0.100000000000E+01
  0.100000000000E+01
  0.100000000000E+01
  0.100000000000E+01
  0.100000000000E+01
  0.100000000000E+01
  0.100000000000E+01
  0.100000000000E+01
  0.100000000000E+01
  0.100000000000E+01
  0.100000000000E+01
  0.100000000000E+01
  0.100000000000E+01
  0.100000000000E+01
  0.100000000000E+01
  0.100000000000E+01
  0.100000000000E+01
  0.100000000000E+01
  0.100000000000E+01
  0.100000000000E+01
  0.100000000000E+01
  0.100000000000E+01
  0.100000000000E+01
  0.100000000000E+01
  0.100000000000E+01
  0.100000000000E+01
  0.100000000000E+01
  0.100000000000E+01
  0.100000000000E+01
  0.100000000000E+01
  0.100000000000E+01
  0.100000000000E+01
  0.100000000000E+01
  0.100000000000E+01
  0.100000000000E+01
  0.100000000000E+01
  0.100000000000E+01
  0.100000000000E+01
  0.100000000000E+01
  0.100000000000E+01
  0.100000000000E+01
  0.100000000000E+01
  0.100000000000E+01
  0.100000000000E+01
  0.100000000000E+01
  0.100000000000E+01
  0.100000000000E+01
  0.100000000000E+01
  0.100000000000E+01
  0.100000000000E+01
  0.100000000000E+01
  0.100000000000E+01
  0.100000000000E+01
  0.100000000000E+01
  0.100000000000E+01
  0.100000000000E+01
  0.100000000000E+01
  0.100000000000E+01
  0.100000000000E+01
  0.100000000000E+01
  0.100000000000E+01
  0.100000000000E+01
  0.100000000000E+01
  0.100000000000E+01
  0.100000000000E+01
  0.100000000000E+01
  0.100000000000E+01
  0.100000000000E+01
  0.100000000000E+01
  0.100000000000E+01
  0.100000000000E+01
  0.100000000000E+01
  0.100000000000E+01
  0.100000000000E+01
  0.100000000000E+01
  0.100000000000E+01
  0.100000000000E+01
  0.100000000000E+01
  0.100000000000E+01
  0.100000000000E+01
  0.100000000000E+01
  0.100000000000E+01
  0.100000000000E+01
  0.100000000000E+01
  0.100000000000E+01
  0.100000000000E+01
  0.100000000000E+01
  0.100000000000E+01
  0.100000000000E+01
  0.100000000000E+01
  0.100000000000E+01
  0.100000000000E+01
  0.100000000000E+01
  0.100000000000E+01
  0.100000000000E+01
  0.100000000000E+01
  0.100000000000E+01
  0.100000000000E+01
  0.100000000000E+01
  0.100000000000E+01
  0.100000000000E+01
  0.100000000000E+01
  0.100000000000E+01
  0.100000000000E+01
  0.100000000000E+01
  0.100000000000E+01
  0.100000000000E+01
  0.100000000000E+01
  0.100000000000E+01
  0.100000000000E+01
  0.100000000000E+01
  0.100000000000E+01
  0.100000000000E+01
  0.100000000000E+01
  0.100000000000E+01
  0.100000000000E+01
  0.100000000000E+01
  0.100000000000E+01
  0.100000000000E+01
  0.100000000000E+01
  0.100000000000E+01
  0.100000000000E+01
  0.100000000000E+01
  0.100000000000E+01
  0.100000000000E+01
  0.100000000000E+01
  0.100000000000E+01
  0.100000000000E+01
  0.100000000000E+01
  0.100000000000E+01
  0.100000000000E+01
  0.100000000000E+01
  0.100000000000E+01
  0.100000000000E+01
  0.100000000000E+01
  0.100000000000E+01
  0.100000000000E+01
  0.100000000000E+01
  0.100000000000E+01
  0.100000000000E+01
  0.100000000000E+01
  0.100000000000E+01
  0.100000000000E+01
  0.100000000000E+01
  0.100000000000E+01
  0.100000000000E+01
  0.100000000000E+01
  0.100000000000E+01
  0.100000000000E+01
  0.100000000000E+01
  0.100000000000E+01
  0.100000000000E+01
  0.100000000000E+01
  0.100000000000E+01
  0.100000000000E+01
  0.100000000000E+01
  0.100000000000E+01
  0.100000000000E+01
  0.100000000000E+01
  0.100000000000E+01
  0.100000000000E+01
  0.100000000000E+01
  0.100000000000E+01
  0.100000000000E+01
  0.100000000000E+01
  0.100000000000E+01
  0.100000000000E+01
  0.100000000000E+01
  0.100000000000E+01
  0.100000000000E+01
  0.100000000000E+01
  0.100000000000E+01
  0.100000000000E+01
  0.100000000000E+01
  0.100000000000E+01
  0.100000000000E+01
  0.100000000000E+01
  0.100000000000E+01
  0.100000000000E+01
  0.100000000000E+01
  0.100000000000E+01
  0.100000000000E+01
  0.100000000000E+01
  0.100000000000E+01
  0.100000000000E+01
  0.100000000000E+01
  0.100000000000E+01
  0.100000000000E+01
  0.100000000000E+01
  0.100000000000E+01
  0.100000000000E+01
  0.100000000000E+01
  0.100000000000E+01
  0.100000000000E+01
  0.100000000000E+01
  0.100000000000E+01
  0.100000000000E+01
  0.100000000000E+01
  0.100000000000E+01
  0.100000000000E+01
  0.100000000000E+01
  0.100000000000E+01
  0.100000000000E+01
  0.100000000000E+01
  0.100000000000E+01
  0.100000000000E+01
  0.100000000000E+01
  0.100000000000E+01
  0.100000000000E+01
  0.100000000000E+01
  0.100000000000E+01
  0.100000000000E+01
VECTORS v float
  0.150750867855E+03  0.333175613856E+01  0.157523649947E+02
  0.152548794448E+03  0.281359533156E+01  0.159998621012E+02
  0.155849499038E+03 -0.487125581312E+00  0.168592822221E+02
  0.157446962988E+03  0.509463727511E+00  0.169240691536E+02
  0.160409104444E+03 -0.245269257675E+01  0.158626947410E+02
  0.161536612209E+03 -0.583481853962E+00  0.157904541842E+02
  0.158922547836E+03  0.203058640659E+01  0.324203812568E+01
  0.160731552785E+03 -0.464488549793E+01  0.341736272388E+01
  0.139629225075E+03  0.164574620120E+02 -0.170873094254E+02
  0.146276226141E+03 -0.164954246203E+01 -0.205213649431E+02
  0.825755974742E+02  0.620511117598E+02 -0.118970359282E+02
  0.831358863636E+02  0.608011757431E+02 -0.129463343229E+02
  0.167024082822E+03 -0.230870207155E+02  0.110198065546E+03
  0.144146779721E+03  0.279494464958E+02  0.673538844434E+02
  0.204451733983E+03 -0.323555227048E+02  0.328516623907E+02
  0.194748351557E+03 -0.592267194350E+01  0.278385827235E+02
  0.197043075319E+03 -0.821738860999E+01 -0.424153284132E+01
  0.197661702047E+03 -0.105002047689E+02 -0.430149257285E+01
  0.187437051944E+03 -0.275519922149E+00 -0.182831544979E+02
  0.182865385515E+03 -0.785454178891E+01 -0.185760722323E+02
  0.173774797721E+03  0.123609107475E+01 -0.186064958570E+02
  0.167687481685E+03 -0.256152946303E+01 -0.183595898816E+02
  0.161046859980E+03  0.407912508774E+01 -0.167726895878E+02
  0.153790054000E+03  0.617053281597E+01 -0.157737778051E+02
  0.151086482634E+03  0.663011901268E+01  0.154357759693E+02
  0.150790152112E+03  0.681162016905E+01  0.153847218203E+02
  0.155661371631E+03  0.194037254310E+01  0.165772106605E+02
  0.155877127992E+03  0.191627738683E+01  0.166030781137E+02
  0.159744198502E+03 -0.195081145013E+01  0.157490508510E+02
  0.160416716667E+03 -0.164267630616E+01  0.157845402678E+02
  0.160732699346E+03 -0.195866392838E+01  0.336187716197E+01
  0.161099345445E+03 -0.286003911753E+01  0.338808172227E+01
  0.146528495132E+03  0.117108226184E+02 -0.187029145679E+02
  0.146322518021E+03  0.121066510779E+02 -0.186194329994E+02
  0.860481566598E+02  0.723810389078E+02 -0.792215429690E+01
  0.807624347150E+02  0.808370120222E+02  0.432287931064E-01
  0.183161858797E+03 -0.215624120598E+02  0.118668580073E+03
  0.171927488272E+03 -0.358993472355E+01  0.101738826116E+03
  0.210978082774E+03 -0.426405315541E+02  0.351838692628E+02
  0.204492854067E+03 -0.301777747141E+02  0.325552532611E+02
  0.196784423345E+03 -0.224693199158E+02 -0.453070019306E+01
  0.197036727376E+03 -0.230895925828E+02 -0.454872899982E+01
  0.182855482720E+03 -0.890829956180E+01 -0.186777439317E+02
  0.178793326102E+03 -0.107695039619E+02 -0.184633742694E+02
  0.167720416880E+03  0.303457304275E+00 -0.180541808325E+02
  0.164094080554E+03  0.708440767079E+00 -0.176194425296E+02
  0.153844105186E+03  0.109584752851E+02 -0.152679377758E+02
  0.152374480763E+03  0.118586128086E+02 -0.150147136191E+02
  0.151158704110E+03  0.796029048491E+01  0.153013662401E+02
  0.151101990104E+03  0.800379694725E+01  0.152906487025E+02
  0.155833747125E+03  0.327201211982E+01  0.164521862171E+02
  0.155677514829E+03  0.334464668504E+01  0.164275142850E+02
  0.159582446333E+03 -0.560302902333E+00  0.155978600759E+02
  0.159757068354E+03 -0.581330633643E+00  0.156169164763E+02
  0.161099744972E+03 -0.192401508688E+01  0.336874742445E+01
  0.160278710067E+03 -0.384788103264E+00  0.331997409866E+01
  0.146349663092E+03  0.135442727648E+02 -0.184237611088E+02
  0.144126894367E+03  0.169878101606E+02 -0.176376810373E+02
  0.806650295278E+02  0.804497044784E+02 -0.124812367486E+00
  0.753792186993E+02  0.875499811984E+02  0.705479102695E+01