# vtk DataFile Version 3.0
TriPan results file. Generated by TriPan, USU AeroLab (c) 2021.
ASCII
DATASET POLYDATA
POINTS                 144 float
  0.000000000000E+00  0.000000000000E+00  0.000000000000E+00
  0.113538098335E+01  0.000000000000E+00 -0.658124566078E+00
  0.113538098335E+01  0.000000000000E+00  0.658124566078E+00
  0.192375373840E+01  0.192375373840E+01  0.000000000000E+00
  0.305913543701E+01  0.192375373840E+01 -0.658124983311E+00
  0.305913543701E+01  0.192375373840E+01  0.658124983311E+00
  0.423028087616E+01  0.000000000000E+00 -0.108747220039E+01
  0.423028087616E+01  0.000000000000E+00  0.108747220039E+01
  0.547033166885E+01  0.547033166885E+01  0.000000000000E+00
  0.615403699875E+01  0.192375373840E+01 -0.108747279644E+01
  0.615403699875E+01  0.192375373840E+01  0.108747279644E+01
  0.660571479797E+01  0.547033166885E+01 -0.658125698566E+00
  0.660571479797E+01  0.547033166885E+01  0.658125698566E+00
  0.939508819580E+01  0.000000000000E+00 -0.980745851994E+00
  0.939508819580E+01  0.000000000000E+00  0.980745851994E+00
  0.970061969757E+01  0.547033166885E+01 -0.108747410774E+01
  0.970061969757E+01  0.547033166885E+01  0.108747410774E+01
  0.113188476562E+02  0.192375373840E+01 -0.980746448040E+00
  0.113188476562E+02  0.192375373840E+01  0.980746448040E+00
  0.113820018768E+02  0.113820018768E+02  0.000000000000E+00
  0.125173873901E+02  0.113820018768E+02 -0.658127009869E+00
  0.125173873901E+02  0.113820018768E+02  0.658127009869E+00
  0.145402030945E+02  0.000000000000E+00 -0.479613035917E+00
  0.145402030945E+02  0.000000000000E+00  0.479613035917E+00
  0.148654365540E+02  0.547033166885E+01 -0.980747580528E+00
  0.148654365540E+02  0.547033166885E+01  0.980747580528E+00
  0.156122989655E+02  0.113820018768E+02 -0.108747613430E+01
  0.156122989655E+02  0.113820018768E+02  0.108747613430E+01
  0.164639663696E+02  0.192375373840E+01 -0.479613333941E+00
  0.164639663696E+02  0.192375373840E+01  0.479613333941E+00
  0.176505107880E+02  0.000000000000E+00 -0.144198849797E+00
  0.176505107880E+02  0.000000000000E+00  0.144198849797E+00
  0.190000000000E+02  0.000000000000E+00  0.000000000000E+00
  0.195742740631E+02  0.192375373840E+01 -0.144198939204E+00
  0.195742740631E+02  0.192375373840E+01  0.144198939204E+00
  0.197561950684E+02  0.197561950684E+02  0.000000000000E+00
  0.200105609894E+02  0.547033166885E+01 -0.479613870382E+00
  0.200105609894E+02  0.547033166885E+01  0.479613870382E+00
  0.207771244049E+02  0.113820018768E+02 -0.980749428272E+00
  0.207771244049E+02  0.113820018768E+02  0.980749428272E+00
  0.208915824890E+02  0.197561950684E+02 -0.658128738403E+00
  0.208915824890E+02  0.197561950684E+02  0.658128738403E+00
  0.209237651825E+02  0.192375373840E+01  0.000000000000E+00
  0.231208724976E+02  0.547033166885E+01 -0.144199103117E+00
  0.231208724976E+02  0.547033166885E+01  0.144199103117E+00
  0.239865016937E+02  0.197561950684E+02 -0.108747911453E+01
  0.239865016937E+02  0.197561950684E+02  0.108747911453E+01
  0.244703655243E+02  0.547033166885E+01  0.000000000000E+00
  0.259222583771E+02  0.113820018768E+02 -0.479614794254E+00
  0.259222583771E+02  0.113820018768E+02  0.479614794254E+00
  0.290325775146E+02  0.113820018768E+02 -0.144199386239E+00
  0.290325775146E+02  0.113820018768E+02  0.144199386239E+00
  0.291513423920E+02  0.197561950684E+02 -0.980752110481E+00
  0.291513423920E+02  0.197561950684E+02  0.980752110481E+00
  0.292438049316E+02  0.292438049316E+02  0.000000000000E+00
  0.303791980743E+02  0.292438049316E+02 -0.658130764961E+00
  0.303791980743E+02  0.292438049316E+02  0.658130764961E+00
  0.303820724487E+02  0.113820018768E+02  0.000000000000E+00
  0.334741249084E+02  0.292438049316E+02 -0.108748245239E+01
  0.334741249084E+02  0.292438049316E+02  0.108748245239E+01
  0.342964897156E+02  0.197561950684E+02 -0.479616105556E+00
  0.342964897156E+02  0.197561950684E+02  0.479616105556E+00
  0.374068183899E+02  0.197561950684E+02 -0.144199773669E+00
  0.374068183899E+02  0.197561950684E+02  0.144199773669E+00
  0.376179962158E+02  0.376179962158E+02  0.000000000000E+00
  0.386389808655E+02  0.292438049316E+02 -0.980755090714E+00
  0.386389808655E+02  0.292438049316E+02  0.980755090714E+00
  0.387533912659E+02  0.376179962158E+02 -0.658132553101E+00
  0.387533912659E+02  0.376179962158E+02  0.658132553101E+00
  0.387563171387E+02  0.197561950684E+02  0.000000000000E+00
  0.418483314514E+02  0.376179962158E+02 -0.108748543262E+01
  0.418483314514E+02  0.376179962158E+02  0.108748543262E+01
  0.435296669006E+02  0.435296669006E+02  0.000000000000E+00
  0.437841453552E+02  0.292438049316E+02 -0.479617565870E+00
  0.437841453552E+02  0.292438049316E+02  0.479617565870E+00
  0.446650657654E+02  0.435296669006E+02 -0.658133804798E+00
  0.446650657654E+02  0.435296669006E+02  0.658133804798E+00
  0.468944816589E+02  0.292438049316E+02 -0.144200220704E+00
  0.468944816589E+02  0.292438049316E+02  0.144200220704E+00
  0.470131988525E+02  0.376179962158E+02 -0.980757772923E+00
  0.470131988525E+02  0.376179962158E+02  0.980757772923E+00
  0.470762481689E+02  0.470762481689E+02  0.000000000000E+00
  0.477600097656E+02  0.435296669006E+02 -0.108748745918E+01
  0.477600097656E+02  0.435296669006E+02  0.108748745918E+01
  0.482116432190E+02  0.470762481689E+02 -0.658134579659E+00
  0.482116432190E+02  0.470762481689E+02  0.658134579659E+00
  0.482439842224E+02  0.292438049316E+02  0.000000000000E+00
  0.490000000000E+02  0.490000000000E+02  0.000000000000E+00
  0.501353988647E+02  0.490000000000E+02 -0.658134996891E+00
  0.501353988647E+02  0.490000000000E+02  0.658134996891E+00
  0.506007728577E+02  0.494653701782E+02 -0.465371757746E+00
  0.506007728577E+02  0.494653701782E+02  0.465371757746E+00
  0.507935333252E+02  0.496581344604E+02 -0.771266485397E-15
  0.513065910339E+02  0.470762481689E+02 -0.108748877048E+01
  0.513065910339E+02  0.470762481689E+02  0.108748877048E+01
  0.521583786011E+02  0.376179962158E+02 -0.479618877172E+00
  0.521583786011E+02  0.376179962158E+02  0.479618877172E+00
  0.529248886108E+02  0.435296669006E+02 -0.980759620667E+00
  0.529248886108E+02  0.435296669006E+02  0.980759620667E+00
  0.532303466797E+02  0.490000000000E+02 -0.108748936653E+01
  0.532303466797E+02  0.490000000000E+02  0.108748936653E+01
  0.539993209839E+02  0.497689704895E+02 -0.768971264362E+00
  0.539993209839E+02  0.497689704895E+02  0.768971264362E+00
  0.543178405762E+02  0.500874900818E+02 -0.157378642191E-15
  0.552687225342E+02  0.376179962158E+02 -0.144200608134E+00
  0.552687225342E+02  0.376179962158E+02  0.144200608134E+00
  0.564714775085E+02  0.470762481689E+02 -0.980760753155E+00
  0.564714775085E+02  0.470762481689E+02  0.980760753155E+00
  0.566182289124E+02  0.376179962158E+02  0.000000000000E+00
  0.580700759888E+02  0.435296669006E+02 -0.479619771242E+00
  0.580700759888E+02  0.435296669006E+02  0.479619771242E+00
  0.583952369690E+02  0.490000000000E+02 -0.980761349201E+00
  0.583952369690E+02  0.490000000000E+02  0.980761349201E+00
  0.590887413025E+02  0.496935043335E+02 -0.693503141403E+00
  0.590887413025E+02  0.496935043335E+02  0.693503141403E+00
  0.593759994507E+02  0.499807624817E+02  0.000000000000E+00
  0.611804275513E+02  0.435296669006E+02 -0.144200876355E+00
  0.611804275513E+02  0.435296669006E+02  0.144200876355E+00
  0.616166725159E+02  0.470762481689E+02 -0.479620337486E+00
  0.616166725159E+02  0.470762481689E+02  0.479620337486E+00
  0.625299339294E+02  0.435296669006E+02  0.000000000000E+00
  0.635404319763E+02  0.490000000000E+02 -0.479620635509E+00
  0.635404319763E+02  0.490000000000E+02  0.479620635509E+00
  0.638795776367E+02  0.493391418457E+02 -0.339143037796E+00
  0.638795776367E+02  0.493391418457E+02  0.339143037796E+00
  0.640200576782E+02  0.494796218872E+02  0.296956834055E-15
  0.647270278931E+02  0.470762481689E+02 -0.144201040268E+00
  0.647270278931E+02  0.470762481689E+02  0.144201040268E+00
  0.660765380859E+02  0.470762481689E+02  0.000000000000E+00
  0.666507873535E+02  0.490000000000E+02 -0.144201144576E+00
  0.666507873535E+02  0.490000000000E+02  0.144201144576E+00
  0.667527542114E+02  0.491019668579E+02 -0.101965606213E+00
  0.667527542114E+02  0.491019668579E+02  0.101965606213E+00
  0.667949905396E+02  0.491441993713E+02 -0.260488604752E-16
  0.680002975464E+02  0.490000000000E+02  0.000000000000E+00
  0.209237651825E+02  0.192375373840E+01  0.000000000000E+00
  0.190000000000E+02  0.000000000000E+00  0.000000000000E+00
  0.244703655243E+02  0.547033166885E+01  0.000000000000E+00
  0.303820724487E+02  0.113820018768E+02  0.000000000000E+00
  0.387563171387E+02  0.197561950684E+02  0.000000000000E+00
  0.482439842224E+02  0.292438049316E+02  0.000000000000E+00
  0.566182289124E+02  0.376179962158E+02  0.000000000000E+00
  0.625299339294E+02  0.435296669006E+02  0.000000000000E+00
  0.660765380859E+02  0.470762481689E+02  0.000000000000E+00
POLYGONS                 256                1024
3                  32                  33                  42
3                  32                  30                  33
3                  30                  28                  33
3                  30                  22                  28
3                  22                  17                  28
3                  22                  13                  17
3                  13                   6                  17
3                  17                   6                   9
3                   6                   1                   9
3                   9                   1                   4
3                   1                   0                   4
3                   4                   0                   3
3                   0                   5                   3
3                   0                   2                   5
3                   2                  10                   5
3                   2                   7                  10
[...]
CELL_DATA                 256
SCALARS sigma float 1
LOOKUP_TABLE default
  0.000000000000E+00
  0.000000000000E+00
  0.000000000000E+00
  0.000000000000E+00
  0.000000000000E+00
  0.000000000000E+00
  0.000000000000E+00
  0.000000000000E+00
  0.000000000000E+00
  0.000000000000E+00
  0.000000000000E+00
  0.000000000000E+00
  0.000000000000E+00
  0.000000000000E+00
  0.000000000000E+00
  0.000000000000E+00
  0.000000000000E+00
  0.000000000000E+00
  0.000000000000E+00
  0.000000000000E+00
  0.000000000000E+00
  0.000000000000E+00
  0.000000000000E+00
  0.000000000000E+00
  0.000000000000E+00
  0.000000000000E+00
  0.000000000000E+00
  0.000000000000E+00
  0.000000000000E+00
  0.000000000000E+00
  0.000000000000E+00
  0.000000000000E+00
  0.000000000000E+00
  0.000000000000E+00
  0.000000000000E+00
  0.000000000000E+00
  0.000000000000E+00
  0.000000000000E+00
  0.000000000000E+00
  0.000000000000E+00
  0.000000000000E+00
  0.000000000000E+00
  0.000000000000E+00
  0.000000000000E+00
  0.000000000000E+00
  0.000000000000E+00
  0.000000000000E+00
  0.000000000000E+00
  0.000000000000E+00
  0.000000000000E+00
  0.000000000000E+00
  0.000000000000E+00
  0.000000000000E+00
  0.000000000000E+00
  0.000000000000E+00
  0.000000000000E+00
  0.000000000000E+00
  0.000000000000E+00
  0.000000000000E+00
  0.000000000000E+00
  0.000000000000E+00
  0.000000000000E+00
  0.000000000000E+00
  0.000000000000E+00
  0.000000000000E+00
  0.000000000000E+00
  0.000000000000E+00
  0.000000000000E+00
  0.000000000000E+00
  0.000000000000E+00
  0.000000000000E+00
  0.000000000000E+00
  0.000000000000E+00
  0.000000000000E+00
  0.000000000000E+00
  0.000000000000E+00
  0.000000000000E+00
  0.000000000000E+00
  0.000000000000E+00
  0.000000000000E+00
  0.000000000000E+00
  0.000000000000E+00
  0.000000000000E+00
  0.000000000000E+00
  0.000000000000E+00
  0.000000000000E+00
  0.000000000000E+00
  0.000000000000E+00
  0.000000000000E+00
  0.000000000000E+00
  0.000000000000E+00
  0.000000000000E+00
  0.000000000000E+00
  0.000000000000E+00
  0.000000000000E+00
  0.000000000000E+00
  0.000000000000E+00
  0.000000000000E+00
  0.000000000000E+00
  0.000000000000E+00
  0.000000000000E+00
  0.000000000000E+00
  0.000000000000E+00
  0.000000000000E+00
  0.000000000000E+00
  0.000000000000E+00
  0.000000000000E+00
  0.000000000000E+00
  0.000000000000E+00
  0.000000000000E+00
  0.000000000000E+00
  0.000000000000E+00
  0.000000000000E+00
  0.000000000000E+00
  0.000000000000E+00
  0.000000000000E+00
  0.000000000000E+00
  0.000000000000E+00
  0.000000000000E+00
  0.000000000000E+00
  0.000000000000E+00
  0.000000000000E+00
  0.000000000000E+00
  0.000000000000E+00
  0.000000000000E+00
  0.000000000000E+00
  0.000000000000E+00
  0.000000000000E+00
  0.000000000000E+00
  0.000000000000E+00
  0.000000000000E+00
  0.000000000000E+00
  0.000000000000E+00
  0.000000000000E+00
  0.000000000000E+00
  0.000000000000E+00
  0.000000000000E+00
  0.000000000000E+00
  0.000000000000E+00
  0.000000000000E+00
  0.000000000000E+00
  0.000000000000E+00
  0.000000000000E+00
  0.000000000000E+00
  0.000000000000E+00
  0.000000000000E+00
  0.000000000000E+00
  0.000000000000E+00
  0.000000000000E+00
  0.000000000000E+00
  0.000000000000E+00
  0.000000000000E+00
  0.000000000000E+00
  0.000000000000E+00
  0.000000000000E+00
  0.000000000000E+00
  0.000000000000E+00
  0.000000000000E+00
  0.000000000000E+00
  0.000000000000E+00
  0.000000000000E+00
  0.000000000000E+00
  0.000000000000E+00
  0.000000000000E+00
  0.000000000000E+00
  0.000000000000E+00
  0.000000000000E+00
  0.000000000000E+00
  0.000000000000E+00
  0.000000000000E+00
  0.000000000000E+00
  0.000000000000E+00
  0.000000000000E+00
  0.000000000000E+00
  0.000000000000E+00
  0.000000000000E+00
  0.000000000000E+00
  0.000000000000E+00
  0.000000000000E+00
  0.000000000000E+00
  0.000000000000E+00
  0.000000000000E+00
  0.000000000000E+00
  0.000000000000E+00
  0.000000000000E+00
  0.000000000000E+00
  0.000000000000E+00
  0.000000000000E+00
  0.000000000000E+00
  0.000000000000E+00
  0.000000000000E+00
  0.000000000000E+00
  0.000000000000E+00
  0.000000000000E+00
  0.000000000000E+00
  0.000000000000E+00
  0.000000000000E+00
  0.000000000000E+00
  0.000000000000E+00
  0.000000000000E+00
  0.000000000000E+00
  0.000000000000E+00
  0.000000000000E+00
  0.000000000000E+00
  0.000000000000E+00
  0.000000000000E+00
  0.000000000000E+00
  0.000000000000E+00
  0.000000000000E+00
  0.000000000000E+00
  0.000000000000E+00
  0.000000000000E+00
  0.000000000000E+00
  0.000000000000E+00
  0.000000000000E+00
  0.000000000000E+00
  0.000000000000E+00
  0.000000000000E+00
  0.000000000000E+00
  0.000000000000E+00
  0.000000000000E+00
  0.000000000000E+00
  0.000000000000E+00
  0.000000000000E+00
  0.000000000000E+00
  0.000000000000E+00
  0.000000000000E+00
  0.000000000000E+00
  0.000000000000E+00
  0.000000000000E+00
  0.000000000000E+00
  0.000000000000E+00
  0.000000000000E+00
  0.000000000000E+00
  0.000000000000E+00
  0.000000000000E+00
  0.000000000000E+00
  0.000000000000E+00
  0.000000000000E+00
  0.000000000000E+00
  0.000000000000E+00
  0.000000000000E+00
  0.000000000000E+00
  0.000000000000E+00
  0.000000000000E+00
  0.000000000000E+00
  0.000000000000E+00
  0.000000000000E+00
  0.000000000000E+00
  0.000000000000E+00
  0.000000000000E+00
  0.000000000000E+00
  0.000000000000E+00
  0.000000000000E+00
  0.000000000000E+00
  0.000000000000E+00
SCALARS C_p_inc float 1
LOOKUP_TABLE default
  0.134891724907E+00
  0.114191479036E+00
  0.751048575865E-01
  0.561846579055E-01
  0.218404315695E-01
  0.847770038906E-02
  0.488535397283E-01
  0.263884455694E-01
  0.245016948546E+00
  0.178720247526E+00
  0.593111926204E+00
  0.594415817473E+00
 -0.527105589917E+00
  0.178022728304E-01
 -0.653303590661E+00
 -0.457976783664E+00
 -0.464544755454E+00
 -0.475362474864E+00
 -0.334901505183E+00
 -0.273909951671E+00
 -0.149663515087E+00
 -0.712758285076E-01
  0.126066661551E-01
  0.990150833351E-01
  0.130213899936E+00
  0.133548202464E+00
  0.775327796778E-01
  0.749740918855E-01
  0.300708636796E-01
  0.219664615479E-01
  0.270563731695E-01
  0.224450290139E-01
  0.173565348145E+00
  0.175598119414E+00
  0.521771215078E+00
  0.508555262054E+00
 -0.810208740590E+00
 -0.502605954105E+00
 -0.790352327852E+00
 -0.648081221207E+00
 -0.477266997366E+00
 -0.482076561264E+00
 -0.274581033550E+00
 -0.220367039166E+00
 -0.710295370667E-01
 -0.251727169410E-01
  0.958934545866E-01
  0.112347069495E+00
  0.128817348748E+00
  0.129448751685E+00
  0.754060281790E-01
  0.772502348522E-01
  0.323247259700E-01
  0.302026077613E-01
  0.226136428530E-01
  0.326909108191E-01
  0.174183966835E+00
  0.195595048139E+00
  0.511497703433E+00
  0.495773424064E+00
 -0.999367095567E+00
 -0.804697476022E+00
 -0.868552176667E+00
 -0.794522009866E+00
 -0.479561064232E+00
 -0.492914417365E+00
 -0.221742186520E+00
 -0.195932992106E+00
 -0.251715053367E-01
 -0.103229019374E-01
  0.112427224314E+00
  0.119601260680E+00
  0.126206907211E+00
  0.127913519738E+00
  0.722135829927E-01
  0.750190298266E-01
  0.313496488742E-01
  0.323139646817E-01
  0.326961887477E-01
  0.383482320139E-01
  0.196170747907E+00
  0.212920878757E+00
  0.506103791377E+00
  0.493950262499E+00
 -0.109639962385E+01
 -0.999357736321E+00
 -0.905403397588E+00
 -0.875272460002E+00
 -0.485050916288E+00
 -0.488181195791E+00
 -0.197313592868E+00
 -0.188945639384E+00
 -0.102647458698E-01
 -0.218692863367E-02
  0.120708799835E+00
  0.127375578290E+00
  0.117251005747E+00
  0.124708616622E+00
  0.613793655006E-01
  0.715439602788E-01
  0.223605056491E-01
  0.312010758059E-01
  0.382261839071E-01
  0.332490892739E-01
  0.212602997633E+00
  0.214508481447E+00
  0.497473448675E+00
  0.493812595610E+00
 -0.112161673703E+01
 -0.109677179267E+01
 -0.910550693163E+00
 -0.909022854808E+00
 -0.478617461393E+00
 -0.489412936869E+00
 -0.190265918343E+00
 -0.176171722551E+00
 -0.222144822207E-02
  0.149611675666E-01
  0.128914550522E+00
  0.144805366023E+00
  0.103761649514E+00
  0.113693600313E+00
  0.391074295316E-01
  0.596463783843E-01
 -0.424026660554E-02
  0.218862247456E-01
  0.326639088861E-01
  0.830464488585E-02
  0.212249246829E+00
  0.195944003623E+00
  0.489675044059E+00
  0.496132618903E+00
 -0.107905265058E+01
 -0.112187178276E+01
 -0.879909990902E+00
 -0.914032928932E+00
 -0.449163166487E+00
 -0.483833770695E+00
 -0.177437888257E+00
 -0.141680073965E+00
  0.147368260189E-01
  0.600258556958E-01
  0.147211513488E+00
  0.191310100079E+00
  0.187964421470E+00
  0.897241205434E-01
 -0.154166827528E-02
  0.312769014997E-01
 -0.630032192947E-01
 -0.660842100165E-02
  0.539058616514E-02
 -0.516949553023E-01
  0.188996341915E+00
  0.147847623808E+00
  0.479894224807E+00
  0.496224712001E+00
 -0.985452948471E+00
 -0.107905479088E+01
 -0.821702927989E+00
 -0.884566617650E+00
 -0.400072887914E+00
 -0.457369291390E+00
 -0.142166377183E+00
 -0.909349088947E-01
  0.597716298850E-01
  0.132606435219E+00
  0.194503384028E+00
  0.378564782710E+00
 -0.223873099753E+02
 -0.883288592235E-01
  0.679723714881E+00
 -0.143775347450E+00
 -0.454263342295E+00
 -0.755781783779E-01
 -0.667335497226E-01
 -0.140743160478E+00
  0.126816362430E+00
  0.533535745318E-01
  0.452745776064E+00
  0.481736232343E+00
 -0.863147922087E+00
 -0.984536256156E+00
 -0.740524352505E+00
 -0.828988069093E+00
 -0.341851202211E+00
 -0.414121992182E+00
 -0.905523792200E-01
 -0.308993756241E+00
  0.102748185395E+00
  0.774855775853E+00
 -0.250606601988E+00
 -0.216692145993E+02
 -0.402962808287E+08
 -0.210589786429E+05
 -0.118444553313E+05
  0.869374184711E+00
  0.102338548689E+00
 -0.448381193204E+00
 -0.229087522578E+00
 -0.262982733583E+00
 -0.119109987735E-01
 -0.423087465271E-01
  0.308864927012E+00
  0.395741530006E+00
 -0.676256956166E+00
 -0.859253778758E+00
 -0.523901005212E+00
 -0.790595762557E+00
 -0.356627040005E+00
 -0.368782598307E+00
 -0.357103496698E+00
 -0.630998062216E+00
  0.846334647704E+00
 -0.117458307288E+05
 -0.209074195763E+05
 -0.402992762309E+08
 -0.839347488226E+08
 -0.476647664039E+06
 -0.177982307916E+05
 -0.240574076917E+02
 -0.538148972905E+00
 -0.643823816438E+00
 -0.443038038112E+00
 -0.267035301176E+00
 -0.286315839879E+00
 -0.117530973135E+00
 -0.675685245725E+00
 -0.477371560181E+00
 -0.662509552640E+00
 -0.537525709199E+00
 -0.454815877795E+00
  0.617826518434E+00
 -0.389716419783E+02
 -0.180041636406E+05
 -0.474057847433E+06
 -0.839151576839E+08
 -0.573664194563E+08
 -0.570381238074E+06
 -0.212891796525E+05
 -0.360657353501E+02
 -0.388211655079E+00
 -0.896386872859E+00
 -0.681442927797E+00
 -0.499413128244E+00
 -0.527085871286E+00
 -0.388324220458E+00
 -0.577627242721E+00
 -0.589866528291E+00
 -0.612553676765E+00
 -0.727355124290E+00
 -0.684495452563E+00
  0.975004679452E+00
 -0.617035146264E+02
 -0.214904789038E+05
 -0.566438277756E+06
 -0.573499553217E+08
SCALARS inclination float 1
LOOKUP_TABLE default
  0.100000000000E+01
  0.100000000000E+01
  0.100000000000E+01
  0.100000000000E+01
  0.100000000000E+01
  0.100000000000E+01
  0.100000000000E+01
  0.100000000000E+01
  0.100000000000E+01
  0.100000000000E+01
  0.100000000000E+01
  0.100000000000E+01
  0.100000000000E+01
  0.100000000000E+01
  0.100000000000E+01
  0.100000000000E+01
  0.100000000000E+01
  0.100000000000E+01
  0.100000000000E+01
  0.100000000000E+01
  0.100000000000E+01
  0.100000000000E+01
  0.100000000000E+01
  0.100000000000E+01
  0.100000000000E+01
  0.100000000000E+01
  0.100000000000E+01
  0.100000000000E+01
  0.100000000000E+01
  0.100000000000E+01
  0.100000000000E+01
  0.100000000000E+01
  0.100000000000E+01
  0.100000000000E+01
  0.100000000000E+01
  0.100000000000E+01
  0.100000000000E+01
  0.100000000000E+01
  0.100000000000E+01
  0.100000000000E+01
  0.100000000000E+01
  0.100000000000E+01
  0.100000000000E+01
  0.100000000000E+01
  0.100000000000E+01
  0.100000000000E+01
  0.100000000000E+01
  0.100000000000E+01
  0.100000000000E+01
  0.100000000000E+01
  0.100000000000E+01
  0.100000000000E+01
  0.100000000000E+01
  0.100000000000E+01
  0.100000000000E+01
  0.100000000000E+01
  0.100000000000E+01
  0.100000000000E+01
  0.100000000000E+01
  0.100000000000E+01
  0.100000000000E+01
  0.100000000000E+01
  0.100000000000E+01
  0.100000000000E+01
  0.100000000000E+01
  0.100000000000E+01
  0.100000000000E+01
  0.100000000000E+01
  0.100000000000E+01
  0.100000000000E+01
  0.100000000000E+01
  0.100000000000E+01
  0.100000000000E+01
  0.100000000000E+01
  0.100000000000E+01
  0.100000000000E+01
  0.100000000000E+01
  0.100000000000E+01
  0.100000000000E+01
  0.100000000000E+01
  0.100000000000E+01
  0.100000000000E+01
  0.100000000000E+01
  0.100000000000E+01
  0.100000000000E+01
  0.100000000000E+01
  0.100000000000E+01
  0.100000000000E+01
  0.100000000000E+01
  0.100000000000E+01
  0.100000000000E+01
  0.100000000000E+01
  0.100000000000E+01
  0.100000000000E+01
  0.100000000000E+01
  0.100000000000E+01
  0.100000000000E+01
  0.100000000000E+01
  0.100000000000E+01
  0.100000000000E+01
  0.100000000000E+01
  0.100000000000E+01
  0.100000000000E+01
  0.100000000000E+01
  0.100000000000E+01
  0.100000000000E+01
  0.100000000000E+01
  0.100000000000E+01
  0.100000000000E+01
  0.100000000000E+01
  0.100000000000E+01
  0.100000000000E+01
  0.100000000000E+01
  0.100000000000E+01
  0.100000000000E+01
  0.100000000000E+01
  0.100000000000E+01
  0.100000000000E+01
  0.100000000000E+01
  0.100000000000E+01
  0.100000000000E+01
  0.100000000000E+01
  0.100000000000E+01
  0.100000000000E+01
  0.100000000000E+01
  0.100000000000E+01
  0.100000000000E+01
  0.100000000000E+01
  0.100000000000E+01
  0.100000000000E+01
  0.100000000000E+01
  0.100000000000E+01
  0.100000000000E+01
  0.100000000000E+01
  0.100000000000E+01
  0.100000000000E+01
  0.100000000000E+01
  0.100000000000E+01
  0.100000000000E+01
  0.100000000000E+01
  0.100000000000E+01
  0.100000000000E+01
  0.100000000000E+01
  0.100000000000E+01
  0.100000000000E+01
  0.100000000000E+01
  0.100000000000E+01
  0.100000000000E+01
  0.100000000000E+01
  0.100000000000E+01
  0.100000000000E+01
  0.100000000000E+01
  0.100000000000E+01
  0.100000000000E+01
  0.100000000000E+01
  0.100000000000E+01
  0.100000000000E+01
  0.100000000000E+01
  0.100000000000E+01
  0.100000000000E+01
  0.100000000000E+01
  0.100000000000E+01
  0.100000000000E+01
  0.100000000000E+01
  0.100000000000E+01
  0.100000000000E+01
  0.100000000000E+01
  0.100000000000E+01
  0.100000000000E+01
  0.100000000000E+01
  0.100000000000E+01
  0.100000000000E+01
  0.100000000000E+01
  0.100000000000E+01
  0.100000000000E+01
  0.100000000000E+01
  0.100000000000E+01
  0.100000000000E+01
  0.100000000000E+01
  0.100000000000E+01
  0.100000000000E+01
  0.100000000000E+01
  0.100000000000E+01
  0.100000000000E+01
  0.100000000000E+01
  0.100000000000E+01
  0.100000000000E+01
  0.100000000000E+01
  0.100000000000E+01
  0.100000000000E+01
  0.100000000000E+01
  0.100000000000E+01
  0.100000000000E+01
  0.100000000000E+01
  0.100000000000E+01
  0.100000000000E+01
  0.100000000000E+01
  0.100000000000E+01
  0.100000000000E+01
  0.100000000000E+01
  0.100000000000E+01
  0.100000000000E+01
  0.100000000000E+01
  0.100000000000E+01
  0.100000000000E+01
  0.100000000000E+01
  0.100000000000E+01
  0.100000000000E+01
  0.100000000000E+01
  0.100000000000E+01
  0.100000000000E+01
  0.100000000000E+01
  0.100000000000E+01
  0.100000000000E+01
  0.100000000000E+01
  0.100000000000E+01
  0.100000000000E+01
  0.100000000000E+01
  0.100000000000E+01
  0.100000000000E+01
  0.100000000000E+01
  0.100000000000E+01
  0.100000000000E+01
  0.100000000000E+01
  0.100000000000E+01
  0.100000000000E+01
  0.100000000000E+01
  0.100000000000E+01
  0.100000000000E+01
  0.100000000000E+01
  0.100000000000E+01
  0.100000000000E+01
  0.100000000000E+01
  0.100000000000E+01
  0.100000000000E+01
  0.100000000000E+01
  0.100000000000E+01
  0.100000000000E+01
  0.100000000000E+01
  0.100000000000E+01
  0.100000000000E+01
  0.100000000000E+01
  0.100000000000E+01
  0.100000000000E+01
  0.100000000000E+01
  0.100000000000E+01
  0.100000000000E+01
  0.100000000000E+01
  0.100000000000E+01
  0.100000000000E+01
  0.100000000000E+01
  0.100000000000E+01
  0.100000000000E+01
  0.100000000000E+01
  0.100000000000E+01
  0.100000000000E+01
VECTORS v float
  0.150750867855E+03  0.333175613845E+01  0.157523649947E+02
  0.152548794448E+03  0.281359533147E+01  0.159998621012E+02
  0.155849499038E+03 -0.487125581314E+00  0.168592822221E+02
  0.157446962988E+03  0.509463727487E+00  0.169240691535E+02
  0.160409104443E+03 -0.245269257673E+01  0.158626947409E+02
  0.161536612209E+03 -0.583481853937E+00  0.157904541842E+02
  0.158922547836E+03  0.203058640662E+01  0.324203812567E+01
  0.160731552784E+03 -0.464488549782E+01  0.341736272386E+01
  0.139629225074E+03  0.164574620121E+02 -0.170873094253E+02
  0.146276226141E+03 -0.164954246177E+01 -0.205213649430E+02
  0.825755974738E+02  0.620511117600E+02 -0.118970359279E+02
  0.831358863630E+02  0.608011757437E+02 -0.129463343223E+02
  0.167024082823E+03 -0.230870207160E+02  0.110198065546E+03
  0.144146779722E+03  0.279494464957E+02  0.673538844437E+02
  0.204451733984E+03 -0.323555227050E+02  0.328516623908E+02
  0.194748351557E+03 -0.592267194358E+01  0.278385827236E+02
  0.197043075319E+03 -0.821738861009E+01 -0.424153284133E+01
  0.197661702047E+03 -0.105002047689E+02 -0.430149257286E+01
  0.187437051944E+03 -0.275519922164E+00 -0.182831544979E+02
  0.182865385515E+03 -0.785454178893E+01 -0.185760722324E+02
  0.173774797721E+03  0.123609107478E+01 -0.186064958570E+02
  0.167687481685E+03 -0.256152946302E+01 -0.183595898816E+02
  0.161046859980E+03  0.407912508784E+01 -0.167726895878E+02
  0.153790054000E+03  0.617053281609E+01 -0.157737778051E+02
  0.151086482634E+03  0.663011901237E+01  0.154357759693E+02
  0.150790152112E+03  0.681162016869E+01  0.153847218203E+02
  0.155661371630E+03  0.194037254301E+01  0.165772106604E+02
  0.155877127991E+03  0.191627738672E+01  0.166030781136E+02
  0.159744198501E+03 -0.195081145010E+01  0.157490508510E+02
  0.160416716667E+03 -0.164267630611E+01  0.157845402678E+02
  0.160732699345E+03 -0.195866392831E+01  0.336187716196E+01
  0.161099345444E+03 -0.286003911727E+01  0.338808172226E+01
  0.146528495131E+03  0.117108226186E+02 -0.187029145678E+02
  0.146322518020E+03  0.121066510784E+02 -0.186194329993E+02
  0.860481566592E+02  0.723810389082E+02 -0.792215429631E+01
  0.807624347142E+02  0.808370120229E+02  0.432287940086E-01
  0.183161858798E+03 -0.215624120606E+02  0.118668580073E+03
  0.171927488272E+03 -0.358993472399E+01  0.101738826117E+03
  0.210978082774E+03 -0.426405315546E+02  0.351838692629E+02
  0.204492854067E+03 -0.301777747144E+02  0.325552532612E+02
  0.196784423345E+03 -0.224693199161E+02 -0.453070019307E+01
  0.197036727376E+03 -0.230895925829E+02 -0.454872899983E+01
  0.182855482720E+03 -0.890829956183E+01 -0.186777439318E+02
  0.178793326102E+03 -0.107695039619E+02 -0.184633742694E+02
  0.167720416880E+03  0.303457304419E+00 -0.180541808325E+02
  0.164094080555E+03  0.708440767211E+00 -0.176194425297E+02
  0.153844105186E+03  0.109584752855E+02 -0.152679377758E+02
  0.152374480763E+03  0.118586128089E+02 -0.150147136191E+02
  0.151158704108E+03  0.796029048497E+01  0.153013662400E+02
  0.151101990103E+03  0.800379694628E+01  0.152906487026E+02
  0.155833747124E+03  0.327201211982E+01  0.164521862169E+02
  0.155677514829E+03  0.334464668468E+01  0.164275142850E+02
  0.159582446332E+03 -0.560302902287E+00  0.155978600758E+02
  0.159757068353E+03 -0.581330633643E+00  0.156169164762E+02
  0.161099744971E+03 -0.192401508684E+01  0.336874742444E+01
  0.160278710066E+03 -0.384788102763E+00  0.331997409863E+01
  0.146349663092E+03  0.135442727652E+02 -0.184237611086E+02
  0.144126894366E+03  0.169878101614E+02 -0.176376810370E+02
  0.806650295270E+02  0.804497044791E+02 -0.124812366623E+00
  0.753792186982E+02  0.875499811996E+02  0.705479102828E+01