# vtk DataFile Version 3.0
PyPan mesh file. Generated by PyPan, USU AeroLab (c) 2020.
ASCII
DATASET POLYDATA
POINTS 135 float
0.0                 0.0                 0.0                 
1.1951379776        0.0                 -0.692762672901     
1.1951379776        0.0                 0.692762672901      
1.9237537384        1.9237537384        0.0                 
3.118891716         1.9237537384        -0.692762672901     
3.118891716         1.9237537384        0.692762672901      
4.45292711258       0.0                 -1.14470756054      
4.45292711258       0.0                 1.14470756054       
5.47033166885       5.47033166885       0.0                 
6.37668085098       1.9237537384        -1.14470756054      
6.37668085098       1.9237537384        1.14470756054       
6.66546964645       5.47033166885       -0.692762672901     
6.66546964645       5.47033166885       0.692762672901      
9.88956642151       0.0                 -1.03236401081      
9.88956642151       0.0                 1.03236401081       
9.92325878143       5.47033166885       -1.14470756054      
9.92325878143       5.47033166885       1.14470756054       
11.3820018768       11.3820018768       0.0                 
11.8133201599       1.9237537384        -1.03236401081      
11.8133201599       1.9237537384        1.03236401081       
12.5771398544       11.3820018768       -0.692762672901     
12.5771398544       11.3820018768       0.692762672901      
15.3054771423       0.0                 -0.504855811596     
15.3054771423       0.0                 0.504855811596      
15.3598976135       5.47033166885       -1.03236401081      
15.3598976135       5.47033166885       1.03236401081       
15.8349294662       11.3820018768       -1.14470756054      
15.8349294662       11.3820018768       1.14470756054       
17.2292308807       1.9237537384        -0.504855811596     
17.2292308807       1.9237537384        0.504855811596      
18.5794849396       0.0                 -0.151788264513     
18.5794849396       0.0                 0.151788264513      
19.7561950684       19.7561950684       0.0                 
20.0                0.0                 0.0                 
20.503238678        1.9237537384        -0.151788264513     
20.503238678        1.9237537384        0.151788264513      
20.7758083344       5.47033166885       -0.504855811596     
20.7758083344       5.47033166885       0.504855811596      
20.9513320923       19.7561950684       -0.692762672901     
20.9513320923       19.7561950684       0.692762672901      
21.2715682983       11.3820018768       -1.03236401081      
21.2715682983       11.3820018768       1.03236401081       
21.9237537384       1.9237537384        0.0                 
24.0498161316       5.47033166885       -0.151788264513     
24.0498161316       5.47033166885       0.151788264513      
24.2091217041       19.7561950684       -1.14470756054      
24.2091217041       19.7561950684       1.14470756054       
25.470331192        5.47033166885       0.0                 
26.6874790192       11.3820018768       -0.504855811596     
26.6874790192       11.3820018768       0.504855811596      
29.2438049316       29.2438049316       0.0                 
29.6457614899       19.7561950684       -1.03236401081      
29.6457614899       19.7561950684       1.03236401081       
29.9614868164       11.3820018768       -0.151788264513     
29.9614868164       11.3820018768       0.151788264513      
30.4389438629       29.2438049316       -0.692762672901     
30.4389438629       29.2438049316       0.692762672901      
31.3820018768       11.3820018768       0.0                 
33.6967315674       29.2438049316       -1.14470756054      
33.6967315674       29.2438049316       1.14470756054       
35.0616722107       19.7561950684       -0.504855811596     
35.0616722107       19.7561950684       0.504855811596      
37.6179962158       37.6179962158       0.0                 
38.3356781006       19.7561950684       -0.151788264513     
38.3356781006       19.7561950684       0.151788264513      
38.8131370544       37.6179962158       -0.692762672901     
38.8131370544       37.6179962158       0.692762672901      
39.1333732605       29.2438049316       -1.03236401081      
39.1333732605       29.2438049316       1.03236401081       
39.7561950684       19.7561950684       0.0                 
42.0709266663       37.6179962158       -1.14470756054      
42.0709266663       37.6179962158       1.14470756054       
43.5296669006       43.5296669006       0.0                 
44.549282074        29.2438049316       -0.504855811596     
44.549282074        29.2438049316       0.504855811596      
44.7248077393       43.5296669006       -0.692762672901     
44.7248077393       43.5296669006       0.692762672901      
47.0762481689       47.0762481689       0.0                 
47.5075645447       37.6179962158       -1.03236401081      
47.5075645447       37.6179962158       1.03236401081       
47.8232879639       29.2438049316       -0.151788264513     
47.8232879639       29.2438049316       0.151788264513      
47.9825935364       43.5296669006       -1.14470756054      
47.9825935364       43.5296669006       1.14470756054       
48.2713851929       47.0762481689       -0.692762672901     
48.2713851929       47.0762481689       0.692762672901      
49.0                49.0                0.0                 
49.2438049316       29.2438049316       0.0                 
50.1951370239       49.0                -0.692762672901     
50.1951370239       49.0                0.692762672901      
50.541519165        49.3463821411       -0.489857196808     
50.541519165        49.3463821411       0.489857196808      
50.6849937439       49.48985672         -8.26777636628e-16  
51.5291748047       47.0762481689       -1.14470756054      
51.5291748047       47.0762481689       1.14470756054       
52.9234733582       37.6179962158       -0.504855811596     
52.9234733582       37.6179962158       0.504855811596      
53.4192352295       43.5296669006       -1.03236401081      
53.4192352295       43.5296669006       1.03236401081       
53.4529266357       49.0                -1.14470756054      
53.4529266357       49.0                1.14470756054       
54.0252799988       49.572353363        -0.809430480003     
54.0252799988       49.572353363        0.809430480003      
54.2623558044       49.8094291687       -1.57378642191e-16  
56.1974830627       37.6179962158       -0.151788264513     
56.1974830627       37.6179962158       0.151788264513      
56.9658126831       47.0762481689       -1.03236401081      
56.9658126831       47.0762481689       1.03236401081       
57.6179962158       37.6179962158       0.0                 
58.835144043        43.5296669006       -0.504855811596     
58.835144043        43.5296669006       0.504855811596      
58.8895645142       49.0                -1.03236401081      
58.8895645142       49.0                1.03236401081       
59.40574646         49.5161819458       -0.729991614819     
59.40574646         49.5161819458       0.729991614819      
59.619556427        49.7299919128       0.0                 
62.1091537476       43.5296669006       -0.151788264513     
62.1091537476       43.5296669006       0.151788264513      
62.3817253113       47.0762481689       -0.504855811596     
62.3817253113       47.0762481689       0.504855811596      
63.5296669006       43.5296669006       0.0                 
64.305480957        49.0                -0.504855811596     
64.305480957        49.0                0.504855811596      
64.5579071045       49.2524261475       -0.356986969709     
64.5579071045       49.2524261475       0.356986969709      
64.6624679565       49.3569869995       3.10867788497e-16   
65.6557312012       47.0762481689       -0.151788264513     
65.6557312012       47.0762481689       0.151788264513      
67.0762481689       47.0762481689       0.0                 
67.5794830322       49.0                -0.151788264513     
67.5794830322       49.0                0.151788264513      
67.655380249        49.0758934021       -0.10733050853      
67.655380249        49.0758934021       0.10733050853       
67.6868133545       49.1073303223       -2.54837439156e-17  
69.0                49.0                0.0                 
POLYGONS 256 1024
3 33 34 42
3 33 30 34
3 30 28 34
3 30 22 28
3 22 18 28
3 22 13 18
3 13 6 18
3 18 6 9
3 6 1 9
3 9 1 4
3 1 0 4
3 4 0 3
3 0 5 3
3 0 2 5
3 2 10 5
3 2 7 10
3 7 19 10
3 7 14 19
3 14 23 19
3 19 23 29
3 23 31 29
3 29 31 35
3 31 33 35
3 35 33 42
3 42 43 47
3 42 34 43
3 34 36 43
3 34 28 36
3 28 24 36
3 28 18 24
3 18 9 24
3 24 9 15
3 9 4 15
3 15 4 11
3 4 3 11
3 11 3 8
3 3 12 8
3 3 5 12
3 5 16 12
3 5 10 16
3 10 25 16
3 10 19 25
3 19 29 25
3 25 29 37
3 29 35 37
3 37 35 44
3 35 42 44
3 44 42 47
3 47 53 57
3 47 43 53
3 43 48 53
3 43 36 48
3 36 40 48
3 36 24 40
3 24 15 40
3 40 15 26
3 15 11 26
3 26 11 20
3 11 8 20
3 20 8 17
3 8 21 17
3 8 12 21
3 12 27 21
3 12 16 27
3 16 41 27
3 16 25 41
3 25 37 41
3 41 37 49
3 37 44 49
3 49 44 54
3 44 47 54
3 54 47 57
3 57 63 69
3 57 53 63
3 53 60 63
3 53 48 60
3 48 51 60
3 48 40 51
3 40 26 51
3 51 26 45
3 26 20 45
3 45 20 38
3 20 17 38
3 38 17 32
3 17 39 32
3 17 21 39
3 21 46 39
3 21 27 46
3 27 52 46
3 27 41 52
3 41 49 52
3 52 49 61
3 49 54 61
3 61 54 64
3 54 57 64
3 64 57 69
3 69 80 87
3 69 63 80
3 63 73 80
3 63 60 73
3 60 67 73
3 60 51 67
3 51 45 67
3 67 45 58
3 45 38 58
3 58 38 55
3 38 32 55
3 55 32 50
3 32 56 50
3 32 39 56
3 39 59 56
3 39 46 59
3 46 68 59
3 46 52 68
3 52 61 68
3 68 61 74
3 61 64 74
3 74 64 81
3 64 69 81
3 81 69 87
3 87 104 108
3 87 80 104
3 80 95 104
3 80 73 95
3 73 78 95
3 73 67 78
3 67 58 78
3 78 58 70
3 58 55 70
3 70 55 65
3 55 50 65
3 65 50 62
3 50 66 62
3 50 56 66
3 56 71 66
3 56 59 71
3 59 79 71
3 59 68 79
3 68 74 79
3 79 74 96
3 74 81 96
3 96 81 105
3 81 87 105
3 105 87 108
3 108 116 120
3 108 104 116
3 104 109 116
3 104 95 109
3 95 97 109
3 95 78 97
3 78 70 97
3 97 70 82
3 70 65 82
3 82 65 75
3 65 62 75
3 75 62 72
3 62 76 72
3 62 66 76
3 66 83 76
3 66 71 83
3 71 98 83
3 71 79 98
3 79 96 98
3 98 96 110
3 96 105 110
3 110 105 117
3 105 108 117
3 117 108 120
3 120 126 128
3 120 116 126
3 116 118 126
3 116 109 118
3 109 106 118
3 109 97 106
3 97 82 106
3 106 82 93
3 82 75 93
3 93 75 84
3 75 72 84
3 84 72 77
3 72 85 77
3 72 76 85
3 76 94 85
3 76 83 94
3 83 107 94
3 83 98 107
3 98 110 107
3 107 110 119
3 110 117 119
3 119 117 127
3 117 120 127
3 127 120 128
3 128 129 134
3 128 126 129
3 126 121 129
3 126 118 121
3 118 111 121
3 118 106 111
3 106 93 111
3 111 93 99
3 93 84 99
3 99 84 88
3 84 77 88
3 88 77 86
3 77 89 86
3 77 85 89
3 85 100 89
3 85 94 100
3 94 112 100
3 94 107 112
3 107 119 112
3 112 119 122
3 119 127 122
3 122 127 130
3 127 128 130
3 130 128 134
3 134 129 131
3 129 123 131
3 129 121 123
3 121 113 123
3 121 111 113
3 111 99 113
3 113 99 101
3 99 88 101
3 101 88 90
3 88 86 90
3 86 89 91
3 89 102 91
3 89 100 102
3 100 114 102
3 100 112 114
3 112 122 114
3 114 122 124
3 122 130 124
3 124 130 132
3 130 134 132
3 134 131 133
3 131 125 133
3 131 123 125
3 123 115 125
3 123 113 115
3 113 101 115
3 115 101 103
3 101 90 103
3 103 90 92
3 90 86 92
3 86 91 92
3 91 103 92
3 91 102 103
3 102 115 103
3 102 114 115
3 114 124 115
3 115 124 125
3 124 132 125
3 125 132 133
3 132 134 133
CELL_DATA 256
SCALARS panel_area float 1
LOOKUP_TABLE default
1.38187343062       
1.38187343062       
3.18560498164       
3.18560498164       
5.25862744526       
5.25862744526       
5.23161010302       
5.23161010302       
3.19332957125       
3.19332957125       
1.48646393264       
1.48646393264       
1.48646393264       
1.48646393264       
3.19332957125       
3.19332957125       
5.23161010302       
5.23161010302       
5.25862744526       
5.25862744526       
3.18560498164       
3.18560498164       
1.38187343062       
1.38187343062       
2.54758273188       
2.54758273188       
5.87289115037       
5.87289115037       
9.69465667365       
9.69465667365       
9.64484827794       
9.64484743329       
5.88713199407       
5.88713199407       
2.74040282427       
2.74040282427       
2.74040282427       
2.74040282427       
5.88713199407       
5.88713199407       
9.64484743329       
9.64484827794       
9.69465667365       
9.69465667365       
5.87289115037       
5.87289115037       
2.54758273188       
2.54758273188       
4.24647907643       
4.24647907643       
9.78932266936       
9.78932266936       
16.1596937309       
16.1596937309       
16.0766683693       
16.0766683693       
9.81306023843       
9.81306160684       
4.56788432449       
4.56788432449       
4.56788432449       
4.56788432449       
9.81306160684       
9.81306023843       
16.0766683693       
16.0766683693       
16.1596937309       
16.1596937309       
9.78932266936       
9.78932266936       
4.24647907643       
4.24647907643       
6.01536986482       
6.01536195293       
13.8670848345       
13.8670927654       
22.8910599469       
22.8910599469       
22.773450152        
22.7734541423       
13.9007202079       
13.9007202079       
6.47064934082       
6.47064640077       
6.47064640077       
6.47064934082       
13.9007202079       
13.9007202079       
22.7734541423       
22.773450152        
22.8910599469       
22.8910599469       
13.8670927654       
13.8670848345       
6.01536195293       
6.01536986482       
6.81516190939       
6.81516190939       
15.7108258888       
15.7108258888       
25.9346024273       
25.9346114393       
25.8013689473       
25.8013779893       
15.7489333496       
15.7489245294       
7.33097143686       
7.33097813815       
7.33097813815       
7.33097143686       
15.7489245294       
15.7489333496       
25.8013779893       
25.8013689473       
25.9346114393       
25.9346024273       
15.7108258888       
15.7108258888       
6.81516190939       
6.81516190939       
6.01535270154       
6.01536852532       
13.8670975737       
13.867081712        
22.8910468216       
22.8910468216       
22.7734569392       
22.773440978        
13.9007093517       
13.9007171298       
6.47065139941       
6.47065727952       
6.47065727952       
6.47065139941       
13.9007171298       
13.9007093517       
22.773440978        
22.7734569392       
22.8910468216       
22.8910468216       
13.867081712        
13.8670975737       
6.01536852532       
6.01535270154       
4.24647384061       
4.24647384061       
9.78932902336       
9.78932902336       
16.1596894372       
16.1596894372       
16.0766668478       
16.0766781142       
9.81306228102       
9.81305133368       
4.56789123304       
4.56789123304       
4.56789123304       
4.56789123304       
9.81305133368       
9.81306228102       
16.0766781142       
16.0766668478       
16.1596894372       
16.1596894372       
9.78932902336       
9.78932902336       
4.24647384061       
4.24647384061       
2.54758847767       
2.54758175846       
5.8728932712        
5.87290003024       
9.69466916055       
9.69466236218       
9.64486157737       
9.64485482011       
5.88713172647       
5.88713824714       
2.74040873467       
2.74040409553       
2.74040409553       
2.74040873467       
5.88713824714       
5.88713172647       
9.64485482011       
9.64486157737       
9.69466236218       
9.69466916055       
5.87290003024       
5.8728932712        
2.54758175846       
2.54758847767       
1.38187387456       
1.38187387456       
3.18559638222       
3.18560008133       
5.25862778097       
5.25862404895       
5.23160354064       
5.23160354064       
3.19332685523       
3.19332685523       
1.48646174943       
1.48646174943       
1.48646174943       
1.48646174943       
3.19332685523       
3.19332685523       
5.23160354064       
5.23160354064       
5.25862404895       
5.25862778097       
3.18560008133       
3.18559638222       
1.38187387456       
1.38187387456       
0.0600440976336     
0.138349157282      
0.460156704869      
0.763634757896      
1.56154147394       
1.61196524959       
1.78738119677       
1.15852207859       
0.701124460781      
0.339751295543      
0.339751295543      
0.701124460781      
1.15852207859       
1.78738119677       
1.61196524959       
1.56154147394       
0.763634757896      
0.460156704869      
0.138349157282      
0.0600440976336     
0.074149138416      
0.170791817422      
0.568063829443      
0.94595613097       
1.93435325912       
2.04011095894       
2.26211861205       
1.50400053644       
0.91020218459       
0.438257594438      
0.438257594438      
0.91020218459       
1.50400053644       
2.26211861205       
2.04011095894       
1.93435325912       
0.94595613097       
0.568063829443      
0.170791817422      
0.074149138416      
VECTORS panel_centroids float
20.8089974721        1.28250249227        -0.050596088171     
19.6942412059        0.641251246134       -0.101192176342     
18.7706514994        1.28250249227        -0.269477446874     
17.0380643209        0.641251246134       -0.387166629235     
14.782676061         1.28250249227        -0.680691878001     
12.3361212413        0.641251246134       -0.856527944406     
8.71860456467        0.641251246134       -1.06981186072      
7.54764270782        1.28250249227        -1.10725971063      
4.00824864705        0.641251246134       -0.99405926466      
3.56357018153        1.28250249227        -0.843410968781     
1.43800989787        0.641251246134       -0.461841781934     
1.68088181814        1.28250249227        -0.230920890967     
1.68088181814        1.28250249227        0.230920890967      
1.43800989787        0.641251246134       0.461841781934      
3.56357018153        1.28250249227        0.843410968781      
4.00824864705        0.641251246134       0.99405926466       
7.54764270782        1.28250249227        1.10725971063       
8.71860456467        0.641251246134       1.06981186072       
12.3361212413        0.641251246134       0.856527944406      
14.782676061         1.28250249227        0.680691878001      
17.0380643209        0.641251246134       0.387166629235      
18.7706514994        1.28250249227        0.269477446874      
19.6942412059        0.641251246134       0.101192176342      
20.8089974721        1.28250249227        0.050596088171      
23.8146336873        4.28813902537        -0.050596088171     
22.1589361827        3.10594638189        -0.101192176342     
21.7762877146        4.28813902537        -0.269477446874     
19.5027592977        3.10594638189        -0.387166629235     
17.7883122762        4.28813902537        -0.680691878001     
14.8008162181        3.10594638189        -0.856527944406     
11.1832995415        3.10594638189        -1.06981186072      
10.553279082         4.28813902537        -1.10725971063      
6.47294378281        3.10594638189        -0.99405926466      
6.56920671463        4.28813902537        -0.843410968781     
3.90270503362        3.10594638189        -0.461841781934     
4.68651835124        4.28813902537        -0.230920890967     
4.68651835124        4.28813902537        0.230920890967      
3.90270503362        3.10594638189        0.461841781934      
6.56920671463        4.28813902537        0.843410968781      
6.47294378281        3.10594638189        0.99405926466       
10.553279082         4.28813902537        1.10725971063       
11.1832995415        3.10594638189        1.06981186072       
14.8008162181        3.10594638189        0.856527944406      
17.7883122762        4.28813902537        0.680691878001      
19.5027592977        3.10594638189        0.387166629235      
21.7762877146        4.28813902537        0.269477446874      
22.1589361827        3.10594638189        0.101192176342      
23.8146336873        4.28813902537        0.050596088171      
28.9379399618        9.41144514084        -0.050596088171     
26.4938780467        7.44088840485        -0.101192176342     
26.8995939891        9.41144514084        -0.269477446874     
23.8377011617        7.44088840485        -0.387166629235     
22.9116185506        9.41144514084        -0.680691878001     
19.1357580821        7.44088840485        -0.856527944406     
15.5182415644        7.44088840485        -1.06981186072      
15.6765855153        9.41144514084        -1.10725971063      
10.8078859647        7.44088840485        -0.99405926466      
11.692512989         9.41144514084        -0.843410968781     
8.23764705658        7.44088840485        -0.461841781934     
9.80982446671        9.41144514084        -0.230920890967     
9.80982446671        9.41144514084        0.230920890967      
8.23764705658        7.44088840485        0.461841781934      
11.692512989         9.41144514084        0.843410968781      
10.8078859647        7.44088840485        0.99405926466       
15.6765855153        9.41144514084        1.10725971063       
15.5182415644        7.44088840485        1.06981186072       
19.1357580821        7.44088840485        0.856527944406      
22.9116185506        9.41144514084        0.680691878001      
23.8377011617        7.44088840485        0.387166629235      
26.8995939891        9.41144514084        0.269477446874      
26.4938780467        7.44088840485        0.101192176342      
28.9379399618        9.41144514084        0.050596088171      
36.4912916819        16.9647973378        -0.050596088171     
33.2263889313        14.1733996073        -0.101192176342     
34.4529457092        16.9647973378        -0.269477446874     
30.5702126821        14.1733996073        -0.387166629235     
30.4649709066        16.9647973378        -0.680691878001     
25.8682696025        14.1733996073        -0.856527944406     
22.2507530848        14.1733996073        -1.06981186072      
23.2299375534        16.9647973378        -1.10725971063      
17.5403970083        14.1733996073        -0.99405926466      
19.2458645503        16.9647973378        -0.843410968781     
14.9701579412        14.1733996073        -0.461841781934     
17.3631763458        16.9647973378        -0.230920890967     
17.3631763458        16.9647973378        0.230920890967      
14.9701579412        14.1733996073        0.461841781934      
19.2458645503        16.9647973378        0.843410968781      
17.5403970083        14.1733996073        0.99405926466       
23.2299375534        16.9647973378        1.10725971063       
22.2507530848        14.1733996073        1.06981186072       
25.8682696025        14.1733996073        0.856527944406      
30.4649709066        16.9647973378        0.680691878001      
30.5702126821        14.1733996073        0.387166629235      
34.4529457092        16.9647973378        0.269477446874      
33.2263889313        14.1733996073        0.101192176342      
36.4912916819        16.9647973378        0.050596088171      
45.6077626546        26.0812683105        -0.050596088171     
41.9717203776        22.9187316895        -0.101192176342     
43.5694160461        26.0812683105        -0.269477446874     
39.3155441284        22.9187316895        -0.387166629235     
39.5814425151        26.0812683105        -0.680691878001     
34.6136023204        22.9187316895        -0.856527944406     
30.9960854848        22.9187316895        -1.06981186072      
32.346408844         26.0812683105        -1.10725971063      
26.2857284546        22.9187316895        -0.99405926466      
28.3623358409        26.0812683105        -0.843410968781     
23.7154903412        22.9187316895        -0.461841781934     
26.4796479543        26.0812683105        -0.230920890967     
26.4796479543        26.0812683105        0.230920890967      
23.7154903412        22.9187316895        0.461841781934      
28.3623358409        26.0812683105        0.843410968781      
26.2857284546        22.9187316895        0.99405926466       
32.346408844         26.0812683105        1.10725971063       
30.9960854848        22.9187316895        1.06981186072       
34.6136023204        22.9187316895        0.856527944406      
39.5814425151        26.0812683105        0.680691878001      
39.3155441284        22.9187316895        0.387166629235      
43.5694160461        26.0812683105        0.269477446874      
41.9717203776        22.9187316895        0.101192176342      
45.6077626546        26.0812683105        0.050596088171      
54.3530947367        34.8265991211        -0.050596088171     
51.0881919861        32.0352020264        -0.101192176342     
52.3147481283        34.8265991211        -0.269477446874     
48.4320144653        32.0352020264        -0.387166629235     
48.3267733256        34.8265991211        -0.680691878001     
43.7300732931        32.0352020264        -0.856527944406     
40.1125564575        32.0352020264        -1.06981186072      
41.0917409261        34.8265991211        -1.10725971063      
35.4022006989        32.0352020264        -0.99405926466      
37.1076691945        34.8265991211        -0.843410968781     
32.8319619497        32.0352020264        -0.461841781934     
35.2249794006        34.8265991211        -0.230920890967     
35.2249794006        34.8265991211        0.230920890967      
32.8319619497        32.0352020264        0.461841781934      
37.1076691945        34.8265991211        0.843410968781      
35.4022006989        32.0352020264        0.99405926466       
41.0917409261        34.8265991211        1.10725971063       
40.1125564575        32.0352020264        1.06981186072       
43.7300732931        32.0352020264        0.856527944406      
48.3267733256        34.8265991211        0.680691878001      
48.4320144653        32.0352020264        0.387166629235      
52.3147481283        34.8265991211        0.269477446874      
51.0881919861        32.0352020264        0.101192176342      
54.3530947367        34.8265991211        0.050596088171      
61.0856056213        41.5591100057        -0.050596088171     
58.641544342         39.5885531108        -0.101192176342     
59.0472602844        41.5591100057        -0.269477446874     
55.9853668213        39.5885531108        -0.387166629235     
55.0592842102        41.5591100057        -0.680691878001     
51.2834243774        39.5885531108        -0.856527944406     
47.6659088135        39.5885531108        -1.06981186072      
47.8242518107        41.5591100057        -1.10725971063      
42.955552419         39.5885531108        -0.99405926466      
43.8401794434        41.5591100057        -0.843410968781     
40.3853136698        39.5885531108        -0.461841781934     
41.9574902852        41.5591100057        -0.230920890967     
41.9574902852        41.5591100057        0.230920890967      
40.3853136698        39.5885531108        0.461841781934      
43.8401794434        41.5591100057        0.843410968781      
42.955552419         39.5885531108        0.99405926466       
47.8242518107        41.5591100057        1.10725971063       
47.6659088135        39.5885531108        1.06981186072       
51.2834243774        39.5885531108        0.856527944406      
55.0592842102        41.5591100057        0.680691878001      
55.9853668213        39.5885531108        0.387166629235      
59.0472602844        41.5591100057        0.269477446874      
58.641544342         39.5885531108        0.101192176342      
61.0856056213        41.5591100057        0.050596088171      
65.4205487569        45.8940544128        -0.050596088171     
63.7648506165        44.7118606567        -0.101192176342     
63.38220342          45.8940544128        -0.269477446874     
61.1086743673        44.7118606567        -0.387166629235     
59.3942273458        45.8940544128        -0.680691878001     
56.4067306519        44.7118606567        -0.856527944406     
52.7892138163        44.7118606567        -1.06981186072      
52.1591936747        45.8940544128        -1.10725971063      
48.0788586934        44.7118606567        -0.99405926466      
48.1751225789        45.8940544128        -0.843410968781     
45.5086199443        44.7118606567        -0.461841781934     
46.2924334208        45.8940544128        -0.230920890967     
46.2924334208        45.8940544128        0.230920890967      
45.5086199443        44.7118606567        0.461841781934      
48.1751225789        45.8940544128        0.843410968781      
48.0788586934        44.7118606567        0.99405926466       
52.1591936747        45.8940544128        1.10725971063       
52.7892138163        44.7118606567        1.06981186072       
56.4067306519        44.7118606567        0.856527944406      
59.3942273458        45.8940544128        0.680691878001      
61.1086743673        44.7118606567        0.387166629235      
63.38220342          45.8940544128        0.269477446874      
63.7648506165        44.7118606567        0.101192176342      
65.4205487569        45.8940544128        0.050596088171      
67.8852437337        48.3587493896        -0.050596088171     
66.7704874674        47.7174987793        -0.101192176342     
65.8468983968        48.3587493896        -0.269477446874     
64.1143124898        47.7174987793        -0.387166629235     
61.8589235942        48.3587493896        -0.680691878001     
59.4123675028        47.7174987793        -0.856527944406     
55.7948506673        47.7174987793        -1.06981186072      
54.6238886515        48.3587493896        -1.10725971063      
51.0844955444        47.7174987793        -0.99405926466      
50.6398162842        48.3587493896        -0.843410968781     
48.5142567952        47.7174987793        -0.461841781934     
48.7571283976        48.3587493896        -0.230920890967     
48.7571283976        48.3587493896        0.230920890967      
48.5142567952        47.7174987793        0.461841781934      
50.6398162842        48.3587493896        0.843410968781      
51.0844955444        47.7174987793        0.99405926466       
54.6238886515        48.3587493896        1.10725971063       