# vtk DataFile Version 3.0
PyPan mesh file. Generated by PyPan, USU AeroLab (c) 2020.
ASCII
DATASET POLYDATA
POINTS 6985 float
0.0                 0.0                 0.0                 
0.0389988087118     0.0                 -0.109218262136     
0.0389988087118     0.0                 0.109218262136      
0.147665724158      0.0                 -0.234920635819     
0.147665724158      0.0                 0.234920635819      
0.161138445139      0.161138445139      0.0                 
0.200137257576      0.161138445139      -0.109218269587     
0.200137257576      0.161138445139      0.109218269587      
0.290265858173      0.0                 -0.347333192825     
0.290265858173      0.0                 0.347333192825      
0.308804154396      0.161138445139      -0.234920650721     
0.308804154396      0.161138445139      0.234920650721      
0.335006117821      0.335006117821      0.0                 
0.374004930258      0.335006117821      -0.109218277037     
0.374004930258      0.335006117821      0.109218277037      
0.451404303312      0.161138445139      -0.347333222628     
0.451404303312      0.161138445139      0.347333222628      
0.473465979099      0.0                 -0.436293870211     
0.473465979099      0.0                 0.436293870211      
0.48267185688       0.335006117821      -0.234920650721     
0.48267185688       0.335006117821      0.234920650721      
0.522506594658      0.522506594658      0.0                 
0.561505436897      0.522506594658      -0.109218284488     
0.561505436897      0.522506594658      0.109218284488      
0.625271975994      0.335006117821      -0.347333222628     
0.625271975994      0.335006117821      0.347333222628      
0.634604454041      0.161138445139      -0.436293900013     
0.634604454041      0.161138445139      0.436293900013      
0.670172333717      0.522506594658      -0.234920665622     
0.670172333717      0.522506594658      0.234920665622      
0.689334988594      0.0                 -0.522850036621     
0.689334988594      0.0                 0.522850036621      
0.724590361118      0.724590361118      0.0                 
0.763589203358      0.724590361118      -0.109218291938     
0.763589203358      0.724590361118      0.109218291938      
0.808472156525      0.335006117821      -0.436293929815     
0.808472156525      0.335006117821      0.436293929815      
0.812772512436      0.522506594658      -0.34733325243      
0.812772512436      0.522506594658      0.34733325243       
0.850473463535      0.161138445139      -0.522850036621     
0.850473463535      0.161138445139      0.522850036621      
0.872256100178      0.724590361118      -0.234920680523     
0.872256100178      0.724590361118      0.234920680523      
0.942254066467      0.942254066467      0.0                 
0.944064557552      0.0                 -0.604293465614     
0.944064557552      0.0                 0.604293465614      
0.981252849102      0.942254066467      -0.109218299389     
0.981252849102      0.942254066467      0.109218299389      
0.995972692966      0.522506594658      -0.436293959618     
0.995972692966      0.522506594658      0.436293959618      
1.0148563385        0.724590361118      -0.347333282232     
1.0148563385        0.724590361118      0.347333282232      
1.02434122562       0.335006117821      -0.522850096226     
1.02434122562       0.335006117821      0.522850096226      
1.08991980553       0.942254066467      -0.234920710325     
1.08991980553       0.942254066467      0.234920710325      
1.10520303249       0.161138445139      -0.604293525219     
1.10520303249       0.161138445139      0.604293525219      
1.17653930187       1.17653930187       0.0                 
1.19805645943       0.724590361118      -0.43629398942      
1.19805645943       0.724590361118      0.43629398942       
1.21184170246       0.522506594658      -0.522850096226     
1.21184170246       0.522506594658      0.522850096226      
1.21553814411       1.17653930187       -0.109218306839     
1.21553814411       1.17653930187       0.109218306839      
1.23251998425       0.942254066467      -0.347333312035     
1.23251998425       0.942254066467      0.347333312035      
1.23833239079       0.0                 -0.68399643898      
1.23833239079       0.0                 0.68399643898       
1.27907073498       0.335006117821      -0.604293525219     
1.27907073498       0.335006117821      0.604293525219      
1.32420504093       1.17653930187       -0.234920725226     
1.32420504093       1.17653930187       0.234920725226      
1.39947092533       0.161138445139      -0.683996498585     
1.39947092533       0.161138445139      0.683996498585      
1.41392552853       0.724590361118      -0.52285015583      
1.41392552853       0.724590361118      0.52285015583       
1.41572022438       0.942254066467      -0.436294019222     
1.41572022438       0.942254066467      0.436294019222      
1.42853081226       1.42853081226       0.0                 
1.46657133102       0.522506594658      -0.604293584824     
1.46657133102       0.522506594658      0.604293584824      
1.46680521965       1.17653930187       -0.347333341837     
1.46680521965       1.17653930187       0.347333341837      
1.4675296545        1.42853081226       -0.10921831429      
1.4675296545        1.42853081226       0.10921831429       
1.57333862782       0.335006117821      -0.683996558189     
1.57333862782       0.335006117821      0.683996558189      
1.57619655132       1.42853081226       -0.234920740128     
1.57619655132       1.42853081226       0.234920740128      
1.57641971111       0.0                 -0.760520398617     
1.57641971111       0.0                 0.760520398617      
1.63158929348       0.942254066467      -0.52285015583      
1.63158929348       0.942254066467      0.52285015583       
1.65000545979       1.17653930187       -0.436294049025     
1.65000545979       1.17653930187       0.436294049025      
1.66865515709       0.724590361118      -0.604293584824     
1.66865515709       0.724590361118      0.604293584824      
1.69935321808       1.69935321808       0.0                 
1.71879673004       1.42853081226       -0.347333371639     
1.71879673004       1.42853081226       0.347333371639      
1.73755824566       0.161138445139      -0.760520458221     
1.73755824566       0.161138445139      0.760520458221      
1.73835194111       1.69935321808       -0.109218329191     
1.73835194111       1.69935321808       0.109218329191      
1.76083922386       0.522506594658      -0.683996558189     
1.76083922386       0.522506594658      0.683996558189      
1.84701895714       1.69935321808       -0.234920755029     
1.84701895714       1.69935321808       0.234920755029      
1.86587452888       1.17653930187       -0.522850215435     
1.86587452888       1.17653930187       0.522850215435      
1.88631892204       0.942254066467      -0.604293644428     
1.88631892204       0.942254066467      0.604293644428      
1.90199697018       1.42853081226       -0.436294078827     
1.90199697018       1.42853081226       0.436294078827      
1.91142594814       0.335006117821      -0.760520458221     
1.91142594814       0.335006117821      0.760520458221      
1.96138751507       0.0                 -0.833668828011     
1.96138751507       0.0                 0.833668828011      
1.96292304993       0.724590361118      -0.683996617794     
1.96292304993       0.724590361118      0.683996617794      
1.98961913586       1.69935321808       -0.347333401442     
1.98961913586       1.69935321808       0.347333401442      
1.99016737938       1.99016737938       0.0                 
2.02916622162       1.99016737938       -0.109218336642     
2.02916622162       1.99016737938       0.109218336642      
2.09892654419       0.522506594658      -0.760520517826     
2.09892654419       0.522506594658      0.760520517826      
2.11786603928       1.42853081226       -0.52285027504      
2.11786603928       1.42853081226       0.52285027504       
2.12060427666       1.17653930187       -0.604293704033     
2.12060427666       1.17653930187       0.604293704033      
2.12252616882       0.161138445139      -0.833668828011     
2.12252616882       0.161138445139      0.833668828011      
2.13783311844       1.99016737938       -0.234920784831     
2.13783311844       1.99016737938       0.234920784831      
2.17281937599       1.69935321808       -0.436294138432     
2.17281937599       1.69935321808       0.436294138432      
2.18058681488       0.942254066467      -0.683996677399     
2.18058681488       0.942254066467      0.683996677399      
2.28043341637       1.99016737938       -0.347333431244     
2.28043341637       1.99016737938       0.347333431244      
2.29639387131       0.335006117821      -0.833668887615     
2.29639387131       0.335006117821      0.833668887615      
2.30101037025       0.724590361118      -0.760520577431     
2.30101037025       0.724590361118      0.760520577431      
2.30216526985       2.30216526985       0.0                 
2.34116411209       2.30216526985       -0.109218344092     
2.34116411209       2.30216526985       0.109218344092      
2.37259578705       1.42853081226       -0.604293763638     
2.37259578705       1.42853081226       0.604293763638      
2.3886885643        1.69935321808       -0.52285027504      
2.3886885643        1.69935321808       0.52285027504       
2.39635515213       0.0                 -0.90206104517      
2.39635515213       0.0                 0.90206104517       
2.41487216949       1.17653930187       -0.683996737003     
2.41487216949       1.17653930187       0.683996737003      
2.44983124733       2.30216526985       -0.234920799732     
2.44983124733       2.30216526985       0.234920799732      
2.46363353729       1.99016737938       -0.436294168234     
2.46363353729       1.99016737938       0.436294168234      
[...]
CELL_DATA 13888
SCALARS panel_area float 1
LOOKUP_TABLE default
0.0105523563125     
0.0105525096478     
0.0122489760239     
0.0122489760155     
0.0141845523701     
0.0141843985623     
0.0163807222032     
0.0163807222032     
0.01885726053       
0.0188572604942     
0.0216288375979     
0.021628992408      
0.0247043310292     
0.0247041758149     
0.0280825844134     
0.028082584431      
0.0317498626655     
0.0317500188455     
0.0356769252028     
0.035676768566      
0.0398129273998     
0.0398130057842     
0.0440860011857     
0.0440859226038     
0.048403229515      
0.048403229515      
0.0526500439044     
0.0526500444179     
0.0566817518343     
0.0566818303516     
0.0603585249803     
0.0603584464333     
0.063524900702      
0.063524900702      
0.0660164850825     
0.0660165633855     
0.0677483108222     
0.0677483121975     
0.0685907676863     
0.0685906887145     
0.0685512170327     
0.068551140162      
0.0675793041781     
0.0675793418169     
0.06578114351       
0.0657811815444     
0.0632274084419     
0.0632274099289     
0.0600153631845     
0.0600153631845     
0.0564210868276     
0.0564210868276     
0.0524581871993     
0.0524581494488     
0.0482912569589     
0.0482912800822     
0.0440866488387     
0.0440866643718     
0.0399196141252     
0.0399195962018     
0.0359009650943     
0.0359009773081     
0.0321168779246     
0.0321168825323     
0.0286009229069     
0.0286009229069     
0.0253887255224     
0.0253887294062     
0.022523846995      
0.0225238520048     
0.0199940560519     
0.019994053255      
0.0179056438158     
0.0179056452645     
0.0172063791373     
0.0172063813212     
0.0167867800566     
0.0167867809488     
0.0128351006821     
0.0128351015388     
0.0128351015388     
0.0128351006821     
0.0167867809488     
0.0167867800566     
0.0172063813212     
0.0172063791373     
0.0179056452645     
0.0179056438158     
0.019994053255      
0.0199940560519     
0.0225238520048     
0.022523846995      
0.0253887294062     
0.0253887255224     
0.0286009229069     
0.0286009229069     
0.0321168825323     
0.0321168779246     
0.0359009773081     
0.0359009650943     
0.0399195962018     
0.0399196141252     
0.0440866643718     
0.0440866488387     
0.0482912800822     
0.0482912569589     
0.0524581494488     
0.0524581871993     
0.0564210868276     
0.0564210868276     
0.0600153631845     
0.0600153631845     
0.0632274099289     
0.0632274084419     
0.0657811815444     
0.06578114351       
0.0675793418169     
0.0675793041781     
0.068551140162      
0.0685512170327     
0.0685906887145     
0.0685907676863     
0.0677483121975     
0.0677483108222     
0.0660165633855     
0.0660164850825     
0.063524900702      
0.063524900702      
0.0603584464333     
0.0603585249803     
0.0566818303516     
0.0566817518343     
0.0526500444179     
0.0526500439044     
0.048403229515      
0.048403229515      
0.0440859226038     
0.0440860011857     
0.0398130057842     
0.0398129273998     
0.035676768566      
0.0356769252028     
0.0317500188455     
0.0317498626655     
0.028082584431      
0.0280825844134     
0.0247041758149     
0.0247043310292     
0.021628992408      
0.0216288375979     
0.0188572604942     
0.01885726053       
0.0163807222032     
0.0163807222032     
0.0141843985623     
0.0141845523701     
0.0122489760155     
0.0122489760239     
0.0105525096478     
0.0105523563125     
0.0113861116376     
0.0113859462887     
0.0132165898218     
0.0132165898024     
0.0153049040023     
0.0153050698112     
0.0176748938083     
0.0176747276637     
0.0203467377455     
0.0203469041895     
0.0233375879401     
0.0233374211272     
0.0266558616782     
0.0266558616606     
0.0303008220555     
0.030300989735      
0.0342581310681     
0.0342579628868     
0.0384952412655     
0.0384952413371     
0.0429579744343     
0.0429579744343     
0.0475685175544     
0.047568602177      
0.0522268756681     
0.0522268760587     
0.0568091699285     
0.0568091694554     
0.0611594466333     
0.0611593620339     
0.0651264993615     
0.0651265839914     
0.0685431731455     
0.0685430872248     
0.0712314967092     
0.0712314980302     
0.0731001282176     
0.0731001269108     
0.0740091332063     
0.0740091344022     
0.0739663788106     
0.0739663813437     
0.07291781492       
0.07291781492       
0.0709776074461     
0.0709776074461     
0.0682220968703     
0.0682220953492     
0.0647563129227     
0.0647563129227     
0.0608781058828     
0.0608781058828     
0.0566021145725     
0.0566021553475     
0.0521060778743     
0.0521060732092     
0.0475693149293     
0.0475693205432     
0.0430730691942     
0.0430730660079     
0.0387369933996     
0.0387369933996     
0.0346539745346     
0.0346539785416     
0.0308602716573     
0.0308602672512     
0.0273943273736     
0.027394332213      
0.0243031370944     
0.0243031278494     
0.021573495243      
0.0215735017799     
0.0193201130043     
0.0193201177763     
0.0185656107511     
0.0185656099028     
0.0181128639591     
0.0181128631545     
0.0138490179374     
0.0138490189252     
0.0138490189252     
0.0138490179374     
0.0181128631545     
0.0181128639591     
0.0185656099028     
0.0185656107511     
0.0193201177763     
0.0193201130043     
0.0215735017799     
0.021573495243      
0.0243031278494     
0.0243031370944     
0.027394332213      
0.0273943273736     
0.0308602672512     
0.0308602716573     
0.0346539785416     
0.0346539745346     
0.0387369933996     
0.0387369933996     
0.0430730660079     
0.0430730691942     
0.0475693205432     
0.0475693149293     
0.0521060732092     
0.0521060778743     
0.0566021553475     
0.0566021145725     
0.0608781058828     
0.0608781058828     
0.0647563129227     
0.0647563129227     
0.0682220953492     
0.0682220968703     
0.0709776074461     
0.0709776074461     
0.07291781492       
0.07291781492       
0.0739663813437     
0.0739663788106     
0.0740091344022     
0.0740091332063     
0.0731001269108     
0.0731001282176     
0.0712314980302     
0.0712314967092     
0.0685430872248     
0.0685431731455     
0.0651265839914     
0.0651264993615     
0.0611593620339     
0.0611594466333     
0.0568091694554     
0.0568091699285     
0.0522268760587     
0.0522268756681     
0.047568602177      
0.0475685175544     
0.0429579744343     
0.0429579744343     
0.0384952413371     
0.0384952412655     
0.0342579628868     
0.0342581310681     
0.030300989735      
0.0303008220555     
0.0266558616606     
0.0266558616782     
0.0233374211272     
0.0233375879401     
0.0203469041895     
0.0203467377455     
0.0176747276637     
0.0176748938083     
0.0153050698112     
0.0153049040023     
0.0132165898024     
0.0132165898218     
0.0113859462887     
0.0113861116376     
0.0122788853353     
0.0122788853233     
0.0142528912354     
0.0142528912244     
0.0165049483375     
0.0165049483177     
0.0190607645545     
0.0190607645887     
0.0219421077791     
0.0219421077791     
0.0251674649982     
0.025167464955      
0.0287459249143     
0.0287459248859     
0.0326766833332     
0.0326766833332     
0.0369442769458     
0.0369442769458     
0.041513619603      
0.0415136195531     
0.0463262719219     
0.0463262721027     
0.0512984122968     
0.0512983209409     
0.0563219341129     
0.0563219341129     
0.0612635210948     
0.0612635215247     
0.0659548992829     
0.0659548982788     
0.0702330066336     
0.0702330077634     
0.0739174896723     
0.0739175820263     
0.0768167869944     
0.0768166948426     
0.078831841563      
0.078831841563      
0.0798121230482     
0.0798121230482     
0.0797660149857     
0.0797660123949     
0.0786352304931     
0.0786352304931     
0.0765428941321     
0.0765428941321     
0.0735713270275     
0.0735713285853     
0.0698337954933     
0.0698337954933     
0.0656515007014     
0.0656515451687     
0.0610402759345     
0.0610402319204     
0.0561916635906     
0.0561916900956     
0.0512991878094     
0.0512991849163     
0.0464503864448     
0.0464503897351     
0.0417743286198     
0.0417743249148     
0.0373711643763     
0.0373711743693     
0.0332799932854     
0.0332799978666     
0.0295422974607     
0.0295422924158     
0.0262087141748     
0.0262087284113     
0.0232650609191     
0.023265053887      
0.0208349903939     
0.0208349903939     
0.0200213219782     
0.0200213259759     
0.019533075855      
0.0195330766149     
0.0149349087661     
0.0149349093917     
0.0149349093917     
0.0149349087661     
0.0195330766149     
0.019533075855      
0.0200213259759     
0.0200213219782     
0.0208349903939     
0.0208349903939     
0.023265053887      
0.0232650609191     
0.0262087284113     
0.0262087141748     
0.0295422924158     
0.0295422974607     
0.0332799978666     
0.0332799932854     
0.0373711743693     
0.0373711643763     
0.0417743249148     
0.0417743286198     
0.0464503897351     
0.0464503864448     
0.0512991849163     
0.0512991878094     
0.0561916900956     
0.0561916635906     
0.0610402319204     
0.0610402759345     
0.0656515451687     
0.0656515007014     
0.0698337954933     
0.0698337954933     
0.0735713285853     
0.0735713270275     
0.0765428941321     
0.0765428941321     
0.0786352304931     
0.0786352304931     
0.0797660123949     
0.0797660149857     
0.0798121230482     
0.0798121230482     
0.078831841563      
0.078831841563      
0.0768166948426     
0.0768167869944     
0.0739175820263     
0.0739174896723     
0.0702330077634     
0.0702330066336     
0.0659548982788     
0.0659548992829     
0.0612635215247     
0.0612635210948     
0.0563219341129     
0.0563219341129     
0.0512983209409     
0.0512984122968     
0.0463262721027     
0.0463262719219     
0.0415136195531     
0.041513619603      
0.0369442769458     
0.0369442769458     
0.0326766833332     
0.0326766833332     
0.0287459248859     
0.0287459249143     
0.025167464955      
0.0251674649982     
0.0219421077791     
0.0219421077791     
0.0190607645887     
0.0190607645545     
0.0165049483177     
0.0165049483375     
0.0142528912244     
0.0142528912354     
0.0122788853233     
0.0122788853353     
0.0132337126571     
0.0132339046011     
0.0153614434778     
0.0153614434654     
0.0177888502156     
0.0177886577593     
0.0205430678157     
0.0205432604988     
0.0236488975986     
0.023648704548      
0.0271247306196     
0.0271249240384     
0.0309817068398     
0.0309817068797     
0.0352183796782     
0.0352181853946     
0.0398175104091     
0.0398177051812     
0.0447424395606     
0.0447424395874     
0.0499295976078     
0.0499294015759     
0.0552881657976     
0.0552882642452     
0.0607025055336     
0.0607025055336     
0.0660284354701     
0.0660284350864     
0.0710846962923     
0.0710846972051     
0.0756955468871     
0.0756955468871     
0.0796665967815     
0.0796665967815     
0.0827913898354     
0.0827913898354     
0.0849631737656     
0.0849631737656     
0.0860196987892     
0.0860196987892     
0.0859700035662     
0.0859701000357     
0.0847512719899     
0.0847511772519     
0.0824961995057     
0.0824962472863     
0.0792935112026     
0.0792935096056     
0.075265283159      
0.075265283159      
0.070757749787      
0.070757749787      
0.0657877814159     
0.0657877814159     
0.0605621307516     
0.0605621258073     
0.0552890979655     
0.0552891009507     
0.0500631761167     
0.0500631988405     
0.0450234201924     
0.0450234201924     
0.0402778048622     
0.0402778048622     
0.0358684250641     
0.0358684250641     
0.0318400130183     
0.0318400182831     
0.0282471744788     
0.0282471687581     
0.0250745469482     
0.0250745545099     
0.0224554796097     
0.0224554757064     
0.0215785328386     
0.021578537241      
0.0210523060468     
0.0210523071994     
0.0160965069201     
0.016096508052      
0.016096508052      
0.0160965069201     
0.0210523071994     
0.0210523060468     
0.021578537241      
0.0215785328386     
0.0224554757064     
0.0224554796097     
0.0250745545099     
0.0250745469482     
0.0282471687581     
0.0282471744788     
0.0318400182831     
0.0318400130183     
0.0358684250641     
0.0358684250641     
0.0402778048622     
0.0402778048622     
0.0450234201924     
0.0450234201924     
0.0500631988405     
0.0500631761167     
0.0552891009507     
0.0552890979655     
0.0605621258073     
0.0605621307516     
0.0657877814159     
0.0657877814159     
0.070757749787      
0.070757749787      
0.075265283159      
0.075265283159      
0.0792935096056     
0.0792935112026     
0.0824962472863     
0.0824961995057     
0.0847511772519     
0.0847512719899     
0.0859701000357     
0.0859700035662     
0.0860196987892     
0.0860196987892     
0.0849631737656     
0.0849631737656     
0.0827913898354     
0.0827913898354     
0.0796665967815     
0.0796665967815     
0.0756955468871     
0.0756955468871     
0.0710846972051     
0.0710846962923     
0.0660284350864     
0.0660284354701     
0.0607025055336     
0.0607025055336     
0.0552882642452     
0.0552881657976     
0.0499294015759     
0.0499295976078     
0.0447424395874     
0.0447424395606     
0.0398177051812     
0.0398175104091     
0.0352181853946     
0.0352183796782     
0.0309817068797     
0.0309817068398     
0.0271249240384     
0.0271247306196     
0.023648704548      
0.0236488975986     
0.0205432604988     
0.0205430678157     
0.0177886577593     
0.0177888502156     
0.0153614434654     
0.0153614434778     
0.0132339046011     
0.0132337126571     
0.0142541923329     
0.014253985668      
0.0165457553806     
0.0165457553666     
0.0191603064413     
0.0191603064157     
0.0221268666515     
0.0221268666054     
0.0254721422866     
0.0254721422866     
0.0292159525794     
0.0292159525794     
0.0333702848307     
0.0333702847785     
0.0379335899651     
0.0379335899651     
0.0428873016945     
0.0428873016945     
0.0481919198313     
0.0481919198294     
0.0537789892679     
0.0537789893527     
0.0595506911512     
0.0595506911512     
0.065382453119      
0.065382453119      
0.071118994028      
0.0711189943622     
0.0765650761561     
0.0765650761561     
0.0815314045847     
0.0815314045847     
0.0858086082894     
0.0858086082894     
0.0891743117082     
0.0891743117082     
0.0915135323953     
0.0915135323953     
0.0926515116358     
0.0926515116358     
0.0925980891839     
0.0925980919027     
0.0912851912925     
0.0912852934353     
0.088856413902      
0.0888563593884     
0.08540675692       
0.0854068103324     
0.081067968198      
0.081067968198      
0.0762129188722     
0.0762128672215     
0.0708597831012     
0.0708598342819     
0.0652312497671     
0.0652312548655     
0.0595516948181     
0.0595516886509     
0.0539228914898     
0.0539228914898     
0.0484945637261     
0.048494567707      
0.0433830803422     
0.0433830803422     
0.038633753059      
0.038633753059      
0.034294768064      
0.034294768064      
0.0304249250132     
0.0304249310045     
0.0270077154946     
0.0270077121101     
0.0241867129346     
0.0241867215068     
0.0232421633537     
0.0232421607857     
0.0226753644153     
0.0226753692063     
0.0173374891811     
0.0173374910361     
0.0173374910361     
0.0173374891811     
0.0226753692063     
0.0226753644153     
0.0232421607857     
0.0232421633537     
0.0241867215068     
0.0241867129346     
0.0270077121101     
0.0270077154946     
0.0304249310045     
0.0304249250132     
0.034294768064      
0.034294768064      
0.038633753059      
0.038633753059      
0.0433830803422     
0.0433830803422     
0.048494567707      
0.0484945637261     
0.0539228914898     
0.0539228914898     
0.0595516886509     
0.0595516948181     
0.0652312548655     
0.0652312497671     
0.0708598342819     
0.0708597831012     
0.0762128672215     
0.0762129188722     
0.081067968198      
0.081067968198      
0.0854068103324     
0.08540675692       
0.0888563593884     
0.088856413902      
0.0912852934353     
0.0912851912925     
0.0925980919027     
0.0925980891839     
0.0926515116358     
0.0926515116358     
0.0915135323953     
0.0915135323953     
0.0891743117082     
0.0891743117082     
0.0858086082894     
0.0858086082894     
0.0815314045847     
0.0815314045847     
0.0765650761561     
0.0765650761561     
0.0711189943622     
0.071118994028      
0.065382453119      
0.065382453119      
0.0595506911512     
0.0595506911512     
0.0537789893527     
0.0537789892679     
0.0481919198294     
0.0481919198313     
0.0428873016945     
0.0428873016945     
0.0379335899651     
0.0379335899651     
0.0333702847785     
0.0333702848307     
0.0292159525794     
0.0292159525794     
0.0254721422866     
0.0254721422866     
0.0221268666054     
0.0221268666515     
0.0191603064157     
0.0191603064413     
0.0165457553666     
0.0165457553806     
0.014253985668      
0.0142541923329     
0.015342467143      
0.0153426894342     
0.0178092455592     
0.0178092455279     
0.0206234525911     
0.0206234525911     
0.0238165493145     
0.0238165493671     
0.0274172817535     
0.0274172816601     
0.0314472029519     
0.0314469791693     
0.0359185501267     
0.0359185500614     
0.0408301032037     
0.040830327849      
0.0461625427434     
0.0461623175999     
0.0518720142404     
0.0518720142159     
0.0578855103044     
0.0578857365581     
0.0640981843683     
0.0640981843683     
0.0703752794887     
0.0703752794887     
0.0765499918585     
0.0765498776037     
0.0824118410383     
0.0824118417495     
0.0877574142049     
0.0877574133638     
0.0923613505761     
0.0923612370873     
0.0959838465254     
0.0959839607814     
0.0985019242743     
0.0985018111923     
0.0997266896587     
0.0997266887529     
0.0996691883865     
0.0996690765036     
0.0982561427075     
0.0982561427075     
0.0956417291329     
0.0956417876832     
0.0919287606421     
0.0919287606421     
0.0872585899882     
0.0872585899882     
0.0820327373091     
0.0820327929182     
0.0762709289547     
0.0762709328653     
0.0702125322279     
0.0702124724777     
0.0640992570833     
0.0640993140338     
0.0580406265773     
0.0580406000782     
0.0521977771224     
0.0521978031341     
0.0466959582889     
0.0466959582889     
0.0415839565463     
0.0415839565463     
0.0369136322191     
0.0369136322191     
0.0327482791488     
0.0327482904588     
0.0290701095204     
0.0290701130777     
0.0260337018504     
0.0260337018504     
0.0250170101665     
0.0250170125634     
0.0244069386042     
0.0244069385201     
0.0186614420914     
0.0186614428655     
0.0186614428655     
0.0186614420914     
0.0244069385201     
0.0244069386042     
0.0250170125634     
0.0250170101665     
0.0260337018504     
0.0260337018504     
0.0290701130777     
0.0290701095204     
0.0327482904588     
0.0327482791488     
0.0369136322191     
0.0369136322191     
0.0415839565463     
0.0415839565463     
0.0466959582889     
0.0466959582889     
0.0521978031341     
0.0521977771224     
0.0580406000782     
0.0580406265773     
0.0640993140338     
0.0640992570833     
0.0702124724777     
0.0702125322279     
0.0762709328653     
0.0762709289547     
0.0820327929182     
0.0820327373091     
0.0872585899882     
0.0872585899882     
0.0919287606421     
0.0919287606421     
0.0956417876832     
0.0956417291329     
0.0982561427075     
0.0982561427075     
0.0996690765036     
0.0996691883865     
0.0997266887529     
0.0997266896587     
0.0985018111923     
0.0985019242743     
0.0959839607814     
0.0959838465254     
0.0923612370873     
0.0923613505761     
0.0877574133638     
0.0877574142049     
0.0824118417495     
0.0824118410383     
0.0765498776037     
0.0765499918585     
0.0703752794887     
0.0703752794887     
0.0640981843683     
0.0640981843683     
0.0578857365581     
0.0578855103044     
0.0518720142159     
0.0518720142404     
0.0461623175999     
0.0461625427434     
0.040830327849      
0.0408301032037     
0.0359185500614     
0.0359185501267     
0.0314469791693     