# vtk DataFile Version 3.0
PyPan mesh file. Generated by PyPan, USU AeroLab (c) 2020.
ASCII
DATASET POLYDATA
POINTS 685 float
0.0                 0.0                 0.0                 
0.175594627857      0.995846629143      0.0                 
0.327008455992      0.0                 -0.377908974886     
0.327008455992      0.0                 0.377908974886      
0.502603054047      0.995846629143      -0.377908974886     
0.502603054047      0.995846629143      0.377908974886      
0.560036540031      3.17612481117       0.0                 
0.887044966221      3.17612481117       -0.377908974886     
0.887044966221      3.17612481117       0.377908974886      
1.33661055565       7.58029556274       0.0                 
1.4189363718        0.0                 -0.747395038605     
1.4189363718        0.0                 0.747395038605      
1.59453094006       0.995846629143      -0.747395038605     
1.59453094006       0.995846629143      0.747395038605      
1.66361904144       7.58029556274       -0.377908974886     
1.66361904144       7.58029556274       0.377908974886      
1.97897291183       3.17612481117       -0.747395038605     
1.97897291183       3.17612481117       0.747395038605      
2.6780898571        15.1882019043       0.0                 
2.75554704666       7.58029556274       -0.747395038605     
2.75554704666       7.58029556274       0.747395038605      
3.0050983429        15.1882019043       -0.377908974886     
3.0050983429        15.1882019043       0.377908974886      
3.75130796432       0.0                 -1.09082520008      
3.75130796432       0.0                 1.09082520008       
3.92690253258       0.995846629143      -1.09082520008      
3.92690253258       0.995846629143      1.09082520008       
4.09702634811       15.1882019043       -0.747395038605     
4.09702634811       15.1882019043       0.747395038605      
4.31134462357       3.17612481117       -1.09082520008      
4.31134462357       3.17612481117       1.09082520008       
4.47088384628       25.3556423187       0.0                 
4.7978925705        25.3556423187       -0.377908974886     
4.7978925705        25.3556423187       0.377908974886      
5.08791828156       7.58029556274       -1.09082520008      
5.08791828156       7.58029556274       1.09082520008       
5.88982009888       25.3556423187       -0.747395038605     
5.88982009888       25.3556423187       0.747395038605      
6.19334459305       35.1242027283       0.0                 
6.42939758301       15.1882019043       -1.09082520008      
6.42939758301       15.1882019043       1.09082520008       
6.52035284042       35.1242027283       -0.377908974886     
6.52035284042       35.1242027283       0.377908974886      
7.39631891251       41.9466094971       0.0                 
7.61228084564       35.1242027283       -0.747395038605     
7.61228084564       35.1242027283       0.747395038605      
7.64637804031       0.0                 -1.16701817513      
7.64637804031       0.0                 1.16701817513       
7.72332715988       41.9466094971       -0.377908974886     
7.72332715988       41.9466094971       0.377908974886      
7.82197284698       0.995846629143      -1.16701817513      
7.82197284698       0.995846629143      1.16701817513       
8.06186580658       45.7211151123       0.0                 
8.20641422272       3.17612481117       -1.16701817513      
8.20641422272       3.17612481117       1.16701817513       
8.22219181061       25.3556423187       -1.09082520008      
8.22219181061       25.3556423187       1.09082520008       
8.38340854645       47.544670105        0.0                 
8.38887500763       45.7211151123       -0.377908974886     
8.38887500763       45.7211151123       0.377908974886      
8.52857303619       48.3679389954       0.0                 
8.59209823608       48.7282104492       0.0                 
8.61951828003       48.8837165833       0.0                 
8.6312828064        48.9504356384       0.0                 
8.63631725311       48.9789886475       0.0                 
8.63846969604       48.9911956787       0.0                 
8.63938999176       48.9964141846       0.0                 
8.63978290558       48.9986419678       0.0                 
8.63995075226       48.9995918274       0.0                 
8.64002227783       49.0                0.0                 
8.71041679382       47.544670105        -0.377908974886     
8.71041679382       47.544670105        0.377908974886      
8.8152551651        41.9466094971       -0.747395038605     
8.8152551651        41.9466094971       0.747395038605      
8.85558128357       48.3679389954       -0.377908974886     
8.85558128357       48.3679389954       0.377908974886      
8.91910648346       48.7282104492       -0.377908974886     
8.91910648346       48.7282104492       0.377908974886      
8.9465265274        48.8837165833       -0.377908974886     
8.9465265274        48.8837165833       0.377908974886      
8.95829105377       48.9504356384       -0.377908974886     
8.95829105377       48.9504356384       0.377908974886      
8.96332550049       48.9789886475       -0.377908974886     
8.96332550049       48.9789886475       0.377908974886      
8.96547794342       48.9911956787       -0.377908974886     
8.96547794342       48.9911956787       0.377908974886      
8.96639823914       48.9964141846       -0.377908974886     
8.96639823914       48.9964141846       0.377908974886      
8.96679115295       48.9986419678       -0.377908974886     
8.96679115295       48.9986419678       0.377908974886      
8.96695899963       48.9995918274       -0.377908974886     
8.96695899963       48.9995918274       0.377908974886      
8.96703052521       49.0                -0.377908974886     
8.96703052521       49.0                0.377908974886      
8.98298835754       7.58029556274       -1.16701817513      
8.98298835754       7.58029556274       1.16701817513       
9.01343345642       49.2631607056       -0.267221987247     
9.01343345642       49.2631607056       0.267221987247      
9.03265380859       49.3721694946       -1.18643873158e-15  
9.48080253601       45.7211151123       -0.747395038605     
9.48080253601       45.7211151123       0.747395038605      
9.8023443222        47.544670105        -0.747395038605     
9.8023443222        47.544670105        0.747395038605      
9.94465255737       35.1242027283       -1.09082520008      
9.94465255737       35.1242027283       1.09082520008       
9.94750881195       48.3679389954       -0.747395038605     
9.94750881195       48.3679389954       0.747395038605      
10.0110349655       48.7282104492       -0.747395038605     
10.0110349655       48.7282104492       0.747395038605      
10.0384540558       48.8837165833       -0.747395038605     
10.0384540558       48.8837165833       0.747395038605      
10.0502185822       48.9504356384       -0.747395038605     
10.0502185822       48.9504356384       0.747395038605      
10.0552539825       48.9789886475       -0.747395038605     
10.0552539825       48.9789886475       0.747395038605      
10.0574064255       48.9911956787       -0.747395038605     
10.0574064255       48.9911956787       0.747395038605      
10.0583257675       48.9964141846       -0.747395038605     
10.0583257675       48.9964141846       0.747395038605      
10.0587186813       48.9986419678       -0.747395038605     
10.0587186813       48.9986419678       0.747395038605      
10.058886528        48.9995918274       -0.747395038605     
10.058886528        48.9995918274       0.747395038605      
10.0589580536       49.0                -0.747395038605     
10.0589580536       49.0                0.747395038605      
10.1507291794       49.5204582214       -0.528488099575     
10.1507291794       49.5204582214       0.528488099575      
10.1887426376       49.7360420227       -6.43262760529e-16  
10.324467659        15.1882019043       -1.16701817513      
10.324467659        15.1882019043       1.16701817513       
11.1476268768       41.9466094971       -1.09082520008      
11.1476268768       41.9466094971       1.09082520008       
11.8131742477       45.7211151123       -1.09082520008      
11.8131742477       45.7211151123       1.09082520008       
12.1172618866       25.3556423187       -1.16701817513      
12.1172618866       25.3556423187       1.16701817513       
12.1347160339       47.544670105        -1.09082520008      
12.1347160339       47.544670105        1.09082520008       
12.2584857941       0.0                 -0.823081254959     
12.2584857941       0.0                 0.823081254959      
12.2798805237       48.3679389954       -1.09082520008      
12.2798805237       48.3679389954       1.09082520008       
12.3434066772       48.7282104492       -1.09082520008      
12.3434066772       48.7282104492       1.09082520008       
12.3708257675       48.8837165833       -1.09082520008      
12.3708257675       48.8837165833       1.09082520008       
12.3825902939       48.9504356384       -1.09082520008      
12.3825902939       48.9504356384       1.09082520008       
12.3876256943       48.9789886475       -1.09082520008      
12.3876256943       48.9789886475       1.09082520008       
12.3897781372       48.9911956787       -1.09082520008      
12.3897781372       48.9911956787       1.09082520008       
12.3906974792       48.9964141846       -1.09082520008      
12.3906974792       48.9964141846       1.09082520008       
12.3910903931       48.9986419678       -1.09082520008      
12.3910903931       48.9986419678       1.09082520008       
12.3912582397       48.9995918274       -1.09082520008      
12.3912582397       48.9995918274       1.09082520008       
12.3913297653       49.0                -1.09082520008      
12.3913297653       49.0                1.09082520008       
12.4340801239       0.995846629143      -0.823081254959     
[...]
CELL_DATA 1336
SCALARS panel_area float 1
LOOKUP_TABLE default
0.000412670881711   
0.000412670881711   
0.00102594147487    
0.00102594147487    
0.00254956537096    
0.0025505095903     
0.0063323547599     
0.00633141052832    
0.0157043516928     
0.0157043516928     
0.0388273092414     
0.0388273092414     
0.095248249303      
0.0952491938611     
0.229241182869      
0.229240237816      
0.527280269727      
0.527280269727      
1.09593142086       
1.0959309467        
1.86452934311       
1.86452981873       
2.30305029918       
2.30305053701       
1.93982876429       
1.93982888295       
1.17425146101       
1.17425146101       
0.574895775383      
0.57489576166       
0.251039295931      
0.251039287051      
0.251039287051      
0.251039295931      
0.57489576166       
0.574895775383      
1.17425146101       
1.17425146101       
1.93982888295       
1.93982876429       
2.30305053701       
2.30305029918       
1.86452981873       
1.86452934311       
1.0959309467        
1.09593142086       
0.527280269727      
0.527280269727      
0.229240237816      
0.229241182869      
0.0952491938611     
0.095248249303      
0.0388273092414     
0.0388273092414     
0.0157043516928     
0.0157043516928     
0.00633141052832    
0.0063323547599     
0.0025505095903     
0.00254956537096    
0.00102594147487    
0.00102594147487    
0.000412670881711   
0.000412670881711   
0.000903489848291   
0.000903489848291   
0.00224616697849    
0.00224616697849    
0.00558194564314    
0.00558194564314    
0.0138618094739     
0.0138638767191     
0.0343847265774     
0.0343826592989     
0.0850074024866     
0.0850074024866     
0.208533798062      
0.208533798062      
0.501894099932      
0.501894099932      
1.15441237077       
1.15441237077       
2.39939890143       
2.39940097259       
4.08214940077       
4.08214732636       
5.04223258165       
5.04223258165       
4.24700598118       
4.2470052017        
2.57087262968       
2.57087275768       
1.25866037117       
1.258660432         
0.549618249968      
0.549618249968      
0.549618249968      
0.549618249968      
1.258660432         
1.25866037117       
2.57087275768       
2.57087262968       
4.2470052017        
4.24700598118       
5.04223258165       
5.04223258165       
4.08214732636       
4.08214940077       
2.39940097259       
2.39939890143       
1.15441237077       
1.15441237077       
0.501894099932      
0.501894099932      
0.208533798062      
0.208533798062      
0.0850074024866     
0.0850074024866     
0.0343826592989     
0.0343847265774     
0.0138638767191     
0.0138618094739     
0.00558194564314    
0.00558194564314    
0.00224616697849    
0.00224616697849    
0.000903489848291   
0.000903489848291   
0.00182505315169    
0.00182505315169    
0.00454144220182    
0.00453726638717    
0.0112755527903     
0.0112755527903     
0.0280009112384     
0.0280009112384     
0.0694531109363     
0.0694572867866     
0.17171529721       
0.17171529721       
0.421243292166      
0.421239116058      
1.01382393744       
1.01382811399       
2.33191766308       
2.33191766308       
4.84679967107       
4.84679549168       
8.24595620862       
8.24595830028       
10.1853302238       
10.1853302238       
8.57896769557       
8.57896874533       
5.19317337217       
5.19317233578       
2.54249916574       
2.54249928925       
1.11023108574       
1.11023116938       
1.11023116938       
1.11023108574       
2.54249928925       
2.54249916574       
5.19317233578       
5.19317337217       
8.57896874533       
8.57896769557       
10.1853302238       
10.1853302238       
8.24595830028       
8.24595620862       
4.84679549168       
4.84679967107       
2.33191766308       
2.33191766308       
1.01382811399       
1.01382393744       
0.421239116058      
0.421243292166      
0.17171529721       
0.17171529721       
0.0694572867866     
0.0694531109363     
0.0280009112384     
0.0280009112384     
0.0112755527903     
0.0112755527903     
0.00453726638717    
0.00454144220182    
0.00182505315169    
0.00182505315169    
0.0031526555669     
0.0031526555669     
0.00783782002899    
0.00784503346283    
0.0194777529023     
0.0194777529023     
0.0483768889556     
0.0483696755286     
0.11997553979       
0.11997553979       
0.296626532312      
0.296626532312      
0.727662010362      
0.727669224043      
1.75131932243       
1.75131210837       
4.02822964099       
4.02822964099       
8.37251056907       
8.37251778559       
14.2443338374       
14.2443302267       
17.5944673294       
17.5944673294       
14.8195867971       
14.8195867971       
8.97085307938       
8.97085307938       
4.39199512651       
4.39199512651       
1.91784907276       
1.91784907276       
1.91784907276       
1.91784907276       
4.39199512651       
4.39199512651       
8.97085307938       
8.97085307938       
14.8195867971       
14.8195867971       
17.5944673294       
17.5944673294       
14.2443302267       
14.2443338374       
8.37251778559       
8.37251056907       
4.02822964099       
4.02822964099       
1.75131210837       
1.75131932243       
0.727669224043      
0.727662010362      
0.296626532312      
0.296626532312      
0.11997553979       
0.11997553979       
0.0483696755286     
0.0483768889556     
0.0194777529023     
0.0194777529023     
0.00784503346283    
0.00783782002899    
0.0031526555669     
0.0031526555669     
0.00421330602643    
0.00421330602643    
0.0104843444038     
0.0104747041499     
0.0260306690255     
0.0260306690255     
0.0646427245225     
0.0646523647604     
0.160339007574      
0.160339007574      
0.396420836233      
0.396420836233      
0.972479568517      
0.972469928053      
2.34050745507       
2.34051709588       
5.3834501937        
5.3834501937        
11.1892907031       
11.1892810602       
19.0365569208       
19.0365665694       
23.5137930147       
23.5137881782       
19.8053523481       
19.8053523481       
11.9889244235       
11.9889268188       
5.86959758752       
5.86959529994       
2.56307258377       
2.56307336396       
2.56307336396       
2.56307258377       
5.86959529994       
5.86959758752       
11.9889268188       
11.9889244235       
19.8053523481       
19.8053523481       
23.5137881782       
23.5137930147       
19.0365665694       
19.0365569208       
11.1892810602       
11.1892907031       
5.3834501937        
5.3834501937        
2.34051709588       
2.34050745507       
0.972469928053      
0.972479568517      
0.396420836233      
0.396420836233      
0.160339007574      
0.160339007574      
0.0646523647604     
0.0646427245225     
0.0260306690255     
0.0260306690255     
0.0104747041499     
0.0104843444038     
0.00421330602643    
0.00421330602643    
0.00404801333949    
0.00404801333949    
0.0100637698463     
0.0100730319024     
0.0250094569134     
0.0250094569134     
0.0621159805243     
0.0621067184828     
0.15404872977       
0.15404872977       
0.380868805413      
0.380868805413      
0.934318850276      
0.934328112548      
2.24869600491       
2.24868674229       
5.1722514481        
5.1722514481        
10.7503223694       
10.7503223694       
18.2897316024       
18.2897316024       
22.5913160921       
22.591320739        
19.02836633         
19.02836633         
11.5185878761       
11.5185878761       
5.6393245411        
5.63932673874       
2.46252113255       
2.46251963385       
2.46251963385       
2.46252113255       
5.63932673874       
5.6393245411        
11.5185878761       
11.5185878761       
19.02836633         
19.02836633         
22.591320739        
22.5913160921       
18.2897316024       
18.2897316024       
10.7503223694       
10.7503223694       
5.1722514481        
5.1722514481        
2.24868674229       
2.24869600491       
0.934328112548      
0.934318850276      
0.380868805413      
0.380868805413      
0.15404872977       
0.15404872977       
0.0621067184828     
0.0621159805243     
0.0250094569134     
0.0250094569134     
0.0100730319024     
0.0100637698463     
0.00404801333949    
0.00404801333949    
0.00282715082413    
0.00282715082413    
0.00702858237575    
0.00702858237575    
0.0174667178111     
0.0174667178111     
0.0433820817116     
0.0433820817116     
0.107588329583      
0.107588329583      
0.266000496244      
0.266000496244      
0.652532510649      
0.652532510649      
1.57049945933       
1.57049945933       
3.61232380375       
3.61232380375       
7.5080672954        
7.50807376726       
12.773637746        
12.7736312695       
15.7778773304       
15.7778773304       
13.2894971016       
13.2894971016       
8.04463386577       
8.04463386577       
3.93853130134       
3.93853130134       
1.71983484774       
1.71983484774       
1.71983484774       
1.71983484774       
3.93853130134       
3.93853130134       
8.04463386577       
8.04463386577       
13.2894971016       
13.2894971016       
15.7778773304       
15.7778773304       
12.7736312695       
12.773637746        
7.50807376726       
7.5080672954        
3.61232380375       
3.61232380375       
1.57049945933       
1.57049945933       
0.652532510649      
0.652532510649      
0.266000496244      
0.266000496244      
0.107588329583      
0.107588329583      
0.0433820817116     
0.0433820817116     
0.0174667178111     
0.0174667178111     
0.00702858237575    
0.00702858237575    
0.00282715082413    
0.00282715082413    
0.00156770376138    
0.00156412495156    
0.00388857254242    
0.00388857254242    
0.00966348484733    
0.00966348484733    
0.0239976155934     
0.0240011943983     
0.0595233864173     
0.0595233864173     
0.147165128286      
0.147165128286      
0.361018058023      
0.361014478922      
0.868877334847      
0.868880914396      
1.99852652679       
1.99852294624       
4.15384821154       
4.15384821154       
7.06703205913       
7.06703205913       
8.72912981341       
8.72913161025       
7.35243193988       
7.35243193988       
4.4507043826        
4.4507043826        
2.17899768114       
2.17899683504       
0.951500933671      
0.951502077229      
0.951502077229      
0.951500933671      
2.17899683504       
2.17899768114       
4.4507043826        
4.4507043826        
7.35243193988       
7.35243193988       
8.72913161025       
8.72912981341       
7.06703205913       
7.06703205913       
4.15384821154       
4.15384821154       
1.99852294624       
1.99852652679       
0.868880914396      
0.868877334847      
0.361014478922      
0.361018058023      
0.147165128286      
0.147165128286      
0.0595233864173     
0.0595233864173     
0.0240011943983     
0.0239976155934     
0.00966348484733    
0.00966348484733    
0.00388857254242    
0.00388857254242    
0.00156412495156    
0.00156770376138    
0.000755666609889   
0.000757395620317   
0.00187866348759    
0.00187866348759    
0.00466866335847    
0.00466866335847    
0.0115955577626     
0.011593828743      
0.0287571881859     
0.0287571881859     
0.0710990342327     
0.0710990342327     
0.174414829925      
0.174416559262      
0.419777393762      
0.419775663944      
0.965534791871      
0.965536522765      
2.00682458232       
2.00682458232       
3.41425418964       
3.41425418964       
4.21725383017       
4.21725383017       
3.55213777362       
3.55213864286       
2.15024297774       
2.15024297774       
1.05272609014       
1.05272609014       
0.459693676006      
0.459693135836      
0.459693135836      
0.459693676006      
1.05272609014       
1.05272609014       
2.15024297774       
2.15024297774       
3.55213864286       
3.55213777362       
4.21725383017       
4.21725383017       
3.41425418964       
3.41425418964       
2.00682458232       
2.00682458232       
0.965536522765      
0.965534791871      
0.419775663944      
0.419777393762      
0.174416559262      
0.174414829925      
0.0710990342327     
0.0710990342327     
0.0287571881859     
0.0287571881859     
0.011593828743      
0.0115955577626     
0.00466866335847    
0.00466866335847    
0.00187866348759    
0.00187866348759    
0.000757395620317   
0.000755666609889   
0.00034115604664    
0.00034115604664    
0.000848148374797   
0.000848148374797   
0.00210773204787    
0.00210773204787    
0.00523419286706    
0.00523497346981    
0.0129836073306     
0.0129828266931     
0.0320986333408     
0.0320986333408     
0.0787419651391     
0.0787419651391     
0.189514256622      
0.189514256622      
0.43590391342       
0.43590391342       
0.906008457184      
0.906008457184      
1.54141183947       
1.54141183947       
1.90393703155       
1.90393703155       
1.60366166677       
1.60366166677       
0.970756658176      
0.970756658176      
0.475267619802      
0.475267619802      
0.207534755891      
0.207534755891      
0.207534755891      
0.207534755891      
0.475267619802      
0.475267619802      
0.970756658176      
0.970756658176      
1.60366166677       
1.60366166677       
1.90393703155       
1.90393703155       
1.54141183947       
1.54141183947       
0.906008457184      
0.906008457184      
0.43590391342       
0.43590391342       
0.189514256622      
0.189514256622      
0.0787419651391     
0.0787419651391     
0.0320986333408     
0.0320986333408     
0.0129828266931     
0.0129836073306     
0.00523497346981    
0.00523419286706    
0.00210773204787    
0.00210773204787    
0.000848148374797   
0.000848148374797   
0.00034115604664    
0.00034115604664    
0.00014929361081    
0.00014929361081    
0.000371158989039   
0.000371158989039   
0.000922366556726   
0.000922366556726   
0.00229088153623    
0.00229053992246    
0.00568142665014    
0.00568176829906    
0.0140467124083     
0.0140467124083     
0.0344583436632     
0.0344583436632     
0.0829335078481     
0.0829335078481     
0.190756311793      
0.190756311793      
0.396479534388      
0.39647918859       
0.674538301778      
0.674538650292      
0.833183973754      
0.833183626852      
0.70177985199       
0.701779508727      
0.424813713726      
0.424813713726      
0.207982304937      
0.207982457464      
0.0908194656553     
0.0908194656553     
0.0908194656553     
0.0908194656553     
0.207982457464      
0.207982304937      
0.424813713726      
0.424813713726      
0.701779508727      
0.70177985199       
0.833183626852      
0.833183973754      
0.674538650292      
0.674538301778      
0.39647918859       
0.396479534388      
0.190756311793      
0.190756311793      
0.0829335078481     
0.0829335078481     
0.0344583436632     
0.0344583436632     
0.0140467124083     
0.0140467124083     
0.00568176829906    
0.00568142665014    
0.00229053992246    
0.00229088153623    
0.000922366556726   
0.000922366556726   
0.000371158989039   
0.000371158989039   
0.00014929361081    
0.00014929361081    
6.44404988665e-05   
6.44404988665e-05   
0.000160353029054   
0.000160205582159   
0.000398126612986   
0.000398126612986   
0.00098867950505    
0.000988826971485   
0.00245230837044    
0.00245230837044    
0.00606306693312    
0.00606306693312    
0.014873609498      
0.0148734616959     
0.0357969403222     
0.0357970886327     
0.0823372937864     
0.0823372937864     
0.171134845267      
0.171134845267      
0.291155025859      
0.291155025859      
0.359632208443      
0.359632208443      
0.302913309315      
0.302913383326      
0.183364892984      
0.183364892984      
0.0897727117435     
0.089772651558      
0.0392009590723     
0.0392009590723     
0.0392009590723     
0.0392009590723     
0.089772651558      
0.0897727117435     
0.183364892984      
0.183364892984      
0.302913383326      
0.302913309315      
0.359632208443      
0.359632208443      
0.291155025859      
0.291155025859      
0.171134845267      
0.171134845267      
0.0823372937864     
0.0823372937864     
0.0357970886327     
0.0357969403222     
0.0148734616959     
0.014873609498      
0.00606306693312    
0.00606306693312    
0.00245230837044    
0.00245230837044    
0.000988826971485   
0.00098867950505    
0.000398126612986   
0.000398126612986   
0.000160205582159   
0.000160353029054   
6.44404988665e-05   
6.44404988665e-05   
2.7647843217e-05    
2.7647843217e-05    
6.87985891575e-05   
6.87985891575e-05   
0.000170814047638   
0.000170814047638   
0.000424187538755   
0.000424187538755   
0.00105214947957    
0.00105214947957    
0.00260132567143    
0.00260132567143    
0.00638144071984    
0.00638144071984    
0.0153584816259     
0.0153584816259     
0.0353263650909     
0.0353263650909     
0.0734244683782     
0.0734244683782     
0.124918469715      
0.124918469715      
0.154298229743      
0.154298229743      
0.129963328275      
0.129963328275      
0.0786717054092     
0.0786717054092     
0.0385164656221     
0.0385164656221     
0.0168189594697     
0.0168189594697     
0.0168189594697     
0.0168189594697     
0.0385164656221     
0.0385164656221     
0.0786717054092     
0.0786717054092     
0.129963328275      
0.129963328275      
0.154298229743      
0.154298229743      
0.124918469715      
0.124918469715      
0.0734244683782     
0.0734244683782     
0.0353263650909     
0.0353263650909     
0.0153584816259     
0.0153584816259     
0.00638144071984    
0.00638144071984    
0.00260132567143    
0.00260132567143    
0.00105214947957    
0.00105214947957    
0.000424187538755   
0.000424187538755   
0.000170814047638   
0.000170814047638   
6.87985891575e-05   
6.87985891575e-05   
2.7647843217e-05    
2.7647843217e-05    
1.18592118982e-05   
1.18321377185e-05   
2.94158889334e-05   
2.94429653291e-05   
7.31013839715e-05   
7.31013839715e-05   
0.000181534812713   
0.000181534812713   
0.000450276684884   
0.000450276684884   
0.0011132603517     
0.0011132603517     
0.00273099405374    
0.00273099405374    
0.00657279818808    
0.00657279818808    
0.0151182577779     
0.0151182286869     
0.0314226200073     
0.0314226513379     
0.0534599920776     
0.0534599581313     
0.0660332604824     
0.0660332919354     
0.0556189544696     
0.0556189544696     
0.0336682542288     
0.0336682542288     
0.0164834686608     
0.0164834715949     
0.00719781512829    
0.00719781512829    
0.00719781512829    
0.00719781512829    
0.0164834715949     
0.0164834686608     
0.0336682542288     
0.0336682542288     
0.0556189544696     
0.0556189544696     
0.0660332919354     
0.0660332604824     
0.0534599581313     
0.0534599920776     
0.0314226513379     
0.0314226200073     
0.0151182286869     
0.0151182577779     
0.00657279818808    
0.00657279818808    
0.00273099405374    
0.00273099405374    
0.0011132603517     
0.0011132603517     
0.000450276684884   
0.000450276684884   
0.000181534812713   
0.000181534812713   
7.31013839715e-05   
7.31013839715e-05   
2.94429653291e-05   
2.94158889334e-05   
1.18321377185e-05   
1.18592118982e-05   
5.05849539209e-06   
5.07007108593e-06   
1.25759341338e-05   
1.25759341338e-05   
3.12524319946e-05   
3.12524319946e-05   
7.76216558318e-05   
7.76100578122e-05   
0.000192503019242   
0.000192503019242   
0.00047594287263    
0.00047594287263    
0.00116754743667    
0.00116755937197    
0.00281002579417    
0.00281001334808    
0.00646337051755    
0.00646338411137    
0.0134338670966     
0.0134338512617     
0.0228552911433     
0.0228553095892     
0.0282306673651     
0.0282306514561     
0.0237783103634     
0.023778304669      
0.0143939083004     
0.0143939083004     
0.00704704308672    
0.00704704308672    
0.00307722492123    
0.00307722492123    
0.00307722492123    
0.00307722492123    
0.00704704308672    
0.00704704308672    
0.0143939083004     
0.0143939083004     
0.023778304669      
0.0237783103634     
0.0282306514561     
0.0282306673651     
0.0228553095892     
0.0228552911433     
0.0134338512617     
0.0134338670966     
0.00646338411137    
0.00646337051755    
0.00281001334808    
0.00281002579417    
0.00116755937197    
0.00116754743667    
0.00047594287263    