# vtk DataFile Version 3.0
PyPan mesh file. Generated by PyPan, USU AeroLab (c) 2020.
ASCII
DATASET POLYDATA
POINTS 685 float
0.0                 0.0                 0.0                 
0.0                 0.995846629143      0.0                 
0.0                 3.17612481117       0.0                 
0.0                 7.58029556274       0.0                 
0.0                 15.1882019043       0.0                 
0.0                 25.3556423187       0.0                 
0.0                 35.1242027283       0.0                 
0.0                 41.9466094971       0.0                 
0.0                 45.7211151123       0.0                 
0.0                 47.544670105        0.0                 
0.0                 48.3679389954       0.0                 
0.0                 48.7282104492       0.0                 
0.0                 48.8837165833       0.0                 
0.0                 48.9504356384       0.0                 
0.0                 48.9789886475       0.0                 
0.0                 48.9911956787       0.0                 
0.0                 48.9964141846       0.0                 
0.0                 48.9986419678       0.0                 
0.0                 48.9995918274       0.0                 
0.0                 49.0                0.0                 
0.327008455992      0.0                 -0.377908974886     
0.327008455992      0.0                 0.377908974886      
0.327008455992      0.995846629143      -0.377908974886     
0.327008455992      0.995846629143      0.377908974886      
0.327008455992      3.17612481117       -0.377908974886     
0.327008455992      3.17612481117       0.377908974886      
0.327008455992      7.58029556274       -0.377908974886     
0.327008455992      7.58029556274       0.377908974886      
0.327008455992      15.1882019043       -0.377908974886     
0.327008455992      15.1882019043       0.377908974886      
0.327008455992      25.3556423187       -0.377908974886     
0.327008455992      25.3556423187       0.377908974886      
0.327008455992      35.1242027283       -0.377908974886     
0.327008455992      35.1242027283       0.377908974886      
0.327008455992      41.9466094971       -0.377908974886     
0.327008455992      41.9466094971       0.377908974886      
0.327008455992      45.7211151123       -0.377908974886     
0.327008455992      45.7211151123       0.377908974886      
0.327008455992      47.544670105        -0.377908974886     
0.327008455992      47.544670105        0.377908974886      
0.327008455992      48.3679389954       -0.377908974886     
0.327008455992      48.3679389954       0.377908974886      
0.327008455992      48.7282104492       -0.377908974886     
0.327008455992      48.7282104492       0.377908974886      
0.327008455992      48.8837165833       -0.377908974886     
0.327008455992      48.8837165833       0.377908974886      
0.327008455992      48.9504356384       -0.377908974886     
0.327008455992      48.9504356384       0.377908974886      
0.327008455992      48.9789886475       -0.377908974886     
0.327008455992      48.9789886475       0.377908974886      
0.327008455992      48.9911956787       -0.377908974886     
0.327008455992      48.9911956787       0.377908974886      
0.327008455992      48.9964141846       -0.377908974886     
0.327008455992      48.9964141846       0.377908974886      
0.327008455992      48.9986419678       -0.377908974886     
0.327008455992      48.9986419678       0.377908974886      
0.327008455992      48.9995918274       -0.377908974886     
0.327008455992      48.9995918274       0.377908974886      
0.327008455992      49.0                -0.377908974886     
0.327008455992      49.0                0.377908974886      
0.327008455992      49.2672233582       -0.267221987247     
0.327008455992      49.2672233582       0.267221987247      
0.327008455992      49.377910614        -1.18643873158e-15  
1.4189363718        0.0                 -0.747395038605     
1.4189363718        0.0                 0.747395038605      
1.4189363718        0.995846629143      -0.747395038605     
1.4189363718        0.995846629143      0.747395038605      
1.4189363718        3.17612481117       -0.747395038605     
1.4189363718        3.17612481117       0.747395038605      
1.4189363718        7.58029556274       -0.747395038605     
1.4189363718        7.58029556274       0.747395038605      
1.4189363718        15.1882019043       -0.747395038605     
1.4189363718        15.1882019043       0.747395038605      
1.4189363718        25.3556423187       -0.747395038605     
1.4189363718        25.3556423187       0.747395038605      
1.4189363718        35.1242027283       -0.747395038605     
1.4189363718        35.1242027283       0.747395038605      
1.4189363718        41.9466094971       -0.747395038605     
1.4189363718        41.9466094971       0.747395038605      
1.4189363718        45.7211151123       -0.747395038605     
1.4189363718        45.7211151123       0.747395038605      
1.4189363718        47.544670105        -0.747395038605     
1.4189363718        47.544670105        0.747395038605      
1.4189363718        48.3679389954       -0.747395038605     
1.4189363718        48.3679389954       0.747395038605      
1.4189363718        48.7282104492       -0.747395038605     
1.4189363718        48.7282104492       0.747395038605      
1.4189363718        48.8837165833       -0.747395038605     
1.4189363718        48.8837165833       0.747395038605      
1.4189363718        48.9504356384       -0.747395038605     
1.4189363718        48.9504356384       0.747395038605      
1.4189363718        48.9789886475       -0.747395038605     
1.4189363718        48.9789886475       0.747395038605      
1.4189363718        48.9911956787       -0.747395038605     
1.4189363718        48.9911956787       0.747395038605      
1.4189363718        48.9964141846       -0.747395038605     
1.4189363718        48.9964141846       0.747395038605      
1.4189363718        48.9986419678       -0.747395038605     
1.4189363718        48.9986419678       0.747395038605      
1.4189363718        48.9995918274       -0.747395038605     
1.4189363718        48.9995918274       0.747395038605      
1.4189363718        49.0                -0.747395038605     
1.4189363718        49.0                0.747395038605      
1.4189363718        49.5284881592       -0.528488099575     
1.4189363718        49.5284881592       0.528488099575      
1.4189363718        49.7473945618       -6.43262760529e-16  
3.75130796432       0.0                 -1.09082520008      
3.75130796432       0.0                 1.09082520008       
3.75130796432       0.995846629143      -1.09082520008      
3.75130796432       0.995846629143      1.09082520008       
3.75130796432       3.17612481117       -1.09082520008      
3.75130796432       3.17612481117       1.09082520008       
3.75130796432       7.58029556274       -1.09082520008      
3.75130796432       7.58029556274       1.09082520008       
3.75130796432       15.1882019043       -1.09082520008      
3.75130796432       15.1882019043       1.09082520008       
3.75130796432       25.3556423187       -1.09082520008      
3.75130796432       25.3556423187       1.09082520008       
3.75130796432       35.1242027283       -1.09082520008      
3.75130796432       35.1242027283       1.09082520008       
3.75130796432       41.9466094971       -1.09082520008      
3.75130796432       41.9466094971       1.09082520008       
3.75130796432       45.7211151123       -1.09082520008      
3.75130796432       45.7211151123       1.09082520008       
3.75130796432       47.544670105        -1.09082520008      
3.75130796432       47.544670105        1.09082520008       
3.75130796432       48.3679389954       -1.09082520008      
3.75130796432       48.3679389954       1.09082520008       
3.75130796432       48.7282104492       -1.09082520008      
3.75130796432       48.7282104492       1.09082520008       
3.75130796432       48.8837165833       -1.09082520008      
3.75130796432       48.8837165833       1.09082520008       
3.75130796432       48.9504356384       -1.09082520008      
3.75130796432       48.9504356384       1.09082520008       
3.75130796432       48.9789886475       -1.09082520008      
3.75130796432       48.9789886475       1.09082520008       
3.75130796432       48.9911956787       -1.09082520008      
3.75130796432       48.9911956787       1.09082520008       
3.75130796432       48.9964141846       -1.09082520008      
3.75130796432       48.9964141846       1.09082520008       
3.75130796432       48.9986419678       -1.09082520008      
3.75130796432       48.9986419678       1.09082520008       
3.75130796432       48.9995918274       -1.09082520008      
3.75130796432       48.9995918274       1.09082520008       
3.75130796432       49.0                -1.09082520008      
3.75130796432       49.0                1.09082520008       
3.75130796432       49.7713279724       -0.771329879761     
3.75130796432       49.7713279724       0.771329879761      
3.75130796432       50.0908241272       -1.90846224191e-16  
7.64637804031       0.0                 -1.16701817513      
7.64637804031       0.0                 1.16701817513       
7.64637804031       0.995846629143      -1.16701817513      
7.64637804031       0.995846629143      1.16701817513       
7.64637804031       3.17612481117       -1.16701817513      
7.64637804031       3.17612481117       1.16701817513       
7.64637804031       7.58029556274       -1.16701817513      
7.64637804031       7.58029556274       1.16701817513       
7.64637804031       15.1882019043       -1.16701817513      
7.64637804031       15.1882019043       1.16701817513       
7.64637804031       25.3556423187       -1.16701817513      
7.64637804031       25.3556423187       1.16701817513       
[...]
CELL_DATA 1336
SCALARS panel_area float 1
LOOKUP_TABLE default
0.000412598875746   
0.000412598875746   
0.00102576258565    
0.00102576258565    
0.00255006531528    
0.00255006531528    
0.0063303066902     
0.0063303066902     
0.0157016135039     
0.0157016135039     
0.0388205359478     
0.0388205359478     
0.0952325572722     
0.0952325572722     
0.229200077734      
0.229200077734      
0.527187252564      
0.527187252564      
1.09573471587       
1.09573471587       
1.86421356158       
1.86421356158       
2.30285256393       
2.30285256393       
1.93981722972       
1.93981722972       
1.17386427511       
1.17386427511       
0.573979796856      
0.573979796856      
0.248837007621      
0.248837007621      
0.248837007621      
0.248837007621      
0.573979796856      
0.573979796856      
1.17386427511       
1.17386427511       
1.93981722972       
1.93981722972       
2.30285256393       
2.30285256393       
1.86421356158       
1.86421356158       
1.09573471587       
1.09573471587       
0.527187252564      
0.527187252564      
0.229200077734      
0.229200077734      
0.0952325572722     
0.0952325572722     
0.0388205359478     
0.0388205359478     
0.0157016135039     
0.0157016135039     
0.0063303066902     
0.0063303066902     
0.00255006531528    
0.00255006531528    
0.00102576258565    
0.00102576258565    
0.000412598875746   
0.000412598875746   
0.000903332200354   
0.000903332200354   
0.00224577532322    
0.00224577532322    
0.00558304020614    
0.00558304020614    
0.0138593927602     
0.0138593927602     
0.0343766643812     
0.0343766643812     
0.0849925732184     
0.0849925732184     
0.208499442347      
0.208499442347      
0.501804107359      
0.501804107359      
1.15420872148       
1.15420872148       
2.39897030766       
2.39897030766       
4.08145595517       
4.08145595517       
5.04179966536       
5.04179966536       
4.246980468         
4.246980468         
2.57002493435       
2.57002493435       
1.25665498219       
1.25665498219       
0.54479664109       
0.54479664109       
0.54479664109       
0.54479664109       
1.25665498219       
1.25665498219       
2.57002493435       
2.57002493435       
4.246980468         
4.246980468         
5.04179966536       
5.04179966536       
4.08145595517       
4.08145595517       
2.39897030766       
2.39897030766       
1.15420872148       
1.15420872148       
0.501804107359      
0.501804107359      
0.208499442347      
0.208499442347      
0.0849925732184     
0.0849925732184     
0.0343766643812     
0.0343766643812     
0.0138593927602     
0.0138593927602     
0.00558304020614    
0.00558304020614    
0.00224577532322    
0.00224577532322    
0.000903332200354   
0.000903332200354   
0.00182473470062    
0.00182473470062    
0.00453647524185    
0.00453647524185    
0.0112777638117     
0.0112777638117     
0.0279960294664     
0.0279960294664     
0.0694410011769     
0.0694410011769     
0.171685341877      
0.171685341877      
0.421169717366      
0.421169717366      
1.01364632773       
1.01364632773       
2.33150628862       
2.33150628862       
4.84592973043       
4.84592973043       
8.24455754764       
8.24455754764       
10.1844557289       
10.1844557289       
8.57891773344       
8.57891773344       
5.19146076862       
5.19146076862       
2.53844814987       
2.53844814987       
1.10049141987       
1.10049141987       
1.10049141987       
1.10049141987       
2.53844814987       
2.53844814987       
5.19146076862       
5.19146076862       
8.57891773344       
8.57891773344       
10.1844557289       
10.1844557289       
8.24455754764       
8.24455754764       
4.84592973043       
4.84592973043       
2.33150628862       
2.33150628862       
1.01364632773       
1.01364632773       
0.421169717366      
0.421169717366      
0.171685341877      
0.171685341877      
0.0694410011769     
0.0694410011769     
0.0279960294664     
0.0279960294664     
0.0112777638117     
0.0112777638117     
0.00453647524185    
0.00453647524185    
0.00182473470062    
0.00182473470062    
0.00315210546629    
0.00315210546629    
0.0078364533774     
0.0078364533774     
0.019481572278      
0.019481572278      
0.0483612425879     
0.0483612425879     
0.119954620976      
0.119954620976      
0.296574786696      
0.296574786696      
0.727542128668      
0.727542128668      
1.75100529926       
1.75100529926       
4.0275190221        
4.0275190221        
8.37101502336       
8.37101502336       
14.2419141282       
14.2419141282       
17.5929566984       
17.5929566984       
14.8194986774       
14.8194986774       
8.96789646255       
8.96789646255       
4.3849970554        
4.3849970554        
1.90102430725       
1.90102430725       
1.90102430725       
1.90102430725       
4.3849970554        
4.3849970554        
8.96789646255       
8.96789646255       
14.8194986774       
14.8194986774       
17.5929566984       
17.5929566984       
14.2419141282       
14.2419141282       
8.37101502336       
8.37101502336       
4.0275190221        
4.0275190221        
1.75100529926       
1.75100529926       
0.727542128668      
0.727542128668      
0.296574786696      
0.296574786696      
0.119954620976      
0.119954620976      
0.0483612425879     
0.0483612425879     
0.019481572278      
0.019481572278      
0.0078364533774     
0.0078364533774     
0.00315210546629    
0.00315210546629    
0.00421257085322    
0.00421257085322    
0.0104728777141     
0.0104728777141     
0.0260357733684     
0.0260357733684     
0.0646314544771     
0.0646314544771     
0.160311050958      
0.160311050958      
0.396351681629      
0.396351681629      
0.972309714411      
0.972309714411      
2.3400974258        
2.3400974258        
5.3825004984        
5.3825004984        
11.1872823662       
11.1872823662       
19.0333327969       
19.0333327969       
23.5117693245       
23.5117693245       
19.8052345822       
19.8052345822       
11.9849731099       
11.9849731099       
5.86024515506       
5.86024515506       
2.54058744977       
2.54058744977       
2.54058744977       
2.54058744977       
5.86024515506       
5.86024515506       
11.9849731099       
11.9849731099       
19.8052345822       
19.8052345822       
23.5117693245       
23.5117693245       
19.0333327969       
19.0333327969       
11.1872823662       
11.1872823662       
5.3825004984        
5.3825004984        
2.3400974258        
2.3400974258        
0.972309714411      
0.972309714411      
0.396351681629      
0.396351681629      
0.160311050958      
0.160311050958      
0.0646314544771     
0.0646314544771     
0.0260357733684     
0.0260357733684     
0.0104728777141     
0.0104728777141     
0.00421257085322    
0.00421257085322    
0.00404730700962    
0.00404730700962    
0.0100620150639     
0.0100620150639     
0.0250143609986     
0.0250143609986     
0.0620958905764     
0.0620958905764     
0.154021869986      
0.154021869986      
0.380802363978      
0.380802363978      
0.934164922032      
0.934164922032      
2.24829279901       
2.24829279901       
5.17133901257       
5.17133901257       
10.7483928263       
10.7483928263       
18.2866339652       
18.2866339652       
22.5893764428       
22.5893764428       
19.0282531843       
19.0282531843       
11.5147892742       
11.5147892742       
5.63034121456       
5.63034121456       
2.44091737617       
2.44091737617       
2.44091737617       
2.44091737617       
5.63034121456       
5.63034121456       
11.5147892742       
11.5147892742       
19.0282531843       
19.0282531843       
22.5893764428       
22.5893764428       
18.2866339652       
18.2866339652       
10.7483928263       
10.7483928263       
5.17133901257       
5.17133901257       
2.24829279901       
2.24829279901       
0.934164922032      
0.934164922032      
0.380802363978      
0.380802363978      
0.154021869986      
0.154021869986      
0.0620958905764     
0.0620958905764     
0.0250143609986     
0.0250143609986     
0.0100620150639     
0.0100620150639     
0.00404730700962    
0.00404730700962    
0.00282665751965    
0.00282665751965    
0.00702735682659    
0.00702735682659    
0.01747014285       
0.01747014285       
0.0433680508102     
0.0433680508102     
0.10756957057       
0.10756957057       
0.265954093199      
0.265954093199      
0.652425006352      
0.652425006352      
1.57021785884       
1.57021785884       
3.611686554         
3.611686554         
7.50672616001       
7.50672616001       
12.7714678634       
12.7714678634       
15.7765226692       
15.7765226692       
13.2894180801       
13.2894180801       
8.04198090529       
8.04198090529       
3.93225576773       
3.93225576773       
1.70474773468       
1.70474773468       
1.70474773468       
1.70474773468       
3.93225576773       
3.93225576773       
8.04198090529       
8.04198090529       
13.2894180801       
13.2894180801       
15.7765226692       
15.7765226692       
12.7714678634       
12.7714678634       
7.50672616001       
7.50672616001       
3.611686554         
3.611686554         
1.57021785884       
1.57021785884       
0.652425006352      
0.652425006352      
0.265954093199      
0.265954093199      
0.10756957057       
0.10756957057       
0.0433680508102     
0.0433680508102     
0.01747014285       
0.01747014285       
0.00702735682659    
0.00702735682659    
0.00282665751965    
0.00282665751965    
0.00156385203079    
0.00156385203079    
0.00388789450719    
0.00388789450719    
0.00966537975835    
0.00966537975835    
0.0239934317686     
0.0239934317686     
0.0595130079315     
0.0595130079315     
0.147139455648      
0.147139455648      
0.360955002164      
0.360955002164      
0.868725118008      
0.868725118008      
1.99817038774       
1.99817038774       
4.15310622823       
4.15310622823       
7.06583157512       
7.06583157512       
8.72838214162       
8.72838214162       
7.35238822109       
7.35238822109       
4.44923662767       
4.44923662767       
2.17552573144       
2.17552573144       
0.943153950677      
0.943153950677      
0.943153950677      
0.943153950677      
2.17552573144       
2.17552573144       
4.44923662767       
4.44923662767       
7.35238822109       
7.35238822109       
8.72838214162       
8.72838214162       
7.06583157512       
7.06583157512       
4.15310622823       
4.15310622823       
1.99817038774       
1.99817038774       
0.868725118008      
0.868725118008      
0.360955002164      
0.360955002164      
0.147139455648      
0.147139455648      
0.0595130079315     
0.0595130079315     
0.0239934317686     
0.0239934317686     
0.00966537975835    
0.00966537975835    
0.00388789450719    
0.00388789450719    
0.00156385203079    
0.00156385203079    
0.000755534755876   
0.000755534755876   
0.00187833591       
0.00187833591       
0.00466957882995    
0.00466957882995    
0.0115918074453     
0.0115918074453     
0.0287521741403     
0.0287521741403     
0.0710866312887     
0.0710866312887     
0.174386095406      
0.174386095406      
0.419702124647      
0.419702124647      
0.965364463117      
0.965364463117      
2.00646610964       
2.00646610964       
3.41367420258       
3.41367420258       
4.21689260922       
4.21689260922       
3.55211665192       
3.55211665192       
2.14953387094       
2.14953387094       
1.05104912104       
1.05104912104       
0.455660494629      
0.455660494629      
0.455660494629      
0.455660494629      
1.05104912104       
1.05104912104       
2.14953387094       
2.14953387094       
3.55211665192       
3.55211665192       
4.21689260922       
4.21689260922       
3.41367420258       
3.41367420258       
2.00646610964       
2.00646610964       
0.965364463117      
0.965364463117      
0.419702124647      
0.419702124647      
0.174386095406      
0.174386095406      
0.0710866312887     
0.0710866312887     
0.0287521741403     
0.0287521741403     
0.0115918074453     
0.0115918074453     
0.00466957882995    
0.00466957882995    
0.00187833591       
0.00187833591       
0.000755534755876   
0.000755534755876   
0.000341096518949   
0.000341096518949   
0.000848000486191   
0.000848000486191   
0.00210814535198    
0.00210814535198    
0.00523328031857    
0.00523328031857    
0.0129805630187     
0.0129805630187     
0.0320930338252     
0.0320930338252     
0.0787289924565     
0.0787289924565     
0.189480275526      
0.189480275526      
0.435827015667      
0.435827015667      
0.90584662064       
0.90584662064       
1.54114999776       
1.54114999776       
1.90377395428       
1.90377395428       
1.60365173865       
1.60365173865       
0.970436521997      
0.970436521997      
0.47451052866       
0.47451052866       
0.205714174407      
0.205714174407      
0.205714174407      
0.205714174407      
0.47451052866       
0.47451052866       
0.970436521997      
0.970436521997      
1.60365173865       
1.60365173865       
1.90377395428       
1.90377395428       
1.54114999776       
1.54114999776       
0.90584662064       
0.90584662064       
0.435827015667      
0.435827015667      
0.189480275526      
0.189480275526      
0.0787289924565     
0.0787289924565     
0.0320930338252     
0.0320930338252     
0.0129805630187     
0.0129805630187     
0.00523328031857    
0.00523328031857    
0.00210814535198    
0.00210814535198    
0.000848000486191   
0.000848000486191   
0.000341096518949   
0.000341096518949   
0.00014926756036    
0.00014926756036    
0.000371094270173   
0.000371094270173   
0.000922547420136   
0.000922547420136   
0.00229014059786    
0.00229014059786    
0.00568043608264    
0.00568043608264    
0.0140442619538     
0.0140442619538     
0.0344526665643     
0.0344526665643     
0.0829186370803     
0.0829186370803     
0.190722659874      
0.190722659874      
0.3964083701        
0.3964083701        
0.674424063381      
0.674424063381      
0.833112265429      
0.833112265429      
0.701775507511      
0.701775507511      
0.424673616046      
0.424673616046      
0.207650987458      
0.207650987458      
0.0900227684522     
0.0900227684522     
0.0900227684522     
0.0900227684522     
0.207650987458      
0.207650987458      
0.424673616046      
0.424673616046      
0.701775507511      
0.701775507511      
0.833112265429      
0.833112265429      
0.674424063381      
0.674424063381      
0.3964083701        
0.3964083701        
0.190722659874      
0.190722659874      
0.0829186370803     
0.0829186370803     
0.0344526665643     
0.0344526665643     
0.0140442619538     
0.0140442619538     
0.00568043608264    
0.00568043608264    
0.00229014059786    
0.00229014059786    
0.000922547420136   
0.000922547420136   
0.000371094270173   
0.000371094270173   
0.00014926756036    
0.00014926756036    
6.44292546624e-05   
6.44292546624e-05   
0.00016017765132    
0.00016017765132    
0.000398204690468   
0.000398204690468   
0.000988507157457   
0.000988507157457   
0.00245188078427    
0.00245188078427    
0.00606200923885    
0.00606200923885    
0.0148710116419     
0.0148710116419     
0.035790669934      
0.035790669934      
0.0823227685456     
0.0823227685456     
0.171104128491      
0.171104128491      
0.291105713962      
0.291105713962      
0.359601256845      
0.359601256845      
0.302911582263      
0.302911582263      
0.183304426565      
0.183304426565      
0.0896296443751     
0.0896296443751     
0.038857068877      
0.038857068877      
0.038857068877      
0.038857068877      
0.0896296443751     
0.0896296443751     
0.183304426565      
0.183304426565      
0.302911582263      
0.302911582263      
0.359601256845      
0.359601256845      
0.291105713962      
0.291105713962      
0.171104128491      
0.171104128491      
0.0823227685456     
0.0823227685456     
0.035790669934      
0.035790669934      
0.0148710116419     
0.0148710116419     
0.00606200923885    
0.00606200923885    
0.00245188078427    
0.00245188078427    
0.000988507157457   
0.000988507157457   
0.000398204690468   
0.000398204690468   
0.00016017765132    
0.00016017765132    
6.44292546624e-05   
6.44292546624e-05   
2.76430188653e-05   
2.76430188653e-05   
6.8723344084e-05    
6.8723344084e-05    
0.000170847541673   
0.000170847541673   
0.000424113582336   
0.000424113582336   
0.00105196602274    
0.00105196602274    
0.00260087186526    
0.00260087186526    
0.00638032610367    
0.00638032610367    
0.0153557909272     
0.0153557909272     
0.0353201330029     
0.0353201330029     
0.0734112892755     
0.0734112892755     
0.124897312332      
0.124897312332      
0.154284949889      
0.154284949889      
0.129962555471      
0.129962555471      
0.0786457603491     
0.0786457603491     
0.0384551080614     
0.0384551080614     
0.0166714126005     
0.0166714126005     
0.0166714126005     
0.0166714126005     
0.0384551080614     
0.0384551080614     
0.0786457603491     
0.0786457603491     
0.129962555471      
0.129962555471      
0.154284949889      
0.154284949889      
0.124897312332      
0.124897312332      
0.0734112892755     
0.0734112892755     
0.0353201330029     
0.0353201330029     
0.0153557909272     
0.0153557909272     
0.00638032610367    
0.00638032610367    
0.00260087186526    
0.00260087186526    
0.00105196602274    
0.00105196602274    
0.000424113582336   
0.000424113582336   
0.000170847541673   
0.000170847541673   
6.8723344084e-05    
6.8723344084e-05    
2.76430188653e-05   
2.76430188653e-05   
1.18300741113e-05   
1.18300741113e-05   
2.94107621766e-05   
2.94107621766e-05   
7.31157146609e-05   
7.31157146609e-05   
0.000181503154019   
0.000181503154019   
0.000450198152098   
0.000450198152098   
0.00111306608985    
0.00111306608985    
0.00273051691744    
0.00273051691744    
0.00657164637449    
0.00657164637449    
0.0151155629232     
0.0151155629232     
0.0314170097328     
0.0314170097328     
0.0534509081076     
0.0534509081076     
0.0660276071995     
0.0660276071995     
0.0556186236537     
0.0556186236537     
0.0336571478681     
0.0336571478681     
0.0164572031926     
0.0164572031926     
0.00713467829129    
0.00713467829129    
0.00713467829129    
0.00713467829129    
0.0164572031926     
0.0164572031926     
0.0336571478681     
0.0336571478681     
0.0556186236537     
0.0556186236537     
0.0660276071995     
0.0660276071995     
0.0534509081076     
0.0534509081076     
0.0314170097328     
0.0314170097328     
0.0151155629232     
0.0151155629232     
0.00657164637449    
0.00657164637449    
0.00273051691744    
0.00273051691744    
0.00111306608985    
0.00111306608985    
0.000450198152098   
0.000450198152098   
0.000181503154019   
0.000181503154019   
7.31157146609e-05   
7.31157146609e-05   
2.94107621766e-05   
2.94107621766e-05   
1.18300741113e-05   
1.18300741113e-05   
5.05761351452e-06   
5.05761351452e-06   
1.25737393407e-05   
1.25737393407e-05   
3.12585553661e-05   
3.12585553661e-05   
7.75965387922e-05   
7.75965387922e-05   
0.000192469483863   
0.000192469483863   
0.000475859918173   
0.000475859918173   
0.00116735526196    
0.00116735526196    
0.00280952149611    
0.00280952149611    
0.00646223130985    
0.00646223130985    
0.0134314537268     
0.0134314537268     
0.0228514236399     
0.0228514236399     
0.0282282355429     
0.0282282355429     
0.0237781690971     
0.0237781690971     
0.0143891614132     
0.0143891614132     
0.00703581165216    
0.00703581165216    
0.00305022986401    
0.00305022986401    
0.00305022986401    
0.00305022986401    
0.00703581165216    
0.00703581165216    
0.0143891614132     
0.0143891614132     
0.0237781690971     
0.0237781690971     
0.0282282355429     
0.0282282355429     
0.0228514236399     
0.0228514236399     
0.0134314537268     
0.0134314537268     
0.00646223130985    
0.00646223130985    
0.00280952149611    
0.00280952149611    
0.00116735526196    
0.00116735526196    
0.000475859918173   