# vtk DataFile Version 3.0
PyPan mesh file. Generated by PyPan, USU AeroLab (c) 2020.
ASCII
DATASET POLYDATA
POINTS 685 float
0.0                 0.0                 0.0                 
0.310944736004      0.0                 -0.368799388409     
0.310944736004      0.0                 0.368799388409      
0.959763109684      0.959763109684      0.0                 
1.27070784569       0.959763109684      -0.368799388409     
1.27070784569       0.959763109684      0.368799388409      
1.2967416048        0.0                 -0.718345582485     
1.2967416048        0.0                 0.718345582485      
2.25650477409       0.959763109684      -0.718345582485     
2.25650477409       0.959763109684      0.718345582485      
2.93638896942       2.93638896942       0.0                 
3.24733376503       2.93638896942       -0.368799388409     
3.24733376503       2.93638896942       0.368799388409      
3.32168078423       0.0                 -1.04886639118      
3.32168078423       0.0                 1.04886639118       
4.23313093185       2.93638896942       -0.718345582485     
4.23313093185       2.93638896942       0.718345582485      
4.28144407272       0.959763109684      -1.04886639118      
4.28144407272       0.959763109684      1.04886639118       
6.25806999207       2.93638896942       -1.04886639118      
6.25806999207       2.93638896942       1.04886639118       
6.70735931396       0.0                 -1.19628477097      
6.70735931396       0.0                 1.19628477097       
6.745241642         6.745241642         0.0                 
7.05618667603       6.745241642         -0.368799388409     
7.05618667603       6.745241642         0.368799388409      
7.66712236404       0.959763109684      -1.19628477097      
7.66712236404       0.959763109684      1.19628477097       
8.04198360443       6.745241642         -0.718345582485     
8.04198360443       6.745241642         0.718345582485      
9.64374828339       2.93638896942       -1.19628477097      
9.64374828339       2.93638896942       1.19628477097       
10.0669231415       6.745241642         -1.04886639118      
10.0669231415       6.745241642         1.04886639118       
10.9735889435       0.0                 -0.943109273911     
10.9735889435       0.0                 0.943109273911      
11.9333515167       0.959763109684      -0.943109273911     
11.9333515167       0.959763109684      0.943109273911      
13.2257289886       13.2257289886       0.0                 
13.4526004791       6.745241642         -1.19628477097      
13.4526004791       6.745241642         1.19628477097       
13.5366735458       13.2257289886       -0.368799388409     
13.5366735458       13.2257289886       0.368799388409      
13.9099779129       2.93638896942       -0.943109273911     
13.9099779129       2.93638896942       0.943109273911      
14.5224704742       13.2257289886       -0.718345582485     
14.5224704742       13.2257289886       0.718345582485      
14.8274240494       0.0                 -0.556277513504     
14.8274240494       0.0                 0.556277513504      
15.7871875763       0.959763109684      -0.556277513504     
15.7871875763       0.959763109684      0.556277513504      
16.547410965        13.2257289886       -1.04886639118      
16.547410965        13.2257289886       1.04886639118       
17.4040641785       0.0                 -0.278276473284     
17.4040641785       0.0                 0.278276473284      
17.7188301086       6.745241642         -0.943109273911     
17.7188301086       6.745241642         0.943109273911      
17.7638130188       2.93638896942       -0.556277513504     
17.7638130188       2.93638896942       0.556277513504      
18.3638267517       0.959763109684      -0.278276473284     
18.3638267517       0.959763109684      0.278276473284      
18.7977371216       0.0                 -0.128402337432     
18.7977371216       0.0                 0.128402337432      
19.4658946991       0.0                 -0.0569535270333    
19.4658946991       0.0                 0.0569535270333     
19.7574996948       0.959763109684      -0.128402337432     
19.7574996948       0.959763109684      0.128402337432      
19.767660141        0.0                 -0.0247576590627    
19.767660141        0.0                 0.0247576590627     
19.9002666473       0.0                 -0.0106241796166    
19.9002666473       0.0                 0.0106241796166     
19.9330883026       13.2257289886       -1.19628477097      
19.9330883026       13.2257289886       1.19628477097       
19.9578342438       0.0                 -0.00449111964554   
19.9578342438       0.0                 0.00449111964554    
19.9826946259       0.0                 -0.00184311019257   
19.9826946259       0.0                 0.00184311019257    
19.9934062958       0.0                 -0.000702290737536  
19.9934062958       0.0                 0.000702290737536   
19.9980163574       0.0                 -0.000211262027733  
19.9980163574       0.0                 0.000211262027733   
20.0                0.0                 0.0                 
20.3404541016       2.93638896942       -0.278276473284     
20.3404541016       2.93638896942       0.278276473284      
20.4256572723       0.959763109684      -0.0569535270333    
20.4256572723       0.959763109684      0.0569535270333     
20.7274227142       0.959763109684      -0.0247576590627    
20.7274227142       0.959763109684      0.0247576590627     
20.8600292206       0.959763109684      -0.0106241796166    
20.8600292206       0.959763109684      0.0106241796166     
20.917596817        0.959763109684      -0.00449111964554   
20.917596817        0.959763109684      0.00449111964554    
20.9424571991       0.959763109684      -0.00184311019257   
20.9424571991       0.959763109684      0.00184311019257    
20.953168869        0.959763109684      -0.000702290737536  
20.953168869        0.959763109684      0.000702290737536   
20.9577789307       0.959763109684      -0.000211262027733  
20.9577789307       0.959763109684      0.000211262027733   
20.9597625732       0.959763109684      0.0                 
21.5726661682       6.745241642         -0.556277513504     
21.5726661682       6.745241642         0.556277513504      
21.7341270447       2.93638896942       -0.128402337432     
21.7341270447       2.93638896942       0.128402337432      
22.2227993011       22.2227993011       0.0                 
22.4022846222       2.93638896942       -0.0569535270333    
22.4022846222       2.93638896942       0.0569535270333     
22.5337429047       22.2227993011       -0.368799388409     
22.5337429047       22.2227993011       0.368799388409      
22.7040500641       2.93638896942       -0.0247576590627    
22.7040500641       2.93638896942       0.0247576590627     
22.8366546631       2.93638896942       -0.0106241796166    
22.8366546631       2.93638896942       0.0106241796166     
22.8942222595       2.93638896942       -0.00449111964554   
22.8942222595       2.93638896942       0.00449111964554    
22.9190826416       2.93638896942       -0.00184311019257   
22.9190826416       2.93638896942       0.00184311019257    
22.9297943115       2.93638896942       -0.000702290737536  
22.9297943115       2.93638896942       0.000702290737536   
22.9344062805       2.93638896942       -0.000211262027733  
22.9344062805       2.93638896942       0.000211262027733   
22.9363899231       2.93638896942       0.0                 
23.5195407867       22.2227993011       -0.718345582485     
23.5195407867       22.2227993011       0.718345582485      
24.1493053436       6.745241642         -0.278276473284     
24.1493053436       6.745241642         0.278276473284      
24.1993179321       13.2257289886       -0.943109273911     
24.1993179321       13.2257289886       0.943109273911      
25.5429782867       6.745241642         -0.128402337432     
25.5429782867       6.745241642         0.128402337432      
25.5444793701       22.2227993011       -1.04886639118      
25.5444793701       22.2227993011       1.04886639118       
26.2111358643       6.745241642         -0.0569535270333    
26.2111358643       6.745241642         0.0569535270333     
26.5129032135       6.745241642         -0.0247576590627    
26.5129032135       6.745241642         0.0247576590627     
26.6455078125       6.745241642         -0.0106241796166    
26.6455078125       6.745241642         0.0106241796166     
26.7030754089       6.745241642         -0.00449111964554   
26.7030754089       6.745241642         0.00449111964554    
26.727935791        6.745241642         -0.00184311019257   
26.727935791        6.745241642         0.00184311019257    
26.7386474609       6.745241642         -0.000702290737536  
26.7386474609       6.745241642         0.000702290737536   
26.7432575226       6.745241642         -0.000211262027733  
26.7432575226       6.745241642         0.000211262027733   
26.7452411652       6.745241642         0.0                 
28.0531539917       13.2257289886       -0.556277513504     
28.0531539917       13.2257289886       0.556277513504      
28.9301586151       22.2227993011       -1.19628477097      
28.9301586151       22.2227993011       1.19628477097       
30.6297931671       13.2257289886       -0.278276473284     
30.6297931671       13.2257289886       0.278276473284      
31.735376358        31.735376358        0.0                 
32.0234680176       13.2257289886       -0.128402337432     
32.0234680176       13.2257289886       0.128402337432      
32.0463218689       31.735376358        -0.368799388409     
32.0463218689       31.735376358        0.368799388409      
32.6916236877       13.2257289886       -0.0569535270333    
32.6916236877       13.2257289886       0.0569535270333     
32.9933891296       13.2257289886       -0.0247576590627    
32.9933891296       13.2257289886       0.0247576590627     
[...]
CELL_DATA 1336
SCALARS panel_area float 1
LOOKUP_TABLE default
0.000962650187677   
0.000962650187677   
0.00223724087587    
0.00223724087587    
0.00519831146884    
0.00519831146884    
0.012064631703      
0.012064631703      
0.0279374205897     
0.0279374205897     
0.0643542381558     
0.0643542381558     
0.146450800271      
0.146450800271      
0.324282213687      
0.324282213687      
0.676488120735      
0.676488120735      
1.25079251737       
1.25079298392       
1.86792501347       
1.86792454203       
2.05448221795       
2.05448199349       
1.62780205244       
1.627801939         
0.997284246602      
0.997284299209      
0.529211795891      
0.529211818158      
0.291392286113      
0.291392286113      
0.291392286113      
0.291392286113      
0.529211818158      
0.529211795891      
0.997284299209      
0.997284246602      
1.627801939         
1.62780205244       
2.05448199349       
2.05448221795       
1.86792454203       
1.86792501347       
1.25079298392       
1.25079251737       
0.676488120735      
0.676488120735      
0.324282213687      
0.324282213687      
0.146450800271      
0.146450800271      
0.0643542381558     
0.0643542381558     
0.0279374205897     
0.0279374205897     
0.012064631703      
0.012064631703      
0.00519831146884    
0.00519831146884    
0.00223724087587    
0.00223724087587    
0.000962650187677   
0.000962650187677   
0.00198257180689    
0.00198257180689    
0.00460944708509    
0.0046075829985     
0.0107058885805     
0.0107058885805     
0.0248470303387     
0.0248470303387     
0.0575369355708     
0.0575369355708     
0.132535269934      
0.132537135356      
0.301614471636      
0.301614471636      
0.667857112205      
0.667857112205      
1.39322288969       
1.39322288969       
2.5760009272        
2.57599903543       
3.84697841503       
3.84697936653       
4.23119226032       
4.23119272636       
3.35244746725       
3.35244746725       
2.05390050299       
2.05390027966       
1.08990830168       
1.08990849911       
0.600120517922      
0.600120541412      
0.600120541412      
0.600120517922      
1.08990849911       
1.08990830168       
2.05390027966       
2.05390050299       
3.35244746725       
3.35244746725       
4.23119272636       
4.23119226032       
3.84697936653       
3.84697841503       
2.57599903543       
2.5760009272        
1.39322288969       
1.39322288969       
0.667857112205      
0.667857112205      
0.301614471636      
0.301614471636      
0.132537135356      
0.132535269934      
0.0575369355708     
0.0575369355708     
0.0248470303387     
0.0248470303387     
0.0107058885805     
0.0107058885805     
0.0046075829985     
0.00460944708509    
0.00198257180689    
0.00198257180689    
0.00382031014794    
0.00382031014794    
0.00887856682613    
0.00888215877593    
0.0206296767207     
0.0206296767207     
0.0478789032321     
0.0478789032321     
0.110870608395      
0.110870608395      
0.255388401652      
0.255388401652      
0.581198597716      
0.581195002727      
1.2869250405        
1.2869250405        
2.68466621187       
2.68466621187       
4.96381282475       
4.96381644387       
7.41292417492       
7.41292235841       
8.15328284605       
8.15328284605       
6.4599875736        
6.45998576388       
3.95775635829       
3.95775723059       
2.10019557655       
2.10019518388       
1.15640032207       
1.15640052788       
1.15640052788       
1.15640032207       
2.10019518388       
2.10019557655       
3.95775723059       
3.95775635829       
6.45998576388       
6.4599875736        
8.15328284605       
8.15328284605       
7.41292235841       
7.41292417492       
4.96381644387       
4.96381282475       
2.68466621187       
2.68466621187       
1.2869250405        
1.2869250405        
0.581195002727      
0.581198597716      
0.255388401652      
0.255388401652      
0.110870608395      
0.110870608395      
0.0478789032321     
0.0478789032321     
0.0206296767207     
0.0206296767207     
0.00888215877593    
0.00887856682613    
0.00382031014794    
0.00382031014794    
0.00649998146592    
0.00649998146592    
0.0151123507947     
0.0151062393865     
0.0350999028762     
0.0350999028762     
0.0814624909551     
0.0814624909551     
0.188638321346      
0.188638321346      
0.434531005406      
0.434524892744      
0.988861263843      
0.988867378185      
2.1896037796        
2.1896098976        
4.56777153908       
4.56776541387       
8.44556855608       
8.44556855608       
12.6125543365       
12.6125543365       
13.872221085        
13.872221085        
10.9911985569       
10.9911985569       
6.73383769511       
6.733840681         
3.57333015961       
3.57333015961       
1.96753180797       
1.96753107017       
1.96753107017       
1.96753180797       
3.57333015961       
3.57333015961       
6.733840681         
6.73383769511       
10.9911985569       
10.9911985569       
13.872221085        
13.872221085        
12.6125543365       
12.6125543365       
8.44556855608       
8.44556855608       
4.56776541387       
4.56777153908       
2.1896098976        
2.1896037796        
0.988867378185      
0.988861263843      
0.434524892744      
0.434531005406      
0.188638321346      
0.188638321346      
0.0814624909551     
0.0814624909551     
0.0350999028762     
0.0350999028762     
0.0151062393865     
0.0151123507947     
0.00649998146592    
0.00649998146592    
0.00902413454992    
0.00902413454992    
0.0209639963909     
0.0209809656063     
0.0487303310675     
0.0487303310675     
0.113097012486      
0.113097012486      
0.261892686245      
0.261892686245      
0.603273457115      
0.603273457115      
1.37286809866       
1.37286809866       
3.03991475488       
3.03989777285       
6.3415765158        
6.34158501373       
11.7252476316       
11.725256142        
17.510417355        
17.510417355        
19.2592534765       
19.2592534765       
15.2594366645       
15.2594452225       
9.34880891317       
9.34880060287       
4.96096994157       
4.96097372372       
2.73158695346       
2.73158486337       
2.73158486337       
2.73158695346       
4.96097372372       
4.96096994157       
9.34880060287       
9.34880891317       
15.2594452225       
15.2594366645       
19.2592534765       
19.2592534765       
17.510417355        
17.510417355        
11.725256142        
11.7252476316       
6.34158501373       
6.3415765158        
3.03989777285       
3.03991475488       
1.37286809866       
1.37286809866       
0.603273457115      
0.603273457115      
0.261892686245      
0.261892686245      
0.113097012486      
0.113097012486      
0.0487303310675     
0.0487303310675     
0.0209809656063     
0.0209639963909     
0.00902413454992    
0.00902413454992    
0.00954119208605    
0.00954119208605    
0.022183115838      
0.0221651743402     
0.0515224415489     
0.0515224415489     
0.119577152207      
0.119577152207      
0.276898398258      
0.276898398258      
0.637839324119      
0.637839324119      
1.45152956727       
1.45152956727       
3.21407535363       
3.21409330786       
6.70493102043       
6.70493102043       
12.3970892617       
12.397071269        
18.5137148652       
18.5137148652       
20.3627543622       
20.3627633881       
16.1337683807       
16.1337593321       
9.88446050052       
9.8844517112        
5.24522368261       
5.24522368261       
2.88809718271       
2.88810161464       
2.88810161464       
2.88809718271       
5.24522368261       
5.24522368261       
9.8844517112        
9.88446050052       
16.1337593321       
16.1337683807       
20.3627633881       
20.3627543622       
18.5137148652       
18.5137148652       
12.397071269        
12.3970892617       
6.70493102043       
6.70493102043       
3.21409330786       
3.21407535363       
1.45152956727       
1.45152956727       
0.637839324119      
0.637839324119      
0.276898398258      
0.276898398258      
0.119577152207      
0.119577152207      
0.0515224415489     
0.0515224415489     
0.0221651743402     
0.022183115838      
0.00954119208605    
0.00954119208605    
0.00757897206124    
0.00757897206124    
0.0176067347024     
0.0176209864127     
0.0409264529451     
0.0409264529451     
0.0949851859883     
0.0949851859883     
0.219952100991      
0.219952100991      
0.50666273376       
0.50666273376       
1.15301128494       
1.15301128494       
2.55309014837       
2.5530758836        
5.32601004267       
5.32601004267       
9.84751762174       
9.84753192578       
14.7062262047       
14.7062262047       
16.1750035822       
16.1750035822       
12.8157269094       
12.8157269094       
7.85163775401       
7.85165169685       
4.16650266194       
4.16648998994       
2.29414138682       
2.29414486338       
2.29414486338       
2.29414138682       
4.16648998994       
4.16650266194       
7.85165169685       
7.85163775401       
12.8157269094       
12.8157269094       
16.1750035822       
16.1750035822       
14.7062262047       
14.7062262047       
9.84753192578       
9.84751762174       
5.32601004267       
5.32601004267       
2.5530758836        
2.55309014837       
1.15301128494       
1.15301128494       
0.50666273376       
0.50666273376       
0.219952100991      
0.219952100991      
0.0949851859883     
0.0949851859883     
0.0409264529451     
0.0409264529451     
0.0176209864127     
0.0176067347024     
0.00757897206124    
0.00757897206124    
0.00476683680748    
0.00476683680748    
0.011073854127      
0.011073854127      
0.0257409210154     
0.0257409210154     
0.0597504265384     
0.0597414623657     
0.138340100373      
0.138340100373      
0.318659388053      
0.318668354391      
0.72519288332       
0.72519288332       
1.60578029914       
1.60578029914       
3.34982376299       
3.34982376299       
6.19366016937       
6.19365115178       
9.2495540106        
9.2495630587        
10.1733588051       
10.1733588051       
8.06052299082       
8.06052299082       
4.93834020496       
4.93834020496       
2.62053707578       
2.6205449675        
1.44291479365       
1.44291057898       
1.44291057898       
1.44291479365       
2.6205449675        
2.62053707578       
4.93834020496       
4.93834020496       
8.06052299082       
8.06052299082       
10.1733588051       
10.1733588051       
9.2495630587        
9.2495540106        
6.19365115178       
6.19366016937       
3.34982376299       
3.34982376299       
1.60578029914       
1.60578029914       
0.72519288332       
0.72519288332       
0.318668354391      
0.318659388053      
0.138340100373      
0.138340100373      
0.0597414623657     
0.0597504265384     
0.0257409210154     
0.0257409210154     
0.011073854127      
0.011073854127      
0.00476683680748    
0.00476683680748    
0.00257264562533    
0.00257264562533    
0.00598619680946    
0.0059765212416     
0.0138922871355     
0.0138922871355     
0.0322374258061     
0.0322471021463     
0.0746665203208     
0.0746616814684     
0.171984225062      
0.171979384652      
0.391384121691      
0.391384121691      
0.866624467211      
0.866634170459      
1.80789333798       
1.80788847099       
3.34269728968       
3.34269728968       
4.99195766663       
4.99195274965       
5.49052705476       
5.49052220824       
4.35023679343       
4.35023679343       
2.66520538215       
2.66520538215       
1.41429930399       
1.41429930399       
0.778733923031      
0.778733923031      
0.778733923031      
0.778733923031      
1.41429930399       
1.41429930399       
2.66520538215       
2.66520538215       
4.35023679343       
4.35023679343       
5.49052220824       
5.49052705476       
4.99195274965       
4.99195766663       
3.34269728968       
3.34269728968       
1.80788847099       
1.80789333798       
0.866634170459      
0.866624467211      
0.391384121691      
0.391384121691      
0.171979384652      
0.171984225062      
0.0746616814684     
0.0746665203208     
0.0322471021463     
0.0322374258061     
0.0138922871355     
0.0138922871355     
0.0059765212416     
0.00598619680946    
0.00257264562533    
0.00257264562533    
0.00127467014116    
0.00127467014116    
0.00296119036016    
0.00296598441882    
0.00688321982354    
0.00688321982354    
0.0159774904778     
0.0159726955992     
0.0369902680438     
0.0369950643018     
0.0852131255475     
0.0852131255475     
0.193919325107      
0.193919325107      
0.429391737133      
0.42938691492       
0.895753111618      
0.89575796519       
1.6562082013        
1.6562082013        
2.47336820367       
2.47336820367       
2.7203922185        
2.7203946054        
2.15541432097       
2.15541432097       
1.32053084046       
1.32052857888       
0.700743899244      
0.700743899244      
0.385840171053      
0.38584098508       
0.38584098508       
0.385840171053      
0.700743899244      
0.700743899244      
1.32052857888       
1.32053084046       
2.15541432097       
2.15541432097       
2.7203946054        
2.7203922185        
2.47336820367       
2.47336820367       
1.6562082013        
1.6562082013        
0.89575796519       
0.895753111618      
0.42938691492       
0.429391737133      
0.193919325107      
0.193919325107      
0.0852131255475     
0.0852131255475     
0.0369950643018     
0.0369902680438     
0.0159726955992     
0.0159774904778     
0.00688321982354    
0.00688321982354    
0.00296598441882    
0.00296119036016    
0.00127467014116    
0.00127467014116    
0.000604818366181   
0.000604818366181   
0.00140505551814    
0.00140505551814    
0.00326601946348    
0.00326601946348    
0.00758116059287    
0.00758116059287    
0.0175515160833     
0.0175515160833     
0.0404327819979     
0.0404327819979     
0.0920127943476     
0.0920127943476     
0.203742115829      
0.203742115829      
0.425028260323      
0.425025925409      
0.785853096431      
0.785854289966      
1.17358858578       
1.17358858578       
1.29080024416       
1.2907991266        
1.02272272846       
1.0227238642        
0.626577572308      
0.626577572308      
0.332495722056      
0.332495722056      
0.183077295307      
0.183077133573      
0.183077133573      
0.183077295307      
0.332495722056      
0.332495722056      
0.626577572308      
0.626577572308      
1.0227238642        
1.02272272846       
1.2907991266        
1.29080024416       
1.17358858578       
1.17358858578       
0.785854289966      
0.785853096431      
0.425025925409      
0.425028260323      
0.203742115829      
0.203742115829      
0.0920127943476     
0.0920127943476     
0.0404327819979     
0.0404327819979     
0.0175515160833     
0.0175515160833     
0.00758116059287    
0.00758116059287    
0.00326601946348    
0.00326601946348    
0.00140505551814    
0.00140505551814    
0.000604818366181   
0.000604818366181   
0.000281078272305   
0.000281078272305   
0.000652973850689   
0.000652973850689   
0.00151782280341    
0.00151782280341    
0.00352320571045    
0.00352320571045    
0.00815674604623    
0.00815674604623    
0.0187903958344     
0.0187903958344     
0.042761263069      
0.042761263069      
0.0946854214675     
0.0946854214675     
0.19752410934       
0.19752410934       
0.365210904255      
0.365210904255      
0.545403861956      
0.545403861956      
0.599875282707      
0.599875282707      
0.475292213836      
0.47529169256       
0.291190612192      
0.291191032738      
0.154521402999      
0.154521402999      
0.0850817489692     
0.0850817489692     
0.0850817489692     
0.0850817489692     
0.154521402999      
0.154521402999      
0.291191032738      
0.291190612192      
0.47529169256       
0.475292213836      
0.599875282707      
0.599875282707      
0.545403861956      
0.545403861956      
0.365210904255      
0.365210904255      
0.19752410934       
0.19752410934       
0.0946854214675     
0.0946854214675     
0.042761263069      
0.042761263069      
0.0187903958344     
0.0187903958344     
0.00815674604623    
0.00815674604623    
0.00352320571045    
0.00352320571045    
0.00151782280341    
0.00151782280341    
0.000652973850689   
0.000652973850689   
0.000281078272305   
0.000281078272305   
0.000129366670489   
0.000129366670489   
0.000300532133842   
0.000300532133842   
0.000698580081838   
0.000698580081838   
0.00162107386167    
0.00162156145151    
0.00375464283712    
0.00375415384871    
0.008648306129      
0.008648306129      
0.019680931498      
0.019680931498      
0.0435790984012     
0.0435790984012     
0.0909102623774     
0.0909108095829     
0.16808918766       
0.168088887912      
0.251022977548      
0.251022977548      
0.276093533849      
0.276093533849      
0.21875373668       
0.218753970003      
0.134021026415      
0.134020886973      
0.0711187165719     
0.0711187165719     
0.039159007574      
0.039159007574      
0.039159007574      
0.039159007574      
0.0711187165719     
0.0711187165719     
0.134020886973      
0.134021026415      
0.218753970003      
0.21875373668       
0.276093533849      
0.276093533849      
0.251022977548      
0.251022977548      
0.168088887912      
0.16808918766       
0.0909108095829     
0.0909102623774     
0.0435790984012     
0.0435790984012     
0.019680931498      
0.019680931498      
0.008648306129      
0.008648306129      
0.00375415384871    
0.00375464283712    
0.00162156145151    
0.00162107386167    
0.000698580081838   
0.000698580081838   
0.000300532133842   
0.000300532133842   
0.000129366670489   
0.000129366670489   
5.9271278128e-05    
5.9271278128e-05    
0.000137693299538   
0.000137693299538   
0.000320064929931   
0.000320064929931   
0.0007429421842     
0.000742718211363   
0.00172001936333    
0.00172024473591    
0.00396235101944    
0.00396235101944    
0.00901711363886    
0.00901711363886    
0.0199664169569     
0.0199664169569     
0.0416518994676     
0.0416518994676     
0.0770125297147     
0.0770125297147     
0.115009890995      
0.115009890995      
0.126496285186      
0.126496368945      
0.100225309473      
0.100225209195      
0.0614037132948     
0.0614037228519     
0.0325840714092     
0.0325841819835     
0.0179416944742     
0.0179413249482     
0.0179413249482     
0.0179416944742     
0.0325841819835     
0.0325840714092     
0.0614037228519     
0.0614037132948     
0.100225209195      
0.100225309473      
0.126496368945      
0.126496285186      
0.115009890995      
0.115009890995      
0.0770125297147     
0.0770125297147     
0.0416518994676     
0.0416518994676     
0.0199664169569     
0.0199664169569     
0.00901711363886    
0.00901711363886    
0.00396235101944    
0.00396235101944    
0.00172024473591    
0.00172001936333    
0.000742718211363   
0.0007429421842     
0.000320064929931   
0.000320064929931   
0.000137693299538   
0.000137693299538   
5.9271278128e-05    
5.9271278128e-05    
2.71046048435e-05   
2.71046048435e-05   
6.2966795871e-05    
6.2966795871e-05    
0.000146364878976   
0.000146364878976   
0.000339745572579   
0.000339745572579   
0.000786561609968   
0.000786561609968   
0.00181197304853    
0.00181197304853    
0.00412350313877    
0.00412350313877    
0.00913059167564    
0.00913059167564    
0.0190473075027     
0.0190473075027     
0.0352176844081     
0.0352175769038     
0.052593661647      
0.052593661647      
0.0578464808773     
0.0578464580694     
0.045832760659      
0.045832760659      
0.0280797865007     
0.0280797865007     
0.0149005776336     
0.0149004124002     
0.00820410095868    
0.00820450177913    
0.00820450177913    
0.00820410095868    
0.0149004124002     
0.0149005776336     
0.0280797865007     
0.0280797865007     
0.045832760659      
0.045832760659      
0.0578464580694     
0.0578464808773     
0.052593661647      
0.052593661647      
0.0352175769038     
0.0352176844081     
0.0190473075027     
0.0190473075027     
0.00913059167564    
0.00913059167564    
0.00412350313877    
0.00412350313877    
0.00181197304853    