# vtk DataFile Version 3.0
PyPan mesh file. Generated by PyPan, USU AeroLab (c) 2020.
ASCII
DATASET POLYDATA
POINTS 685 float
0.0                 0.0                 0.0                 
0.0871252864599     0.995846629143      0.0                 
0.277874916792      3.17612481117       0.0                 
0.327008455992      0.0                 -0.377908974886     
0.327008455992      0.0                 0.377908974886      
0.414133757353      0.995846629143      -0.377908974886     
0.414133757353      0.995846629143      0.377908974886      
0.604883372784      3.17612481117       -0.377908974886     
0.604883372784      3.17612481117       0.377908974886      
0.663189888         7.58029556274       0.0                 
0.990198373795      7.58029556274       -0.377908974886     
0.990198373795      7.58029556274       0.377908974886      
1.32879555225       15.1882019043       0.0                 
1.4189363718        0.0                 -0.747395038605     
1.4189363718        0.0                 0.747395038605      
1.50606167316       0.995846629143      -0.747395038605     
1.50606167316       0.995846629143      0.747395038605      
1.65580391884       15.1882019043       -0.377908974886     
1.65580391884       15.1882019043       0.377908974886      
1.6968113184        3.17612481117       -0.747395038605     
1.6968113184        3.17612481117       0.747395038605      
2.08212637901       7.58029556274       -0.747395038605     
2.08212637901       7.58029556274       0.747395038605      
2.21833133698       25.3556423187       0.0                 
2.54533982277       25.3556423187       -0.377908974886     
2.54533982277       25.3556423187       0.377908974886      
2.74773192406       15.1882019043       -0.747395038605     
2.74773192406       15.1882019043       0.747395038605      
3.07296943665       35.1242027283       0.0                 
3.39997792244       35.1242027283       -0.377908974886     
3.39997792244       35.1242027283       0.377908974886      
3.63726758957       25.3556423187       -0.747395038605     
3.63726758957       25.3556423187       0.747395038605      
3.66985273361       41.9466094971       0.0                 
3.75130796432       0.0                 -1.09082520008      
3.75130796432       0.0                 1.09082520008       
3.83843326569       0.995846629143      -1.09082520008      
3.83843326569       0.995846629143      1.09082520008       
3.99686121941       41.9466094971       -0.377908974886     
3.99686121941       41.9466094971       0.377908974886      
4.00007915497       45.7211151123       0.0                 
4.02918291092       3.17612481117       -1.09082520008      
4.02918291092       3.17612481117       1.09082520008       
4.1596198082        47.544670105        0.0                 
4.23164653778       48.3679389954       0.0                 
4.26316595078       48.7282104492       0.0                 
4.27677106857       48.8837165833       0.0                 
4.28260803223       48.9504356384       0.0                 
4.2851061821        48.9789886475       0.0                 
4.28617429733       48.9911956787       0.0                 
4.28663063049       48.9964141846       0.0                 
4.28682565689       48.9986419678       0.0                 
4.28690910339       48.9995918274       0.0                 
4.28694438934       49.0                0.0                 
4.32708787918       45.7211151123       -0.377908974886     
4.32708787918       45.7211151123       0.377908974886      
4.41449785233       7.58029556274       -1.09082520008      
4.41449785233       7.58029556274       1.09082520008       
4.48662805557       47.544670105        -0.377908974886     
4.48662805557       47.544670105        0.377908974886      
4.49190568924       35.1242027283       -0.747395038605     
4.49190568924       35.1242027283       0.747395038605      
4.55865478516       48.3679389954       -0.377908974886     
4.55865478516       48.3679389954       0.377908974886      
4.59017467499       48.7282104492       -0.377908974886     
4.59017467499       48.7282104492       0.377908974886      
4.60377931595       48.8837165833       -0.377908974886     
4.60377931595       48.8837165833       0.377908974886      
4.60961675644       48.9504356384       -0.377908974886     
4.60961675644       48.9504356384       0.377908974886      
4.61211490631       48.9789886475       -0.377908974886     
4.61211490631       48.9789886475       0.377908974886      
4.61318302155       48.9911956787       -0.377908974886     
4.61318302155       48.9911956787       0.377908974886      
4.61363935471       48.9964141846       -0.377908974886     
4.61363935471       48.9964141846       0.377908974886      
4.61383390427       48.9986419678       -0.377908974886     
4.61383390427       48.9986419678       0.377908974886      
4.61391735077       48.9995918274       -0.377908974886     
4.61391735077       48.9995918274       0.377908974886      
4.61395311356       49.0                -0.377908974886     
4.61395311356       49.0                0.377908974886      
4.63724279404       49.266204834        -0.267221987247     
4.63724279404       49.266204834        0.267221987247      
4.64688968658       49.3764724731       -1.18643873158e-15  
5.08010339737       15.1882019043       -1.09082520008      
5.08010339737       15.1882019043       1.09082520008       
5.08878898621       41.9466094971       -0.747395038605     
5.08878898621       41.9466094971       0.747395038605      
5.41901540756       45.7211151123       -0.747395038605     
5.41901540756       45.7211151123       0.747395038605      
5.57855606079       47.544670105        -0.747395038605     
5.57855606079       47.544670105        0.747395038605      
5.65058279037       48.3679389954       -0.747395038605     
5.65058279037       48.3679389954       0.747395038605      
5.68210268021       48.7282104492       -0.747395038605     
5.68210268021       48.7282104492       0.747395038605      
5.69570732117       48.8837165833       -0.747395038605     
5.69570732117       48.8837165833       0.747395038605      
5.70154476166       48.9504356384       -0.747395038605     
5.70154476166       48.9504356384       0.747395038605      
5.70404291153       48.9789886475       -0.747395038605     
5.70404291153       48.9789886475       0.747395038605      
5.70511054993       48.9911956787       -0.747395038605     
5.70511054993       48.9911956787       0.747395038605      
5.70556688309       48.9964141846       -0.747395038605     
5.70556688309       48.9964141846       0.747395038605      
5.70576190948       48.9986419678       -0.747395038605     
5.70576190948       48.9986419678       0.747395038605      
5.70584535599       48.9995918274       -0.747395038605     
5.70584535599       48.9995918274       0.747395038605      
5.70588064194       49.0                -0.747395038605     
5.70588064194       49.0                0.747395038605      
5.75194168091       49.5264778137       -0.528488099575     
5.75194168091       49.5264778137       0.528488099575      
5.77102041245       49.7445526123       -6.43262760529e-16  
5.9696393013        25.3556423187       -1.09082520008      
5.9696393013        25.3556423187       1.09082520008       
6.82427740097       35.1242027283       -1.09082520008      
6.82427740097       35.1242027283       1.09082520008       
7.42116069794       41.9466094971       -1.09082520008      
7.42116069794       41.9466094971       1.09082520008       
7.64637804031       0.0                 -1.16701817513      
7.64637804031       0.0                 1.16701817513       
7.73350334167       0.995846629143      -1.16701817513      
7.73350334167       0.995846629143      1.16701817513       
7.75138711929       45.7211151123       -1.09082520008      
7.75138711929       45.7211151123       1.09082520008       
7.91092777252       47.544670105        -1.09082520008      
7.91092777252       47.544670105        1.09082520008       
7.92425298691       3.17612481117       -1.16701817513      
7.92425298691       3.17612481117       1.16701817513       
7.98295450211       48.3679389954       -1.09082520008      
7.98295450211       48.3679389954       1.09082520008       
8.0144739151        48.7282104492       -1.09082520008      
8.0144739151        48.7282104492       1.09082520008       
8.0280790329        48.8837165833       -1.09082520008      
8.0280790329        48.8837165833       1.09082520008       
8.03391647339       48.9504356384       -1.09082520008      
8.03391647339       48.9504356384       1.09082520008       
8.03641414642       48.9789886475       -1.09082520008      
8.03641414642       48.9789886475       1.09082520008       
8.03748226166       48.9911956787       -1.09082520008      
8.03748226166       48.9911956787       1.09082520008       
8.03793907166       48.9964141846       -1.09082520008      
8.03793907166       48.9964141846       1.09082520008       
8.03813362122       48.9986419678       -1.09082520008      
8.03813362122       48.9986419678       1.09082520008       
8.03821659088       48.9995918274       -1.09082520008      
8.03821659088       48.9995918274       1.09082520008       
8.03825283051       49.0                -1.09082520008      
8.03825283051       49.0                1.09082520008       
8.10547828674       49.7683944702       -0.771329879761     
8.10547828674       49.7683944702       0.771329879761      
8.13332366943       50.0866737366       -1.90846224191e-16  
8.30956840515       7.58029556274       -1.16701817513      
8.30956840515       7.58029556274       1.16701817513       
8.9751739502        15.1882019043       -1.16701817513      
8.9751739502        15.1882019043       1.16701817513       
9.86470890045       25.3556423187       -1.16701817513      
9.86470890045       25.3556423187       1.16701817513       
[...]
CELL_DATA 1336
SCALARS panel_area float 1
LOOKUP_TABLE default
0.00041261660414    
0.00041261660414    
0.00102675096462    
0.00102580662755    
0.00254923035813    
0.00255017469664    
0.00633057846319    
0.00633057846319    
0.015702287666      
0.015702287666      
0.0388222035821     
0.0388222035821     
0.0952366532332     
0.0952366532332     
0.229209965442      
0.229209965442      
0.527210154086      
0.527210154086      
1.09578350203       
1.09578302888       
1.86429142455       
1.86429142455       
2.30290106662       
2.30290130392       
1.93982006939       
1.93982006939       
1.17395960738       
1.17395960738       
0.574205435127      
0.574205435127      
0.249380988453      
0.249380993111      
0.249380993111      
0.249380988453      
0.574205435127      
0.574205435127      
1.17395960738       
1.17395960738       
1.93982006939       
1.93982006939       
2.30290130392       
2.30290106662       
1.86429142455       
1.86429142455       
1.09578302888       
1.09578350203       
0.527210154086      
0.527210154086      
0.229209965442      
0.229209965442      
0.0952366532332     
0.0952366532332     
0.0388222035821     
0.0388222035821     
0.015702287666      
0.015702287666      
0.00633057846319    
0.00633057846319    
0.00255017469664    
0.00254923035813    
0.00102580662755    
0.00102675096462    
0.00041261660414    
0.00041261660414    
0.000903371013387   
0.000903371013387   
0.00224587174902    
0.00224793925135    
0.00558121218385    
0.00558121218385    
0.0138599877687     
0.0138599877687     
0.0343781403636     
0.0343781403636     
0.0849982917519     
0.0849962241946     
0.208506342225      
0.208508409874      
0.501827822529      
0.501825754663      
1.15425886011       
1.15425886011       
2.39907504878       
2.39907711807       
4.08162746276       
4.08162642715       
5.04190533804       
5.04190585694       
4.24698668508       
4.24698668508       
2.5702336521        
2.5702336521        
1.25714898817       
1.25714901878       
0.545987627398      
0.545987616978      
0.545987616978      
0.545987627398      
1.25714901878       
1.25714898817       
2.5702336521        
2.5702336521        
4.24698668508       
4.24698668508       
5.04190585694       
5.04190533804       
4.08162642715       
4.08162746276       
2.39907711807       
2.39907504878       
1.15425886011       
1.15425886011       
0.501825754663      
0.501827822529      
0.208508409874      
0.208506342225      
0.0849962241946     
0.0849982917519     
0.0343781403636     
0.0343781403636     
0.0138599877687     
0.0138599877687     
0.00558121218385    
0.00558121218385    
0.00224793925135    
0.00224587174902    
0.000903371013387   
0.000903371013387   
0.00182898948012    
0.00182481310423    
0.00453667002516    
0.00453667002516    
0.0112740711966     
0.0112740711966     
0.0279972313792     
0.0279972313792     
0.0694439826506     
0.0694439826506     
0.171696893297      
0.171696893297      
0.421183655407      
0.421183655407      
1.01369423223       
1.01369423223       
2.33160757032       
2.33160757032       
4.84614131098       
4.84614131098       
8.24490190324       
8.24490399344       
10.1846702372       
10.1846691896       
8.578930292         
8.57893134181       
5.19188237907       
5.19188211965       
2.53944610611       
2.53944623009       
1.10289719568       
1.10289723815       
1.10289723815       
1.10289719568       
2.53944623009       
2.53944610611       
5.19188211965       
5.19188237907       
8.57893134181       
8.578930292         
10.1846691896       
10.1846702372       
8.24490399344       
8.24490190324       
4.84614131098       
4.84614131098       
2.33160757032       
2.33160757032       
1.01369423223       
1.01369423223       
0.421183655407      
0.421183655407      
0.171696893297      
0.171696893297      
0.0694439826506     
0.0694439826506     
0.0279972313792     
0.0279972313792     
0.0112740711966     
0.0112740711966     
0.00453667002516    
0.00453667002516    
0.00182481310423    
0.00182898948012    
0.00315945530808    
0.00315945530808    
0.00783678985247    
0.00783678985247    
0.0194751935361     
0.0194751935361     
0.0483633188115     
0.0483633188115     
0.119959771271      
0.119959771271      
0.296594740994      
0.296594740994      
0.7275662057        
0.7275662057        
1.75108805105       
1.75108805105       
4.02769397944       
4.02769397944       
8.37138051455       
8.37138051455       
14.2425089794       
14.2425089794       
17.5933272453       
17.5933272453       
14.8195221849       
14.8195221849       
8.96862431767       
8.96862431767       
4.38672117133       
4.38672117133       
1.90518019595       
1.90517990136       
1.90517990136       
1.90518019595       
4.38672117133       
4.38672117133       
8.96862431767       
8.96862431767       
14.8195221849       
14.8195221849       
17.5933272453       
17.5933272453       
14.2425089794       
14.2425089794       
8.37138051455       
8.37138051455       
4.02769397944       
4.02769397944       
1.75108805105       
1.75108805105       
0.7275662057        
0.7275662057        
0.296594740994      
0.296594740994      
0.119959771271      
0.119959771271      
0.0483633188115     
0.0483633188115     
0.0194751935361     
0.0194751935361     
0.00783678985247    
0.00783678985247    
0.00315945530808    
0.00315945530808    
0.00421275185464    
0.00422239340828    
0.0104733273899     
0.0104733273899     
0.0260272486214     
0.0260272486214     
0.0646342292072     
0.0646342292072     
0.160317933974      
0.160317933974      
0.396378349174      
0.396378349174      
0.972341891713      
0.972341891713      
2.34020801788       
2.34020801788       
5.38273431685       
5.38273431685       
11.18777082         
11.18777082         
19.034132596        
19.0341277728       
23.5122645339       
23.5122645339       
19.8052659984       
19.8052611512       
11.9859458382       
11.9859470367       
5.86254931624       
5.86254816982       
2.54614111362       
2.54614150782       
2.54614150782       
2.54614111362       
5.86254816982       
5.86254931624       
11.9859470367       
11.9859458382       
19.8052611512       
19.8052659984       
23.5122645339       
23.5122645339       
19.0341277728       
19.034132596        
11.18777082         
11.18777082         
5.38273431685       
5.38273431685       
2.34020801788       
2.34020801788       
0.972341891713      
0.972341891713      
0.396378349174      
0.396378349174      
0.160317933974      
0.160317933974      
0.0646342292072     
0.0646342292072     
0.0260272486214     
0.0260272486214     
0.0104733273899     
0.0104733273899     
0.00422239340828    
0.00421275185464    
0.00404748091116    
0.00404748091116    
0.0100624470991     
0.0100624470991     
0.0250061706886     
0.0250061706886     
0.0621078196895     
0.0620985564428     
0.154028482954      
0.154028482954      
0.38081872208       
0.38082798535       
0.934205100172      
0.934195836863      
2.24838978918       
2.24839905258       
5.17156365839       
5.17156365839       
10.7488713801       
10.7488621162       
18.2873931204       
18.2874023884       
22.5898522263       
22.5898522263       
19.0282787109       
19.028283368        
11.5157249926       
11.5157249926       
5.63255387783       
5.63255387783       
2.44625353977       
2.44625353977       
2.44625353977       
2.44625353977       
5.63255387783       
5.63255387783       
11.5157249926       
11.5157249926       
19.028283368        
19.0282787109       
22.5898522263       
22.5898522263       
18.2874023884       
18.2873931204       
10.7488621162       
10.7488713801       
5.17156365839       
5.17156365839       
2.24839905258       
2.24838978918       
0.934195836863      
0.934205100172      
0.38082798535       
0.38081872208       
0.154028482954      
0.154028482954      
0.0620985564428     
0.0621078196895     
0.0250061706886     
0.0250061706886     
0.0100624470991     
0.0100624470991     
0.00404748091116    
0.00404748091116    
0.00282677897327    
0.00282677897327    
0.00703412807063    
0.00702765855996    
0.0174644226957     
0.0174644226957     
0.0433699126597     
0.0433763821566     
0.107574189117      
0.107574189117      
0.265965517822      
0.265965517822      
0.652453066946      
0.652453066946      
1.57028559751       
1.57028559751       
3.61184344766       
3.61184344766       
7.50706038412       
7.50706038412       
12.7720012985       
12.7719980615       
15.7768549575       
15.7768549575       
13.2894391605       
13.2894375342       
8.04263441565       
8.04263441565       
3.93380110271       
3.93380110271       
1.70847453776       
1.70847453776       
1.70847453776       
1.70847453776       
3.93380110271       
3.93380110271       
8.04263441565       
8.04263441565       
13.2894375342       
13.2894391605       
15.7768549575       
15.7768549575       
12.7719980615       
12.7720012985       
7.50706038412       
7.50706038412       
3.61184344766       
3.61184344766       
1.57028559751       
1.57028559751       
0.652453066946      
0.652453066946      
0.265965517822      
0.265965517822      
0.107574189117      
0.107574189117      
0.0433763821566     
0.0433699126597     
0.0174644226957     
0.0174644226957     
0.00702765855996    
0.00703412807063    
0.00282677897327    
0.00282677897327    
0.00156749850319    
0.00156391922446    
0.00388806144087    
0.00389164070711    
0.00966221507839    
0.00966221507839    
0.0239944618469     
0.0239944618469     
0.0595155631512     
0.0595155631512     
0.147149355579      
0.147145776269      
0.360966947349      
0.36097052674       
0.868766173704      
0.868762594122      
1.99825718844       
1.99825718844       
4.15328755752       
4.15329113833       
7.06612848894       
7.06612669734       
8.72856418546       
8.72856598133       
7.35239898416       
7.35239988386       
4.44959818303       
4.44959818303       
2.17638068978       
2.17638026496       
0.945215811705      
0.945216102515      
0.945216102515      
0.945215811705      
2.17638026496       
2.17638068978       
4.44959818303       
4.44959818303       
7.35239988386       
7.35239898416       
8.72856598133       
8.72856418546       
7.06612669734       
7.06612848894       
4.15329113833       
4.15328755752       
1.99825718844       
1.99825718844       
0.868762594122      
0.868766173704      
0.36097052674       
0.360966947349      
0.147145776269      
0.147149355579      
0.0595155631512     
0.0595155631512     
0.0239944618469     
0.0239944618469     
0.00966221507839    
0.00966221507839    
0.00389164070711    
0.00388806144087    
0.00156391922446    
0.00156749850319    
0.000757296454751   
0.000757296454751   
0.0018784165602     
0.0018784165602     
0.00466804989542    
0.00466804989542    
0.0115923050984     
0.0115923050984     
0.0287534086221     
0.0287534086221     
0.0710896849525     
0.0710914142412     
0.174393595843      
0.17439186646       
0.419720230377      
0.419721959983      
0.965408129003      
0.965406398896      
2.00655371475       
2.00655371475       
3.41381764807       
3.41381764807       
4.21698055904       
4.21698055904       
3.55212228648       
3.55212185183       
2.14970854769       
2.14970854769       
1.05146196771       
1.05146237691       
0.456656767608      
0.456656489688      
0.456656489688      
0.456656767608      
1.05146237691       
1.05146196771       
2.14970854769       
2.14970854769       
3.55212185183       
3.55212228648       
4.21698055904       
4.21698055904       
3.41381764807       
3.41381764807       
2.00655371475       
2.00655371475       
0.965406398896      
0.965408129003      
0.419721959983      
0.419720230377      
0.17439186646       
0.174393595843      
0.0710914142412     
0.0710896849525     
0.0287534086221     
0.0287534086221     
0.0115923050984     
0.0115923050984     
0.00466804989542    
0.00466804989542    
0.0018784165602     
0.0018784165602     
0.000757296454751   
0.000757296454751   
0.000341111174325   
0.000341891862294   
0.000848036897444   
0.000848036897444   
0.00210745509505    
0.00210745509505    
0.00523350499466    
0.00523350499466    
0.0129819010324     
0.0129811203223     
0.0320944123937     
0.0320944123937     
0.078731597756      
0.0787323786078     
0.189489230402      
0.18948844931       
0.435845947466      
0.435846729097      
0.905886171844      
0.905886171844      
1.54121475928       
1.54121475928       
1.90381405258       
1.90381366004       
1.60365408618       
1.60365388997       
0.970515382024      
0.970515382024      
0.474697099362      
0.474697099362      
0.20616382897       
0.20616382897       
0.20616382897       
0.20616382897       
0.474697099362      
0.474697099362      
0.970515382024      
0.970515382024      
1.60365388997       
1.60365408618       
1.90381366004       
1.90381405258       
1.54121475928       
1.54121475928       
0.905886171844      
0.905886171844      
0.435846729097      
0.435845947466      
0.18948844931       
0.189489230402      
0.0787323786078     
0.078731597756      
0.0320944123937     
0.0320944123937     
0.0129811203223     
0.0129819010324     
0.00523350499466    
0.00523350499466    
0.00210745509505    
0.00210745509505    
0.000848036897444   
0.000848036897444   
0.000341891862294   
0.000341111174325   
0.000149273974439   
0.000149273974439   
0.000371451841031   
0.000371110203168   
0.000922245353771   
0.000922245353771   
0.00229023891261    
0.00229023891261    
0.00568067996292    
0.00568102162677    
0.0140448652988     
0.0140448652988     
0.0344541484705     
0.0344538066604     
0.0829222139902     
0.0829225560481     
0.190730945575      
0.190730945575      
0.396426020775      
0.396425677078      
0.674452060332      
0.674452405429      
0.83312998526       
0.833129812882      
0.701776448964      
0.701776534812      
0.424708125464      
0.424708041535      
0.207732633904      
0.207732633904      
0.0902195447755     
0.0902195949102     
0.0902195949102     
0.0902195447755     
0.207732633904      
0.207732633904      
0.424708041535      
0.424708125464      
0.701776534812      
0.701776448964      
0.833129812882      
0.83312998526       
0.674452405429      
0.674452060332      
0.396425677078      
0.396426020775      
0.190730945575      
0.190730945575      
0.0829225560481     
0.0829222139902     
0.0344538066604     
0.0344541484705     
0.0140448652988     
0.0140448652988     
0.00568102162677    
0.00568067996292    
0.00229023891261    
0.00229023891261    
0.000922245353771   
0.000922245353771   
0.000371110203168   
0.000371451841031   
0.000149273974439   
0.000149273974439   
6.45794859773e-05   
6.44320222656e-05   
0.000160184527061   
0.000160331991362   
0.000398074308776   
0.000398074308776   
0.000988549596199   
0.000988549596199   
0.00245198605812    
0.00245198605812    
0.00606226964847    
0.00606226964847    
0.0148716512471     
0.0148716512471     
0.0357922139502     
0.0357922139502     
0.082326492187      
0.0823263437326     
0.171111597146      
0.1711117467        
0.291117946672      
0.291117795778      
0.359608754877      
0.3596089049        
0.302912025697      
0.302912025697      
0.183319285842      
0.183319321476      
0.0896648834431     
0.0896648834431     
0.0389420228619     
0.0389420046025     
0.0389420046025     
0.0389420228619     
0.0896648834431     
0.0896648834431     
0.183319321476      
0.183319285842      
0.302912025697      
0.302912025697      
0.3596089049        
0.359608754877      
0.291117795778      
0.291117946672      
0.1711117467        
0.171111597146      
0.0823263437326     
0.082326492187      
0.0357922139502     
0.0357922139502     
0.0148716512471     
0.0148716512471     
0.00606226964847    
0.00606226964847    
0.00245198605812    
0.00245198605812    
0.000988549596199   
0.000988549596199   
0.000398074308776   
0.000398074308776   
0.000160331991362   
0.000160184527061   
6.44320222656e-05   
6.45794859773e-05   
2.76442063326e-05   
2.77074752726e-05   
6.87262961163e-05   
6.87262961163e-05   
0.000170791605118   
0.000170791605118   
0.000424195065579   
0.000424131785989   
0.00105201117885    
0.00105201117885    
0.00260098356524    
0.00260098356524    
0.00638053718865    
0.00638060063497    
0.0153565169155     
0.0153564532167     
0.0353216669719     
0.035321731238      
0.0734145591493     
0.073414493776      
0.124902496154      
0.124902562841      
0.154288200854      
0.154288168062      
0.12996274574       
0.12996274574       
0.0786521519        
0.0786521519        
0.0384702294887     
0.0384702294887     
0.0167078567922     
0.0167078612303     
0.0167078612303     
0.0167078567922     
0.0384702294887     
0.0384702294887     
0.0786521519        
0.0786521519        
0.12996274574       
0.12996274574       
0.154288168062      
0.154288200854      
0.124902562841      
0.124902496154      
0.073414493776      
0.0734145591493     
0.035321731238      
0.0353216669719     
0.0153564532167     
0.0153565169155     
0.00638060063497    
0.00638053718865    
0.00260098356524    
0.00260098356524    
0.00105201117885    
0.00105201117885    
0.000424131785989   
0.000424195065579   
0.000170791605118   
0.000170791605118   
6.87262961163e-05   
6.87262961163e-05   
2.77074752726e-05   
2.76442063326e-05   
1.18305826446e-05   
1.18305826446e-05   
2.9439101626e-05    
2.94120236316e-05   
7.30917714146e-05   
7.30917714146e-05   
0.000181510937842   
0.000181538025707   
0.00045021749022    
0.00045021749022    
0.00111311392541    
0.00111311392541    
0.00273063440876    
0.00273060715379    
0.00657192956738    
0.00657195707541    
0.015116219846      
0.015116219846      
0.0314184091423     
0.0314184091423     
0.0534531280907     
0.0534531280907     
0.0660290120944     
0.0660289974502     
0.0556187050473     
0.0556187050473     
0.0336598820702     
0.0336598763792     
0.0164636743632     
0.0164636743632     
0.00715027892134    
0.00715027892134    
0.00715027892134    
0.00715027892134    
0.0164636743632     
0.0164636743632     
0.0336598763792     
0.0336598820702     
0.0556187050473     
0.0556187050473     
0.0660289974502     
0.0660290120944     
0.0534531280907     
0.0534531280907     
0.0314184091423     
0.0314184091423     
0.015116219846      
0.015116219846      
0.00657195707541    
0.00657192956738    
0.00273060715379    
0.00273063440876    
0.00111311392541    
0.00111311392541    
0.00045021749022    
0.00045021749022    
0.000181538025707   
0.000181510937842   
7.30917714146e-05   
7.30917714146e-05   
2.94120236316e-05   
2.9439101626e-05    
1.18305826446e-05   
1.18305826446e-05   
5.05783088206e-06   
5.05783088206e-06   
1.25858549676e-05   
1.25858549676e-05   
3.12483209002e-05   
3.12483209002e-05   
7.75998709961e-05   
7.75998709961e-05   
0.000192477749752   
0.000192477749752   
0.000475880365008   
0.000475880365008   
0.00116740548247    
0.00116740548247    
0.00280964272913    
0.00280964272913    
0.00646251210501    
0.00646251210501    
0.0134320518917     
0.0134320518917     
0.0228523725486     
0.0228523725486     
0.0282288360519     
0.0282288360519     
0.0237782039146     
0.0237782039146     
0.014390328134      
0.0143903299697     
0.00703857627682    
0.0070385759902     
0.00305690074359    
0.00305690074359    
0.00305690074359    
0.00305690074359    
0.0070385759902     
0.00703857627682    
0.0143903299697     
0.014390328134      
0.0237782039146     
0.0237782039146     
0.0282288360519     
0.0282288360519     
0.0228523725486     
0.0228523725486     
0.0134320518917     
0.0134320518917     
0.00646251210501    
0.00646251210501    
0.00280964272913    
0.00280964272913    
0.00116740548247    
0.00116740548247    
0.000475880365008   