# vtk DataFile Version 3.0
TriPan results file. Generated by TriPan, USU AeroLab (c) 2021.
ASCII
DATASET POLYDATA
POINTS                  40 float
     19.758197784400      0.757896304131      0.000000000000
     99.348878200948      0.757896304131     11.752929151236
     19.000301361100      0.000000000000      0.000000000000
     99.332704500866      0.000000000000     11.862457233799
     20.789274215700      1.788973569870      0.000000000000
     99.370881631034      1.788973569870     11.603922214374
     22.173099517800      3.172797679900      0.000000000000
     99.400412810644      3.172797679900     11.403937457512
     23.996917724600      4.996616363530      0.000000000000
     99.439333549383      4.996616363530     11.140366730706
     26.343925476100      7.343624591830      0.000000000000
     99.489419284448      7.343624591830     10.801186796777
     29.273138046300     10.272837638900      0.000000000000
     99.551929416613     10.272837638900     10.377869010378
     32.792423248300     13.792121887200      0.000000000000
     99.627031846988     13.792121887200      9.869276347431
     36.832305908200     17.832006454500      0.000000000000
     99.713243957906     17.832006454500      9.285449075113
     41.234233856200     22.233930587800      0.000000000000
     99.807182206230     22.233930587800      8.649300502698
     45.766368866000     26.766069412200      0.000000000000
     99.903899105966     26.766069412200      7.994334939759
     50.168296814000     31.167993545500      0.000000000000
     99.997837354290     31.167993545500      7.358186367344
     54.208179473900     35.207878112800      0.000000000000
    100.084049465208     35.207878112800      6.774359095026
     57.727462768600     38.727161407500      0.000000000000
    100.159151854880     38.727161407500      6.265766707714
     60.656677246100     41.656375885000      0.000000000000
    100.221662027748     41.656375885000      5.842448645681
     63.003684997600     44.003383636500      0.000000000000
    100.271747762813     44.003383636500      5.503268711751
     64.827507019000     45.827201843300      0.000000000000
    100.310668582956     45.827201843300      5.239697433675
     66.211326599100     47.211025238000      0.000000000000
    100.340199640458     47.211025238000      5.039713503734
     67.242401123000     48.242103576700      0.000000000000
    100.362203029839     48.242103576700      4.890706842520
     68.000297546400     49.000000000000      0.000000000000
    100.378376729923     49.000000000000      4.781178759944
POLYGONS                  38                 152
3                   0                   1                   3
3                   0                   3                   2
3                   4                   5                   1
3                   4                   1                   0
3                   6                   7                   5
3                   6                   5                   4
3                   8                   9                   7
3                   8                   7                   6
3                  10                  11                   9
3                  10                   9                   8
3                  12                  13                  11
3                  12                  11                  10
3                  14                  15                  13
3                  14                  13                  12
3                  16                  17                  15
3                  16                  15                  14
3                  18                  19                  17
3                  18                  17                  16
3                  20                  21                  19
3                  20                  19                  18
3                  22                  23                  21
3                  22                  21                  20
3                  24                  25                  23
3                  24                  23                  22
3                  26                  27                  25
3                  26                  25                  24
3                  28                  29                  27
3                  28                  27                  26
3                  30                  31                  29
3                  30                  29                  28
3                  32                  33                  31
3                  32                  31                  30
3                  34                  35                  33
3                  34                  33                  32
3                  36                  37                  35
3                  36                  35                  34
3                  38                  39                  37
3                  38                  37                  36
POINT_DATA                  40
SCALARS mu float 1
LOOKUP_TABLE default
     -4.369244136325
     -4.369244136325
     -4.275689483332
     -4.275689483332
     -4.420656371818
     -4.420656371818
     -4.553323139875
     -4.553323139875
     -4.652732895990
     -4.652732895990
     -4.752689118881
     -4.752689118881
     -4.846117870675
     -4.846117870675
     -4.950800461713
     -4.950800461713
     -5.033705948177
     -5.033705948177
     -5.070933229913
     -5.070933229913
     -5.064438956155
     -5.064438956155
     -4.971129034044
     -4.971129034044
     -4.778955405463
     -4.778955405463
     -4.483237102115
     -4.483237102115
     -4.073871763969
     -4.073871763969
     -3.546902924058
     -3.546902924058
     -2.899203711986
     -2.899203711986
     -2.200347676100
     -2.200347676100
     -1.277060673628
     -1.277060673628
      0.000000000000
      0.000000000000
