# vtk DataFile Version 3.0
MachLine results file. Generated by MachLine, USU AeroLab (c) 2022.
ASCII
DATASET POLYDATA
POINTS                4847 float
  0.118177030709E-08 -0.116013329744E-24  0.000000000000E+00
  0.197142883018E-02 -0.451629317287E-25 -0.438094073592E-03
  0.197142881269E-02 -0.263194556457E-25  0.438094152282E-03
  0.394285736632E-02  0.389922447465E-25 -0.876189470791E-03
  0.394285740489E-02  0.285768365090E-25  0.876189297243E-03
  0.591428590840E-02 -0.423444481880E-26 -0.131428484083E-02
  0.591428596436E-02 -0.327314166538E-25  0.131428458901E-02
  0.788571450485E-02 -0.956153066840E-26 -0.175237996624E-02
  0.788571453588E-02 -0.109154921670E-25  0.175237982659E-02
  0.827775208023E-02  0.832120756871E-02  0.512268959783E-25
  0.827775340411E-02 -0.832120625174E-02  0.000000000000E+00
  0.985714310120E-02 -0.159752499848E-25 -0.219047509206E-02
  0.985714309663E-02 -0.104507940601E-25  0.219047511262E-02
  0.101783179296E-01  0.832120779747E-02 -0.422347731613E-03
  0.101783182702E-01 -0.832120745859E-02 -0.422346198630E-03
  0.101783179444E-01  0.832120778272E-02  0.422347664867E-03
  0.101783182763E-01 -0.832120745258E-02  0.422346171439E-03
  0.118285716443E-01 -0.187832528308E-25 -0.262857045996E-02
  0.118285716641E-01 -0.256429782926E-25  0.262857037069E-02
  0.120788839954E-01  0.832120781058E-02 -0.844695808510E-03
  0.120788843385E-01 -0.832120746925E-02 -0.844694264484E-03
  0.120788840070E-01  0.832120779903E-02  0.844695756282E-03
  0.120788843530E-01 -0.832120745487E-02  0.844694199437E-03
  0.138000001807E-01  0.000000000000E+00 -0.306666585362E-02
  0.139794500739E-01  0.832120781208E-02 -0.126704383298E-02
  0.139794504229E-01 -0.832120746493E-02 -0.126704226257E-02
  0.138000002447E-01 -0.373659259916E-25  0.306666556560E-02
  0.139794500862E-01  0.832120779980E-02  0.126704377743E-02
  0.139794504327E-01 -0.832120745510E-02  0.126704221810E-02
  0.157714287471E-01  0.000000000000E+00 -0.350476111253E-02
  0.158800161594E-01  0.832120780559E-02 -0.168939182121E-02
  0.158800164588E-01 -0.832120750776E-02 -0.168939047391E-02
  0.158800161680E-01  0.832120779700E-02  0.168939178233E-02
  0.158800164754E-01 -0.832120749121E-02  0.168939039909E-02
  0.157714288216E-01 -0.546701519531E-26  0.350476077708E-02
  0.172182432736E-01  0.173086339142E-01  0.629405174057E-25
  0.172182448082E-01 -0.173086323877E-01  0.165375041959E-24
  0.177428573157E-01  0.000000000000E+00 -0.394285636563E-02
  0.177805822392E-01  0.832120780475E-02 -0.211173983499E-02
  0.177805825082E-01 -0.832120753723E-02 -0.211173862483E-02
  0.177805822405E-01  0.832120780345E-02  0.211173982913E-02
  0.177805825754E-01 -0.832120747031E-02  0.211173832213E-02
  0.177428573858E-01 -0.529622620970E-26  0.394285605041E-02
  0.190422731213E-01  0.173086342081E-01 -0.405339738173E-03
  0.190422736269E-01 -0.173086337051E-01 -0.405337462774E-03
  0.190422731315E-01  0.173086341979E-01  0.405339692255E-03
  0.190422735866E-01 -0.173086337452E-01  0.405337644311E-03
  0.197142858840E-01 -0.185474364180E-25 -0.438095161582E-02
  0.196811483097E-01  0.832120781425E-02 -0.253408789559E-02
  0.196811485874E-01 -0.832120753799E-02 -0.253408664588E-02
  0.196811483152E-01  0.832120780874E-02  0.253408787067E-02
  0.196811486707E-01 -0.832120745509E-02  0.253408627089E-02
  0.197142859419E-01 -0.198912181205E-25  0.438095135523E-02
  0.208663032755E-01  0.173086341979E-01 -0.810679723778E-03
  0.208663037824E-01 -0.173086336936E-01 -0.810677442758E-03
  0.208663032965E-01  0.173086341770E-01  0.810679629212E-03
  0.208663037043E-01 -0.173086337714E-01  0.810677794404E-03
  0.216857144482E-01 -0.106133065963E-25 -0.481904688924E-02
  0.215817143776E-01  0.832120782532E-02 -0.295643596334E-02
  0.215817146830E-01 -0.832120752153E-02 -0.295643458910E-02
  0.215817143997E-01  0.832120780334E-02  0.295643586392E-02
  0.215817147592E-01 -0.832120744571E-02  0.295643424616E-02
  0.216857145149E-01  0.000000000000E+00  0.481904658874E-02
  0.226903334078E-01  0.173086342086E-01 -0.121601980400E-02
  0.226903339193E-01 -0.173086336997E-01 -0.121601750233E-02
  0.226903334239E-01  0.173086341925E-01  0.121601973126E-02
  0.226903338796E-01 -0.173086337392E-01  0.121601768099E-02
  0.234822804568E-01  0.832120782507E-02 -0.337878397980E-02
  0.234822807450E-01 -0.832120753842E-02 -0.337878268312E-02
  0.236571430431E-01 -0.203006784515E-25 -0.525714201959E-02
  0.234822804850E-01  0.832120779700E-02  0.337878385285E-02
  0.234822808239E-01 -0.832120745989E-02  0.337878232790E-02
  0.236571430783E-01  0.144816520772E-25  0.525714186136E-02
  0.245143635503E-01  0.173086342090E-01 -0.162135983789E-02
  0.245143639882E-01 -0.173086337734E-01 -0.162135786724E-02
  0.245143635780E-01  0.173086341815E-01  0.162135971333E-02
  0.245143640083E-01 -0.173086337534E-01  0.162135777684E-02
  0.253828465462E-01  0.832120781478E-02 -0.380113195087E-02
  0.253828468521E-01 -0.832120751039E-02 -0.380113057395E-02
  0.256285716490E-01  0.000000000000E+00 -0.569523710505E-02
  0.253828465534E-01  0.832120780762E-02  0.380113191850E-02
  0.253828469129E-01 -0.832120744999E-02  0.380113030069E-02
  0.256285716505E-01  0.000000000000E+00  0.569523709832E-02
  0.263383936769E-01  0.173086342254E-01 -0.202669994355E-02
  0.263383941705E-01 -0.173086337343E-01 -0.202669772232E-02
  0.263383936915E-01  0.173086342108E-01  0.202669987795E-02
  0.263383941788E-01 -0.173086337261E-01  0.202669768522E-02
  0.267917399925E-01  0.269323889317E-01 -0.359932584220E-25
  0.267917413683E-01 -0.269323875631E-01 -0.156045852460E-24
  0.272834126297E-01  0.832120781121E-02 -0.422347995233E-02
  0.272834129185E-01 -0.832120752393E-02 -0.422347865277E-02
  0.276000002232E-01 -0.486884653061E-26 -0.613333232897E-02
  0.272834126251E-01  0.832120781588E-02  0.422347997347E-02
  0.272834129750E-01 -0.832120746774E-02  0.422347839857E-02
  0.281624238272E-01  0.173086342181E-01 -0.243203994249E-02
  0.281624242911E-01 -0.173086337566E-01 -0.243203785491E-02
  0.276000002241E-01  0.146650524383E-25  0.613333232495E-02
  0.281624238395E-01  0.173086342059E-01  0.243203988717E-02
  0.281624243059E-01 -0.173086337419E-01  0.243203778851E-02
  0.285338149750E-01  0.269323892495E-01 -0.387127426434E-03
  0.285338154854E-01 -0.269323887417E-01 -0.387125129586E-03
  0.285338149616E-01  0.269323892628E-01  0.387127486651E-03
  0.285338154274E-01 -0.269323887994E-01  0.387125390540E-03
  0.291839787145E-01  0.832120780550E-02 -0.464582794419E-02
  0.291839789987E-01 -0.832120752277E-02 -0.464582666523E-02
  0.295714288013E-01  0.000000000000E+00 -0.657142753505E-02
  0.291839787064E-01  0.832120781352E-02  0.464582798050E-02
  0.291839790568E-01 -0.832120746494E-02  0.464582640365E-02
  0.299864539824E-01  0.173086342060E-01 -0.283737991948E-02
  0.299864543979E-01 -0.173086337926E-01 -0.283737804978E-02
  0.295714287942E-01 -0.146104852863E-25  0.657142756680E-02
  0.299864539956E-01  0.173086341928E-01  0.283737986006E-02
  0.299864544676E-01 -0.173086337233E-01  0.283737773593E-02
  0.302758903082E-01  0.269323892184E-01 -0.774255130860E-03
  0.302758907454E-01 -0.269323887835E-01 -0.774253163451E-03
  0.302758903027E-01  0.269323892239E-01  0.774255155684E-03
  0.302758907332E-01 -0.269323887956E-01  0.774253218312E-03
  0.310845447917E-01  0.832120780728E-02 -0.506817596986E-02
  0.310845450935E-01 -0.832120750704E-02 -0.506817461169E-02
  0.315428573388E-01 -0.427216937917E-26 -0.700952292825E-02
  0.310845447780E-01  0.832120782091E-02  0.506817603149E-02
  0.310845451283E-01 -0.832120747242E-02  0.506817445507E-02
  0.318104841289E-01  0.173086342034E-01 -0.324271993991E-02
  0.318104845322E-01 -0.173086338023E-01 -0.324271812542E-02
  0.320179655612E-01  0.269323892672E-01 -0.116138319632E-02
  0.320179660676E-01 -0.269323887635E-01 -0.116138091756E-02
  0.318104841419E-01  0.173086341905E-01  0.324271988150E-02
  0.318104845909E-01 -0.173086337439E-01  0.324271786114E-02
  0.315428573573E-01 -0.420659411314E-25  0.700952284536E-02
  0.320179655672E-01  0.269323892612E-01  0.116138316918E-02
  0.320179660309E-01 -0.269323887999E-01  0.116138108253E-02
  0.329851108718E-01  0.832120780716E-02 -0.549052398689E-02
  0.329851111699E-01 -0.832120751068E-02 -0.549052264576E-02
  0.335142858720E-01  0.137891543033E-25 -0.744761833650E-02
  0.336345142858E-01  0.173086341897E-01 -0.364805990951E-02
  0.336345146818E-01 -0.173086337958E-01 -0.364805812751E-02
  0.329851108586E-01  0.832120782028E-02  0.549052404624E-02
  0.329851111959E-01 -0.832120748474E-02  0.549052252839E-02
  0.337600408786E-01  0.269323892518E-01 -0.154851097186E-02
  0.337600413528E-01 -0.269323887802E-01 -0.154850883811E-02
  0.337600408902E-01  0.269323892403E-01  0.154851091979E-02
  0.337600412939E-01 -0.269323888388E-01  0.154850910337E-02
  0.336345143047E-01  0.173086341709E-01  0.364805982436E-02
  0.336345147663E-01 -0.173086337117E-01  0.364805774725E-02
  0.335142859224E-01 -0.181889879887E-25  0.744761810961E-02
  0.348856769588E-01  0.832120779924E-02 -0.591287196868E-02
  0.348856772500E-01 -0.832120750951E-02 -0.591287065804E-02
  0.354857144684E-01  0.000000000000E+00 -0.788571346488E-02
  0.354585444017E-01  0.173086342166E-01 -0.405340006307E-02
  0.354585448161E-01 -0.173086338043E-01 -0.405339819815E-02
  0.348856769387E-01  0.832120781917E-02  0.591287205883E-02
  0.348856772509E-01 -0.832120750867E-02  0.591287065426E-02
  0.355021161836E-01  0.269323892489E-01 -0.193563880340E-02
  0.355021166639E-01 -0.269323887711E-01 -0.193563664186E-02
  0.355021161706E-01  0.269323892618E-01  0.193563886200E-02
  0.355021166092E-01 -0.269323888255E-01  0.193563688819E-02
  0.354585443995E-01  0.173086342187E-01  0.405340007273E-02
  0.354585448987E-01 -0.173086337222E-01  0.405339782660E-02
  0.354857145103E-01  0.000000000000E+00  0.788571327631E-02
  0.367862430323E-01  0.832120780472E-02 -0.633522001119E-02
  0.367862433116E-01 -0.832120752681E-02 -0.633521875400E-02
[...]
POINT_DATA                4847
SCALARS phi float 1
LOOKUP_TABLE default
  0.129246970711E-25
 -0.271050543121E-19
 -0.542101086243E-19
 -0.542101086243E-19
  0.108420217249E-18
 -0.108420217249E-18
  0.000000000000E+00
  0.108420217249E-18
  0.108420217249E-18
 -0.323117426779E-25
 -0.516987882846E-25
  0.216840434497E-18
 -0.108420217249E-18
 -0.542101086243E-19
  0.542101086243E-19
 -0.542101086243E-19
 -0.108420217249E-18
  0.433680868994E-18
 -0.108420217249E-18
 -0.216840434497E-18
  0.000000000000E+00
  0.108420217249E-18
  0.000000000000E+00
  0.000000000000E+00
  0.216840434497E-18
  0.000000000000E+00
  0.000000000000E+00
  0.000000000000E+00
  0.216840434497E-18
 -0.433680868994E-18
 -0.216840434497E-18
  0.216840434497E-18
 -0.216840434497E-18
  0.433680868994E-18
  0.433680868994E-18
  0.387740912134E-25
  0.258493941423E-24
  0.000000000000E+00
  0.433680868994E-18
  0.867361737988E-18
  0.216840434497E-18
  0.650521303491E-18
  0.867361737988E-18
  0.542101086243E-19
  0.542101086243E-19
  0.542101086243E-19
  0.108420217249E-18
  0.433680868994E-18
 -0.867361737988E-18
  0.433680868994E-18
  0.216840434497E-18
  0.433680868994E-18
  0.433680868994E-18
  0.216840434497E-18
  0.000000000000E+00
  0.108420217249E-18
  0.000000000000E+00
 -0.433680868994E-18
  0.433680868994E-18
  0.433680868994E-18
  0.216840434497E-18
  0.000000000000E+00
  0.216840434497E-18
 -0.433680868994E-18
  0.216840434497E-18
  0.000000000000E+00
 -0.216840434497E-18
  0.130104260698E-17
 -0.867361737988E-18
  0.433680868994E-18
 -0.433680868994E-18
  0.108420217249E-17
  0.108420217249E-17
 -0.216840434497E-18
 -0.216840434497E-18
  0.433680868994E-18
  0.216840434497E-18
  0.433680868994E-18
 -0.433680868994E-18
  0.000000000000E+00
 -0.130104260698E-17
 -0.173472347598E-17
 -0.433680868994E-18
  0.000000000000E+00
 -0.433680868994E-18
  0.108420217249E-17
  0.433680868994E-18
 -0.193870456067E-25
 -0.232644547281E-24
  0.433680868994E-18
 -0.867361737988E-18
 -0.173472347598E-17
  0.000000000000E+00
  0.000000000000E+00
 -0.433680868994E-18
 -0.433680868994E-18
 -0.173472347598E-17
  0.000000000000E+00
  0.000000000000E+00
  0.000000000000E+00
 -0.108420217249E-18
  0.000000000000E+00
 -0.108420217249E-18
 -0.867361737988E-18
 -0.433680868994E-18
 -0.216840434497E-17
 -0.433680868994E-18
 -0.130104260698E-17
  0.173472347598E-17
 -0.433680868994E-18
 -0.867361737988E-18
 -0.867361737988E-18
 -0.130104260698E-17
  0.000000000000E+00
 -0.108420217249E-18
  0.216840434497E-18
  0.108420217249E-18
  0.173472347598E-17
  0.867361737988E-18
  0.867361737988E-18
 -0.867361737988E-18
 -0.130104260698E-17
 -0.130104260698E-17
 -0.130104260698E-17
  0.216840434497E-18
 -0.433680868994E-18
  0.433680868994E-18
 -0.433680868994E-18
 -0.867361737988E-18
  0.000000000000E+00
  0.000000000000E+00
  0.173472347598E-17
  0.000000000000E+00
  0.130104260698E-17
  0.433680868994E-18
 -0.433680868994E-18
  0.130104260698E-17
  0.867361737988E-18
  0.216840434497E-18
  0.000000000000E+00
  0.216840434497E-18
 -0.433680868994E-18
  0.303576608296E-17
 -0.260208521397E-17
 -0.433680868994E-18
 -0.216840434497E-17
 -0.303576608296E-17
  0.260208521397E-17
  0.173472347598E-17
  0.216840434497E-17
 -0.130104260698E-17
 -0.867361737988E-18
 -0.433680868994E-18
  0.433680868994E-18
  0.433680868994E-18
  0.433680868994E-18
  0.000000000000E+00
  0.130104260698E-17
  0.173472347598E-17
  0.000000000000E+00
  0.390312782095E-17
 -0.173472347598E-17
 -0.129246970711E-25
 -0.155096364854E-24
 -0.130104260698E-17
  0.173472347598E-17
  0.000000000000E+00
 -0.130104260698E-17
  0.000000000000E+00
  0.433680868994E-18
 -0.433680868994E-18
 -0.433680868994E-18
  0.433680868994E-18
  0.173472347598E-17
 -0.260208521397E-17
 -0.216840434497E-17
  0.216840434497E-17
 -0.542101086243E-19
  0.000000000000E+00
  0.542101086243E-19
  0.000000000000E+00
  0.130104260698E-17
 -0.260208521397E-17
  0.000000000000E+00
 -0.130104260698E-17
  0.173472347598E-17
 -0.867361737988E-18
  0.000000000000E+00
  0.433680868994E-18
 -0.867361737988E-18
  0.433680868994E-18
  0.433680868994E-18
 -0.433680868994E-18
 -0.216840434497E-17
  0.433680868994E-18
  0.108420217249E-18
 -0.216840434497E-18
  0.108420217249E-18
  0.108420217249E-18
  0.867361737988E-18
  0.867361737988E-18
 -0.867361737988E-18
 -0.130104260698E-17
 -0.216840434497E-17
  0.867361737988E-18
 -0.433680868994E-18
 -0.130104260698E-17
  0.173472347598E-17
 -0.130104260698E-17
  0.433680868994E-18
  0.000000000000E+00
 -0.216840434497E-18
 -0.173472347598E-17
  0.173472347598E-17
  0.000000000000E+00
 -0.216840434497E-18
  0.433680868994E-18
  0.433680868994E-18
  0.867361737988E-18
 -0.433680868994E-18
 -0.216840434497E-17
  0.433680868994E-18
 -0.130104260698E-17
 -0.303576608296E-17
  0.000000000000E+00
 -0.130104260698E-17
  0.173472347598E-17
  0.433680868994E-18
 -0.433680868994E-18
  0.216840434497E-18
  0.650521303491E-18
  0.867361737988E-18
  0.173472347598E-17
  0.130104260698E-17
  0.433680868994E-18
  0.260208521397E-17
 -0.173472347598E-17
  0.433680868994E-18
 -0.303576608296E-17
  0.867361737988E-18
  0.303576608296E-17
 -0.260208521397E-17
  0.477048955894E-17
  0.000000000000E+00
 -0.130104260698E-17
  0.000000000000E+00
 -0.867361737988E-18
 -0.867361737988E-18
  0.173472347598E-17
 -0.260208521397E-17
 -0.867361737988E-18
 -0.867361737988E-18
  0.173472347598E-17
  0.867361737988E-18
 -0.346944695195E-17
 -0.130104260698E-17
  0.867361737988E-18
  0.173472347598E-17
  0.130104260698E-17
 -0.216840434497E-17
  0.130104260698E-17
 -0.173472347598E-17
 -0.433680868994E-18
  0.260208521397E-17
 -0.867361737988E-18
  0.607153216592E-17
 -0.173472347598E-17
 -0.452364397490E-25
  0.516987882846E-25
  0.000000000000E+00
  0.173472347598E-17
  0.000000000000E+00
  0.260208521397E-17
  0.173472347598E-17
 -0.433680868994E-18
 -0.216840434497E-17
 -0.130104260698E-17
  0.260208521397E-17
 -0.390312782095E-17
  0.867361737988E-18
  0.173472347598E-17
  0.000000000000E+00
  0.867361737988E-18
  0.542101086243E-19
 -0.542101086243E-19
  0.542101086243E-19
  0.542101086243E-19
  0.260208521397E-17
 -0.433680868994E-17
 -0.260208521397E-17
  0.000000000000E+00
 -0.216840434497E-17
  0.867361737988E-18
  0.000000000000E+00
 -0.130104260698E-17
 -0.173472347598E-17
  0.607153216592E-17
  0.433680868994E-17
 -0.108420217249E-18
  0.000000000000E+00
 -0.607153216592E-17
  0.000000000000E+00
  0.000000000000E+00
 -0.108420217249E-18
  0.000000000000E+00
 -0.867361737988E-18
  0.260208521397E-17
 -0.867361737988E-18
  0.000000000000E+00
 -0.130104260698E-17
 -0.867361737988E-18
  0.867361737988E-18
 -0.433680868994E-18
  0.216840434497E-18
  0.216840434497E-18
  0.000000000000E+00
  0.216840434497E-18
 -0.260208521397E-17
 -0.346944695195E-17
  0.433680868994E-17
  0.000000000000E+00
  0.867361737988E-18
  0.000000000000E+00
  0.000000000000E+00
 -0.433680868994E-18
  0.000000000000E+00
  0.867361737988E-18
  0.130104260698E-17
  0.433680868994E-18
  0.000000000000E+00
 -0.650521303491E-18
  0.650521303491E-18
 -0.216840434497E-18
 -0.260208521397E-17
  0.867361737988E-18
 -0.173472347598E-17
 -0.260208521397E-17
  0.000000000000E+00
  0.260208521397E-17
  0.867361737988E-18
  0.607153216592E-17
  0.260208521397E-17
  0.260208521397E-17
 -0.216840434497E-18
  0.216840434497E-18
  0.130104260698E-17
  0.260208521397E-17
  0.000000000000E+00
  0.650521303491E-18
 -0.346944695195E-17
 -0.260208521397E-17
 -0.260208521397E-17
  0.000000000000E+00
  0.780625564190E-17
 -0.867361737988E-17
  0.173472347598E-17
  0.867361737988E-18
  0.000000000000E+00
  0.000000000000E+00
  0.780625564190E-17
 -0.867361737988E-18
 -0.867361737988E-18
  0.130104260698E-17
  0.173472347598E-17
  0.433680868994E-18
  0.130104260698E-17
 -0.433680868994E-18
 -0.607153216592E-17
  0.867361737988E-18
 -0.173472347598E-17
  0.173472347598E-17
  0.260208521397E-17
  0.433680868994E-18
  0.260208521397E-17
 -0.260208521397E-17
  0.646234853557E-26
  0.000000000000E+00
  0.000000000000E+00
  0.433680868994E-18
 -0.693889390391E-17
  0.000000000000E+00
 -0.867361737988E-18
  0.260208521397E-17
 -0.607153216592E-17
  0.867361737988E-18
 -0.607153216592E-17
  0.433680868994E-18
  0.433680868994E-18
 -0.433680868994E-18
  0.000000000000E+00
 -0.542101086243E-19
  0.108420217249E-18
 -0.542101086243E-19
  0.173472347598E-17
  0.433680868994E-18
  0.867361737988E-18
 -0.607153216592E-17
 -0.346944695195E-17
 -0.867361737988E-18
  0.260208521397E-17
  0.000000000000E+00
  0.346944695195E-17
 -0.867361737988E-18
  0.173472347598E-17
  0.000000000000E+00
 -0.108420217249E-18
  0.000000000000E+00
  0.108420217249E-18
  0.000000000000E+00
 -0.433680868994E-18
 -0.867361737988E-18
 -0.867361737988E-18
  0.346944695195E-17
 -0.260208521397E-17
 -0.346944695195E-17
  0.000000000000E+00
 -0.260208521397E-17
  0.693889390391E-17
  0.346944695195E-17
  0.867361737988E-18
  0.000000000000E+00
 -0.433680868994E-18
 -0.216840434497E-18
  0.216840434497E-18
  0.433680868994E-18
 -0.867361737988E-18
  0.346944695195E-17
 -0.433680868994E-18
 -0.173472347598E-17
  0.346944695195E-17
  0.000000000000E+00
  0.433680868994E-17
 -0.433680868994E-17
  0.954097911787E-17
  0.173472347598E-17
 -0.216840434497E-18
 -0.650521303491E-18
 -0.173472347598E-17
  0.867361737988E-18
 -0.433680868994E-17
  0.346944695195E-17
  0.433680868994E-18
  0.650521303491E-18
  0.000000000000E+00
 -0.607153216592E-17
 -0.260208521397E-17
 -0.130104260698E-17
  0.520417042793E-17
 -0.173472347598E-17
 -0.433680868994E-18
 -0.151788304148E-17
 -0.346944695195E-17
 -0.260208521397E-17
  0.867361737988E-18
 -0.867361737988E-18
 -0.216840434497E-18
  0.216840434497E-18
  0.780625564190E-17
  0.260208521397E-17
  0.000000000000E+00
 -0.607153216592E-17
  0.260208521397E-17
  0.000000000000E+00
  0.130104260698E-17
  0.173472347598E-17
  0.173472347598E-17
  0.000000000000E+00
  0.433680868994E-18
  0.000000000000E+00
 -0.693889390391E-17
  0.000000000000E+00
  0.000000000000E+00
 -0.346944695195E-17
 -0.173472347598E-17
 -0.433680868994E-18
  0.867361737988E-18
 -0.260208521397E-17
  0.607153216592E-17
 -0.867361737988E-18
  0.000000000000E+00
  0.000000000000E+00
  0.000000000000E+00
 -0.346944695195E-17
 -0.867361737988E-18
 -0.260208521397E-17
  0.260208521397E-17
  0.173472347598E-17
  0.129246970711E-25
 -0.103397576569E-24
 -0.216840434497E-17
  0.130104260698E-17
 -0.173472347598E-17
 -0.260208521397E-17
 -0.867361737988E-18
  0.000000000000E+00
  0.607153216592E-17
 -0.693889390391E-17
 -0.607153216592E-17
 -0.121430643318E-16
  0.260208521397E-17
 -0.112757025938E-16
  0.867361737988E-18
  0.433680868994E-17
  0.000000000000E+00
 -0.542101086243E-19
 -0.542101086243E-19
 -0.162630325873E-18
 -0.260208521397E-17
  0.607153216592E-17
  0.173472347598E-17
  0.173472347598E-17
 -0.607153216592E-17
 -0.346944695195E-17
  0.000000000000E+00
 -0.867361737988E-18
  0.607153216592E-17
  0.000000000000E+00
  0.346944695195E-17
 -0.693889390391E-17
  0.260208521397E-17
 -0.867361737988E-17
  0.108420217249E-18
  0.000000000000E+00
 -0.108420217249E-18
 -0.108420217249E-18
 -0.693889390391E-17
 -0.607153216592E-17
  0.130104260698E-17
  0.000000000000E+00
 -0.173472347598E-17
 -0.693889390391E-17
  0.173472347598E-17
  0.173472347598E-17
 -0.433680868994E-17
 -0.607153216592E-17
  0.433680868994E-18
 -0.433680868994E-18
  0.108420217249E-18
 -0.325260651746E-18
  0.433680868994E-18
  0.000000000000E+00
  0.867361737988E-17
  0.433680868994E-17
 -0.173472347598E-17
  0.173472347598E-17
  0.000000000000E+00
  0.260208521397E-17
  0.780625564190E-17
 -0.433680868994E-17
 -0.433680868994E-18
  0.867361737988E-18
  0.433680868994E-18
  0.216840434497E-18
  0.173472347598E-17
 -0.867361737988E-18
 -0.173472347598E-17
  0.954097911787E-17
  0.173472347598E-17
 -0.260208521397E-17
 -0.867361737988E-18
  0.346944695195E-17
  0.346944695195E-17
  0.650521303491E-18
  0.000000000000E+00
  0.216840434497E-18
  0.216840434497E-18
  0.000000000000E+00
 -0.346944695195E-17
  0.346944695195E-17
  0.173472347598E-17
 -0.737257477290E-17
  0.173472347598E-17
  0.346944695195E-17
  0.000000000000E+00
  0.433680868994E-18
  0.173472347598E-17
  0.138777878078E-16
 -0.216840434497E-18
  0.000000000000E+00
  0.607153216592E-17
  0.346944695195E-17
  0.607153216592E-17
 -0.173472347598E-17
  0.867361737988E-18
  0.867361737988E-18
 -0.173472347598E-17
  0.260208521397E-17
  0.867361737988E-18
 -0.433680868994E-18
  0.346944695195E-17
  0.346944695195E-17
 -0.867361737988E-18
 -0.693889390391E-17
 -0.520417042793E-17
 -0.104083408559E-16
  0.000000000000E+00
  0.867361737988E-18
 -0.260208521397E-17
  0.173472347598E-17
  0.433680868994E-17
  0.173472347598E-17
  0.000000000000E+00
 -0.520417042793E-17
 -0.433680868994E-18
  0.867361737988E-18
 -0.303576608296E-17
 -0.780625564190E-17
  0.867361737988E-17
  0.867361737988E-18
 -0.867361737988E-18
  0.346944695195E-17
 -0.130104260698E-17
 -0.433680868994E-18
  0.000000000000E+00
  0.000000000000E+00
  0.173472347598E-17
  0.867361737988E-18
  0.173472347598E-17
 -0.173472347598E-17
  0.173472347598E-17
 -0.867361737988E-18
 -0.867361737988E-18
  0.173472347598E-17
  0.173472347598E-17
  0.130104260698E-17
 -0.542101086243E-19
  0.542101086243E-19
  0.542101086243E-19
  0.000000000000E+00
  0.260208521397E-17
  0.520417042793E-17
  0.433680868994E-18
  0.867361737988E-18
 -0.867361737988E-18
  0.867361737988E-18
 -0.260208521397E-17
 -0.867361737988E-18
  0.173472347598E-17
 -0.867361737988E-18
  0.108420217249E-18
 -0.108420217249E-18
  0.325260651746E-18
  0.000000000000E+00
  0.346944695195E-17
 -0.867361737988E-18
 -0.173472347598E-17
  0.433680868994E-18
 -0.130104260698E-17
 -0.433680868994E-18
  0.108420217249E-18
  0.216840434497E-18
  0.173472347598E-17
 -0.867361737988E-18
 -0.433680868994E-18
 -0.325260651746E-18
 -0.607153216592E-17
 -0.346944695195E-17
 -0.260208521397E-17
  0.346944695195E-17
  0.433680868994E-17
 -0.867361737988E-18
  0.260208521397E-17
 -0.260208521397E-17
 -0.693889390391E-17
  0.216840434497E-18
 -0.216840434497E-18
 -0.433680868994E-18
  0.130104260698E-17
  0.130104260698E-17
  0.433680868994E-18
  0.000000000000E+00
 -0.520417042793E-17
 -0.346944695195E-17
  0.346944695195E-17
 -0.433680868994E-17
  0.346944695195E-17
  0.346944695195E-17
 -0.138777878078E-16
 -0.433680868994E-17
 -0.867361737988E-18
  0.260208521397E-17
  0.000000000000E+00
  0.173472347598E-17
 -0.216840434497E-18
  0.000000000000E+00
 -0.260208521397E-17
 -0.867361737988E-18
 -0.216840434497E-18
  0.000000000000E+00
  0.000000000000E+00
  0.260208521397E-17
  0.173472347598E-17
  0.607153216592E-17
 -0.433680868994E-17
  0.607153216592E-17
 -0.433680868994E-17
 -0.346944695195E-17
  0.867361737988E-18
  0.520417042793E-17
  0.433680868994E-17
  0.216840434497E-17
  0.650521303491E-18
  0.650521303491E-18
 -0.216840434497E-18
  0.650521303491E-18
 -0.693889390391E-17
  0.867361737988E-18
  0.260208521397E-17
  0.346944695195E-17
  0.173472347598E-17
  0.433680868994E-17
  0.867361737988E-18
  0.433680868994E-18
  0.000000000000E+00
  0.867361737988E-18
 -0.867361737988E-18
  0.867361737988E-18
  0.867361737988E-18
  0.607153216592E-17
 -0.867361737988E-18
  0.346944695195E-17
 -0.390312782095E-17
  0.173472347598E-17
  0.173472347598E-17
 -0.433680868994E-18
 -0.433680868994E-18
  0.173472347598E-17
  0.867361737988E-18
 -0.433680868994E-17
  0.433680868994E-18
  0.216840434497E-17
 -0.520417042793E-17
 -0.433680868994E-17
 -0.130104260698E-17
 -0.260208521397E-17
  0.193870456067E-25
  0.155096364854E-24
  0.000000000000E+00
 -0.433680868994E-17
  0.867361737988E-18
 -0.954097911787E-17
  0.346944695195E-17
 -0.173472347598E-17
  0.433680868994E-18
  0.433680868994E-18
 -0.867361737988E-18
  0.000000000000E+00
 -0.108420217249E-18
  0.542101086243E-19
 -0.542101086243E-19
 -0.108420217249E-18
 -0.104083408559E-16
 -0.433680868994E-17
 -0.867361737988E-18
  0.433680868994E-18
  0.693889390391E-17
 -0.260208521397E-17
 -0.173472347598E-17
  0.260208521397E-17
  0.867361737988E-17
 -0.260208521397E-17
  0.433680868994E-17
 -0.173472347598E-17
  0.303576608296E-17
  0.433680868994E-17
 -0.563785129692E-17
  0.000000000000E+00
  0.000000000000E+00
 -0.303576608296E-17
 -0.780625564190E-17
  0.780625564190E-17
 -0.693889390391E-17
 -0.346944695195E-17
  0.108420217249E-18
  0.000000000000E+00
 -0.216840434497E-17
 -0.867361737988E-18
 -0.867361737988E-18
  0.104083408559E-16
 -0.433680868994E-17
  0.867361737988E-17
 -0.260208521397E-17
  0.000000000000E+00
  0.173472347598E-17
 -0.216840434497E-17
 -0.108420217249E-18
  0.216840434497E-18
 -0.216840434497E-18
  0.000000000000E+00
  0.346944695195E-17
 -0.520417042793E-17
  0.867361737988E-18
  0.477048955894E-17
  0.173472347598E-17
 -0.130104260698E-17
 -0.607153216592E-17
 -0.173472347598E-17
  0.867361737988E-18
 -0.173472347598E-17
  0.650521303491E-18
  0.433680868994E-18
 -0.433680868994E-18
 -0.216840434497E-18
 -0.433680868994E-17
  0.867361737988E-17
  0.303576608296E-17
 -0.433680868994E-18
 -0.520417042793E-17
 -0.867361737988E-18
  0.173472347598E-17
 -0.433680868994E-17
  0.520417042793E-17
  0.867361737988E-18
 -0.433680868994E-18
 -0.216840434497E-18
  0.390312782095E-17
  0.520417042793E-17
 -0.260208521397E-17
  0.173472347598E-17
  0.000000000000E+00
 -0.216840434497E-18
 -0.520417042793E-17
 -0.173472347598E-17
 -0.563785129692E-17
  0.238524477947E-17
 -0.303576608296E-17
 -0.433680868994E-17
 -0.173472347598E-17
 -0.607153216592E-17
  0.433680868994E-17
  0.260208521397E-17
  0.173472347598E-17
 -0.260208521397E-17
  0.433680868994E-18
 -0.867361737988E-18
  0.867361737988E-18
 -0.173472347598E-17
 -0.650521303491E-18
  0.108420217249E-17
  0.780625564190E-17
 -0.954097911787E-17
  0.130104260698E-17
  0.433680868994E-17
  0.867361737988E-18
  0.346944695195E-17
  0.693889390391E-17
 -0.433680868994E-17
 -0.780625564190E-17
  0.000000000000E+00
 -0.216840434497E-17
  0.303576608296E-17
  0.173472347598E-17
  0.867361737988E-18
  0.867361737988E-18
  0.173472347598E-17
 -0.693889390391E-17
  0.173472347598E-17
  0.433680868994E-18
 -0.433680868994E-18
  0.867361737988E-18
  0.000000000000E+00
 -0.433680868994E-18
 -0.867361737988E-18
 -0.130104260698E-17
  0.867361737988E-18
 -0.433680868994E-18
  0.433680868994E-17
  0.433680868994E-17
  0.433680868994E-18
 -0.867361737988E-18
  0.000000000000E+00
  0.433680868994E-18
  0.433680868994E-18
  0.433680868994E-18
  0.000000000000E+00
 -0.173472347598E-17
 -0.260208521397E-17
 -0.258493941423E-25
 -0.103397576569E-24
  0.216840434497E-17
 -0.130104260698E-17
  0.000000000000E+00
  0.173472347598E-17
  0.433680868994E-17
  0.260208521397E-17
 -0.173472347598E-17
  0.260208521397E-17
 -0.433680868994E-18
 -0.433680868994E-18
 -0.108420217249E-18
 -0.542101086243E-19
  0.000000000000E+00
 -0.542101086243E-19
 -0.433680868994E-17
  0.520417042793E-17
 -0.433680868994E-18
  0.000000000000E+00
 -0.433680868994E-17
  0.607153216592E-17
  0.000000000000E+00
  0.000000000000E+00
 -0.108420217249E-18
  0.000000000000E+00
 -0.216840434497E-17
 -0.130104260698E-17
 -0.520417042793E-17
 -0.607153216592E-17
 -0.433680868994E-18
  0.867361737988E-18
  0.867361737988E-18
  0.693889390391E-17
  0.108420217249E-18
 -0.108420217249E-18
  0.000000000000E+00
  0.000000000000E+00
  0.130104260698E-17
 -0.433680868994E-18
 -0.433680868994E-18
 -0.433680868994E-18
 -0.867361737988E-18
  0.260208521397E-17
  0.520417042793E-17
  0.867361737988E-18
 -0.867361737988E-18
  0.130104260698E-17
 -0.607153216592E-17
  0.173472347598E-17
  0.867361737988E-18
  0.000000000000E+00
  0.303576608296E-17
  0.000000000000E+00
 -0.216840434497E-18
 -0.216840434497E-18
 -0.346944695195E-17
 -0.260208521397E-17
  0.433680868994E-18
 -0.433680868994E-18
 -0.867361737988E-18
  0.000000000000E+00
  0.216840434497E-17
  0.173472347598E-17
 -0.121430643318E-16
  0.520417042793E-17
 -0.130104260698E-17
 -0.433680868994E-18
 -0.325260651746E-17
 -0.542101086243E-17
  0.000000000000E+00