# vtk DataFile Version 3.0
MachLine results file. Generated by MachLine, USU AeroLab (c) 2022.
ASCII
DATASET POLYDATA
POINTS                 410 float
  0.224013459784E-08 -0.000000000000E+00  0.000000000000E+00
  0.682783179797E-02 -0.102714685452E-24  0.686367198317E-02
  0.171884711997E-01  0.763931866491E-02  0.000000000000E+00
  0.171884713000E-01 -0.763931843908E-02  0.000000000000E+00
  0.238990869230E-01  0.758722306809E-02  0.686367319092E-02
  0.238990869502E-01 -0.758722300704E-02  0.686367316393E-02
  0.271250762766E-01 -0.139629184364E-24  0.272674702875E-01
  0.438478858048E-01  0.743235772541E-02  0.272674718856E-01
  0.438478858907E-01 -0.743235753201E-02  0.272674718001E-01
  0.621884709445E-01  0.276393192390E-01  0.000000000000E+00
  0.621884711327E-01 -0.276393188157E-01  0.000000000000E+00
  0.603380784270E-01 -0.231660076404E-24  0.606548315787E-01
  0.685922160525E-01  0.274508365458E-01  0.686367338705E-02
  0.685922161679E-01 -0.274508362860E-01  0.686367327219E-02
  0.764907164094E-01  0.717894742033E-02  0.606548331580E-01
  0.764907164582E-01 -0.717894731054E-02  0.606548331095E-01
  0.876287735668E-01  0.268905305390E-01  0.272674720609E-01
  0.876287737088E-01 -0.268905302194E-01  0.272674719196E-01
  0.117811530003E+00  0.523606786300E-01  0.000000000000E+00
  0.117811530067E+00 -0.523606784858E-01  0.000000000000E+00
  0.105560874740E+00  0.662622629188E-24  0.106115035069E+00
  0.123835961975E+00  0.520036126522E-01  0.686367343903E-02
  0.123835961964E+00 -0.520036126775E-01  0.686367345023E-02
  0.118778875670E+00  0.259736852497E-01  0.606548332983E-01
  0.118778875784E+00 -0.259736849937E-01  0.606548331851E-01
  0.129142093473E+00  0.104805383877E-01  0.106115036848E+00
  0.129142093483E+00 -0.104805383650E-01  0.106115036838E+00
  0.141744926970E+00  0.509421548231E-01  0.272674722637E-01
  0.141744927277E+00 -0.509421541314E-01  0.272674719579E-01
  0.162811529977E+00  0.723606786889E-01  0.000000000000E+00
  0.162811529931E+00 -0.723606787916E-01  0.000000000000E+00
  0.168529091207E+00  0.718672259001E-01  0.686367353364E-02
  0.168529091430E+00 -0.718672253982E-01  0.686367331174E-02
  0.180000000190E+00  0.799999987472E-01  0.000000000000E+00
  0.180000000249E+00 -0.799999983572E-01  0.000000000000E+00
  0.171049915206E+00  0.492052587257E-01  0.606548334274E-01
  0.171049915295E+00 -0.492052585239E-01  0.606548333381E-01
  0.161559905218E+00 -0.617024400904E-24  0.162408044915E+00
  0.185600347300E+00  0.794544502534E-01  0.686367367994E-02
  0.185600347220E+00 -0.794544507749E-01  0.686367378593E-02
  0.185525814886E+00  0.704003272884E-01  0.272674722851E-01
  0.185525815025E+00 -0.704003269767E-01  0.272674721473E-01
  0.190279555871E+00  0.789971151181E-01  0.000000000000E+00
  0.190279555879E+00 -0.789971152004E-01  0.000000000000E+00
  0.195809802967E+00  0.784584057865E-01  0.686367406280E-02
  0.195809802957E+00 -0.784584056920E-01  0.686367406281E-02
  0.186072195615E+00  0.357828067039E-01  0.106115037106E+00
  0.186072195753E+00 -0.357828063939E-01  0.106115036969E+00
  0.202248625442E+00  0.778326879962E-01  0.272674727744E-01
  0.202248625485E+00 -0.778326877115E-01  0.272674727166E-01
  0.183666800973E+00  0.982528343415E-02  0.162408047075E+00
  0.183666800994E+00 -0.982528338648E-02  0.162408047054E+00
  0.212249693632E+00  0.768569734783E-01  0.272674731145E-01
  0.212249693634E+00 -0.768569735004E-01  0.272674731145E-01
  0.220602763963E+00  0.760387526959E-01  0.000000000000E+00
  0.220602764023E+00 -0.760387533084E-01  0.000000000000E+00
  0.213338074489E+00  0.679999965041E-01  0.606548335451E-01
  0.213338074676E+00 -0.679999960840E-01  0.606548333593E-01
  0.225926226583E+00  0.755202179158E-01  0.686367406283E-02
  0.225926226647E+00 -0.755202185746E-01  0.686367406275E-02
  0.229490713204E+00  0.751789473147E-01  0.606548342345E-01
  0.229490713219E+00 -0.751789471781E-01  0.606548342110E-01
  0.241751404247E+00  0.739787576918E-01  0.272674731145E-01
  0.241751404241E+00 -0.739787576338E-01  0.272674731145E-01
  0.240686601345E+00  0.740866652877E-01  0.606548347057E-01
  0.240686601301E+00 -0.740866648367E-01  0.606548347057E-01
  0.243002297898E+00  0.610850747033E-01  0.106115037223E+00
  0.243002298023E+00 -0.610850744235E-01  0.106115037099E+00
  0.226807661726E+00  0.852517744005E-24  0.227998335110E+00
  0.237037573591E+00  0.335456273020E-01  0.162408047253E+00
  0.237037573625E+00 -0.335456272250E-01  0.162408047219E+00
  0.269449091980E+00  0.712732571716E-01  0.000000000000E+00
  0.269449092042E+00 -0.712732578054E-01  0.000000000000E+00
  0.274439454507E+00  0.707872202763E-01  0.686367406280E-02
  0.274439454530E+00 -0.707872205126E-01  0.686367406277E-02
  0.247196737660E+00  0.906180771674E-02  0.227998337307E+00
  0.247196737680E+00 -0.906180767247E-02  0.227998337287E+00
  0.266583517354E+00  0.715656171739E-01  0.106115038095E+00
  0.266583517389E+00 -0.715656168620E-01  0.106115038041E+00
  0.273623603177E+00  0.708732990113E-01  0.606548347057E-01
  0.273623603205E+00 -0.708732992924E-01  0.606548347056E-01
  0.277241296789E+00  0.705258331177E-01  0.106115038646E+00
  0.277241296797E+00 -0.705258332062E-01  0.106115038646E+00
  0.289274417940E+00  0.693423667126E-01  0.272674731144E-01
  0.289274417874E+00 -0.693423660353E-01  0.272674731145E-01
  0.290408346170E+00  0.572659712538E-01  0.162408047468E+00
  0.290408346269E+00 -0.572659710327E-01  0.162408047370E+00
  0.308595245917E+00  0.674669118207E-01  0.106115038646E+00
  0.308595245898E+00 -0.674669116252E-01  0.106115038646E+00
  0.296420326485E+00  0.309389587063E-01  0.227998337455E+00
  0.296420326496E+00 -0.309389586829E-01  0.227998337445E+00
  0.334369181007E+00  0.649395897052E-01  0.000000000000E+00
  0.334369181044E+00 -0.649395900828E-01  0.000000000000E+00
  0.326387539409E+00  0.657255987784E-01  0.606548347056E-01
  0.326387539398E+00 -0.657255986672E-01  0.606548347056E-01
  0.312515242903E+00  0.670912591294E-01  0.162408048436E+00
  0.312515242932E+00 -0.670912588704E-01  0.162408048391E+00
  0.338916830809E+00  0.644967440336E-01  0.686367406286E-02
  0.338916830860E+00 -0.644967445518E-01  0.686367406280E-02
  0.299524355720E+00 -0.000000000000E+00  0.301096773357E+00
  0.324231398759E+00  0.659482194661E-01  0.162408049079E+00
  0.324231398717E+00 -0.659482190333E-01  0.162408049080E+00
  0.352435732263E+00  0.631802874810E-01  0.272674731144E-01
  0.352435732219E+00 -0.631802870290E-01  0.272674731144E-01
  0.317998972584E+00  0.821093661115E-02  0.301096775296E+00
  0.317998972568E+00 -0.821093664783E-02  0.301096775312E+00
  0.358823186358E+00  0.625666251628E-01  0.106115038646E+00
  0.358823186369E+00 -0.625666252735E-01  0.106115038646E+00
  0.345643915199E+00  0.528161099475E-01  0.227998337714E+00
  0.345643915318E+00 -0.528161096789E-01  0.227998337595E+00
  0.358581431994E+00  0.625969968509E-01  0.162408049079E+00
  0.358581431938E+00 -0.625969962815E-01  0.162408049080E+00
  0.366032992062E+00  0.618779224327E-01  0.227998338755E+00
  0.366032992140E+00 -0.618779217483E-01  0.227998338637E+00
  0.395911961684E+00  0.589427284793E-01  0.606548347056E-01
  0.395911961668E+00 -0.589427283161E-01  0.606548347056E-01
  0.362600647802E+00  0.280339035883E-01  0.301096775374E+00
  0.362600647768E+00 -0.280339036653E-01  0.301096775409E+00
  0.412107666646E+00  0.573553463301E-01  0.000000000000E+00
  0.412107666709E+00 -0.573553469732E-01  0.000000000000E+00
  0.378878756568E+00  0.606246771072E-01  0.227998339425E+00
  0.378878756500E+00 -0.606246764101E-01  0.227998339426E+00
  0.416125190662E+00  0.569642204828E-01  0.686367406294E-02
  0.416125190650E+00 -0.569642203613E-01  0.686367406295E-02
  0.428068175150E+00  0.558015120816E-01  0.272674731144E-01
  0.428068175139E+00 -0.558015119742E-01  0.272674731144E-01
  0.377726465885E+00 -0.160007641997E-24  0.379709424277E+00
  0.413224443797E+00  0.572659713413E-01  0.162408049079E+00
  0.413224443829E+00 -0.572659716648E-01  0.162408049079E+00
  0.425006052828E+00  0.561097604349E-01  0.106115038646E+00
  0.425006052898E+00 -0.561097611543E-01  0.106115038646E+00
  0.416375365030E+00  0.569664714931E-01  0.227998339425E+00
  0.416375364967E+00 -0.569664708506E-01  0.227998339426E+00
  0.407202323012E+00  0.478568705807E-01  0.301096775460E+00
  0.407202322826E+00 -0.478568709997E-01  0.301096775645E+00
  0.405749887339E+00  0.124548496162E-01  0.379709426273E+00
  0.405749887176E+00 -0.124548499813E-01  0.379709426434E+00
  0.425676940249E+00  0.560678124298E-01  0.301096776758E+00
  0.425676940268E+00 -0.560678122611E-01  0.301096776729E+00
  0.439740730007E+00  0.546957352826E-01  0.301096777544E+00
  0.439740729980E+00 -0.546957350022E-01  0.301096777544E+00
  0.478156363294E+00  0.509188838947E-01  0.606548347056E-01
  0.478156363381E+00 -0.509188847906E-01  0.606548347055E-01
  0.498766416667E+00  0.489008331432E-01  0.000000000000E+00
  0.498766416722E+00 -0.489008337120E-01  0.000000000000E+00
  0.502192984494E+00  0.485673616779E-01  0.686367406304E-02
  0.502192984539E+00 -0.485673621455E-01  0.686367406299E-02
  0.484436603279E+00  0.503184441649E-01  0.162408049079E+00
  0.484436603330E+00 -0.503184446874E-01  0.162408049079E+00
  0.475485064437E+00  0.511996719357E-01  0.227998339425E+00
  0.475485064396E+00 -0.511996715176E-01  0.227998339425E+00
  0.512379220130E+00  0.475760434508E-01  0.272674731145E-01
  0.512379220164E+00 -0.475760438057E-01  0.272674731145E-01
  0.461796734228E+00  0.373645594333E-01  0.379709426305E+00
  0.461796733947E+00 -0.373645600655E-01  0.379709426585E+00
  0.503297537608E+00  0.484715662800E-01  0.106115038646E+00
  0.503297537783E+00 -0.484715680784E-01  0.106115038646E+00
  0.480555440356E+00  0.507138124269E-01  0.301096777544E+00
  0.480555440343E+00 -0.507138122935E-01  0.301096777544E+00
  0.459280842669E+00 -0.000000000000E+00  0.461691939524E+00
  0.489820155924E+00  0.498194147411E-01  0.379709427779E+00
[...]
POINT_DATA                 410
SCALARS phi float 1
LOOKUP_TABLE default
  0.103397576569E-24
  0.000000000000E+00
  0.433680868994E-18
  0.433680868994E-18
  0.433680868994E-18
  0.000000000000E+00
  0.325260651746E-18
 -0.173472347598E-17
 -0.173472347598E-17
  0.000000000000E+00
 -0.867361737988E-18
 -0.433680868994E-18
 -0.173472347598E-17
 -0.173472347598E-17
  0.000000000000E+00
 -0.346944695195E-17
  0.000000000000E+00
  0.173472347598E-17
  0.104083408559E-16
  0.346944695195E-17
  0.000000000000E+00
  0.000000000000E+00
  0.346944695195E-17
 -0.346944695195E-17
  0.173472347598E-17
  0.173472347598E-17
 -0.173472347598E-17
  0.000000000000E+00
 -0.693889390391E-17
 -0.693889390391E-17
 -0.693889390391E-17
 -0.346944695195E-17
  0.000000000000E+00
  0.346944695195E-17
  0.346944695195E-17
  0.208166817117E-16
  0.000000000000E+00
 -0.867361737988E-18
  0.000000000000E+00
  0.000000000000E+00
  0.000000000000E+00
 -0.346944695195E-17
 -0.346944695195E-17
  0.693889390391E-17
  0.104083408559E-16
 -0.693889390391E-17
  0.000000000000E+00
 -0.346944695195E-17
 -0.346944695195E-17
 -0.693889390391E-17
  0.000000000000E+00
  0.346944695195E-17
  0.000000000000E+00
 -0.138777878078E-16
 -0.104083408559E-16
 -0.104083408559E-16
  0.000000000000E+00
 -0.346944695195E-17
  0.104083408559E-16
 -0.208166817117E-16
  0.693889390391E-17
  0.242861286637E-16
 -0.693889390391E-17
 -0.693889390391E-17
 -0.693889390391E-17
  0.693889390391E-17
  0.138777878078E-16
  0.000000000000E+00
  0.867361737988E-18
 -0.693889390391E-17
 -0.693889390391E-17
 -0.104083408559E-16
  0.693889390391E-17
 -0.208166817117E-16
  0.000000000000E+00
 -0.693889390391E-17
 -0.346944695195E-17
  0.346944695195E-16
 -0.693889390391E-17
  0.693889390391E-17
 -0.693889390391E-17
  0.277555756156E-16
  0.138777878078E-16
  0.138777878078E-16
 -0.208166817117E-16
 -0.138777878078E-16
 -0.138777878078E-16
  0.277555756156E-16
 -0.693889390391E-17
  0.000000000000E+00
 -0.138777878078E-16
 -0.208166817117E-16
 -0.693889390391E-17
  0.138777878078E-16
 -0.104083408559E-16
 -0.693889390391E-17
  0.693889390391E-17
  0.000000000000E+00
  0.000000000000E+00
 -0.346944695195E-17
 -0.416333634234E-16
  0.277555756156E-16
 -0.104083408559E-16
  0.208166817117E-16
  0.000000000000E+00
  0.693889390391E-17
  0.693889390391E-17
  0.173472347598E-16
  0.000000000000E+00
  0.208166817117E-16
 -0.138777878078E-16
 -0.346944695195E-16
  0.000000000000E+00
  0.000000000000E+00
  0.173472347598E-16
 -0.242861286637E-16
  0.138777878078E-16
  0.138777878078E-16
  0.104083408559E-16
  0.104083408559E-16
 -0.346944695195E-16
  0.138777878078E-16
 -0.693889390391E-17
  0.173472347598E-16
 -0.208166817117E-16
  0.000000000000E+00
 -0.346944695195E-17
  0.693889390391E-17
  0.277555756156E-16
 -0.208166817117E-16
  0.104083408559E-16
  0.277555756156E-16
  0.000000000000E+00
  0.138777878078E-16
 -0.138777878078E-16
 -0.138777878078E-16
 -0.693889390391E-17
  0.138777878078E-16
 -0.693889390391E-17
  0.000000000000E+00
 -0.346944695195E-16
 -0.242861286637E-16
 -0.173472347598E-16
 -0.104083408559E-16
 -0.312250225676E-16
  0.173472347598E-16
 -0.693889390391E-17
  0.242861286637E-16
 -0.242861286637E-16
  0.000000000000E+00
  0.000000000000E+00
  0.346944695195E-17
 -0.208166817117E-16
 -0.277555756156E-16
 -0.277555756156E-16
  0.242861286637E-16
 -0.346944695195E-17
  0.693889390391E-17
 -0.138777878078E-16
  0.346944695195E-17
 -0.693889390391E-17
 -0.208166817117E-16
 -0.138777878078E-16
  0.693889390391E-17
 -0.693889390391E-17
  0.000000000000E+00
 -0.346944695195E-17
 -0.346944695195E-17
 -0.104083408559E-16
  0.346944695195E-17
  0.000000000000E+00
  0.138777878078E-16
 -0.173472347598E-17
  0.346944695195E-17
  0.104083408559E-16
  0.138777878078E-16
 -0.208166817117E-16
 -0.346944695195E-17
 -0.693889390391E-17
 -0.346944695195E-16
 -0.693889390391E-17
 -0.104083408559E-16
 -0.225514051877E-16
  0.138777878078E-16
 -0.208166817117E-16
 -0.693889390391E-17
 -0.693889390391E-17
  0.346944695195E-16
  0.208166817117E-16
  0.693889390391E-17
  0.277555756156E-16
 -0.555111512313E-16
 -0.693889390391E-17
 -0.346944695195E-17
 -0.346944695195E-16
  0.173472347598E-17
 -0.867361737988E-17
  0.173472347598E-17
 -0.173472347598E-17
  0.693889390391E-17
 -0.416333634234E-16
 -0.173472347598E-16
  0.173472347598E-17
 -0.173472347598E-17
  0.520417042793E-17
  0.121430643318E-16
  0.121430643318E-16
  0.867361737988E-17
  0.000000000000E+00
  0.260208521397E-17
 -0.433680868994E-17
  0.000000000000E+00
  0.346944695195E-16
  0.000000000000E+00
  0.693889390391E-17
 -0.693889390391E-17
  0.000000000000E+00
  0.693889390391E-17
  0.693889390391E-17
  0.138777878078E-16
  0.104083408559E-16
 -0.346944695195E-17
  0.867361737988E-17
 -0.121430643318E-16
  0.000000000000E+00
 -0.216840434497E-17
  0.780625564190E-17
 -0.867361737988E-17
 -0.216840434497E-17
 -0.346944695195E-17
 -0.520417042793E-17
 -0.520417042793E-17
 -0.108420217249E-17
  0.433680868994E-18
  0.902056207508E-16
 -0.138777878078E-16
 -0.108420217249E-17
 -0.650521303491E-18
 -0.867361737988E-18
  0.000000000000E+00
 -0.693889390391E-17
  0.138777878078E-16
  0.346944695195E-17
 -0.346944695195E-16
 -0.346944695195E-17
 -0.277555756156E-16
 -0.138777878078E-16
  0.416333634234E-16
  0.138777878078E-16
  0.433680868994E-18
  0.433680868994E-18
  0.173472347598E-17
 -0.433680868994E-17
  0.260208521397E-17
 -0.346944695195E-17
 -0.216840434497E-18
 -0.281892564846E-17
  0.000000000000E+00
 -0.780625564190E-17
  0.433680868994E-18
 -0.130104260698E-17
  0.346944695195E-17
  0.000000000000E+00
 -0.130104260698E-17
  0.216840434497E-17
  0.000000000000E+00
 -0.867361737988E-17
  0.520417042793E-17
 -0.260208521397E-17
  0.208166817117E-16
 -0.208166817117E-16
  0.138777878078E-16
  0.138777878078E-16
 -0.138777878078E-16
 -0.138777878078E-16
 -0.346944695195E-17
 -0.693889390391E-17
 -0.173472347598E-17
  0.173472347598E-17
  0.346944695195E-17
 -0.121430643318E-16
 -0.693889390391E-17
 -0.173472347598E-16
  0.173472347598E-17
 -0.693889390391E-17
  0.277555756156E-16
 -0.104083408559E-16
  0.173472347598E-17
 -0.867361737988E-17
  0.156125112838E-16
  0.000000000000E+00
  0.780625564190E-17
 -0.607153216592E-17
  0.867361737988E-18
 -0.867361737988E-18
  0.260208521397E-17
  0.277555756156E-16
 -0.138777878078E-16
  0.199493199737E-16
 -0.260208521397E-17
  0.208166817117E-16
  0.138777878078E-16
  0.104083408559E-16
 -0.867361737988E-17
  0.346944695195E-17
  0.693889390391E-17
  0.121430643318E-16
  0.104083408559E-16
 -0.346944695195E-17
  0.346944695195E-17
 -0.138777878078E-16
  0.000000000000E+00
  0.346944695195E-16
  0.173472347598E-17
  0.867361737988E-17
  0.000000000000E+00
 -0.173472347598E-17
  0.433680868994E-17
  0.693889390391E-17
  0.693889390391E-17
  0.173472347598E-17
 -0.208166817117E-16
 -0.156125112838E-16
 -0.190819582357E-16
 -0.693889390391E-17
 -0.520417042793E-17
 -0.121430643318E-16
  0.693889390391E-17
  0.000000000000E+00
 -0.693889390391E-17
 -0.416333634234E-16
 -0.121430643318E-16
  0.173472347598E-17
  0.000000000000E+00
 -0.693889390391E-17
  0.138777878078E-16
 -0.346944695195E-17
  0.277555756156E-16
  0.346944695195E-17
 -0.242861286637E-16
 -0.520417042793E-16
 -0.173472347598E-16
  0.312250225676E-16
  0.000000000000E+00
  0.000000000000E+00
  0.151788304148E-17
  0.216840434497E-18
 -0.260208521397E-16
  0.121430643318E-16
  0.138777878078E-16
 -0.173472347598E-16
  0.156125112838E-16
  0.242861286637E-16
 -0.277555756156E-16
 -0.104083408559E-16
 -0.693889390391E-17
  0.346944695195E-17
  0.173472347598E-17
  0.485722573274E-16
 -0.346944695195E-17
  0.000000000000E+00
  0.173472347598E-17
 -0.433680868994E-17
  0.164798730218E-16
  0.242861286637E-16
  0.208166817117E-16
 -0.208166817117E-16
  0.520417042793E-17
 -0.277555756156E-16
 -0.693889390391E-17
 -0.173472347598E-17
  0.693889390391E-17
  0.208166817117E-16
  0.416333634234E-16
  0.000000000000E+00
 -0.156125112838E-16
 -0.130104260698E-17
  0.260208521397E-17
  0.242861286637E-16
  0.156125112838E-16
  0.867361737988E-17
 -0.121430643318E-16
 -0.520417042793E-17
 -0.138777878078E-16
 -0.693889390391E-17
  0.000000000000E+00
 -0.693889390391E-17
  0.346944695195E-17
  0.520417042793E-17
 -0.650521303491E-18
 -0.108420217249E-17
  0.000000000000E+00
  0.000000000000E+00
 -0.693889390391E-17
 -0.346944695195E-16
  0.138777878078E-16
  0.867361737988E-17
  0.693889390391E-17
 -0.451028103754E-16
  0.693889390391E-17
  0.138777878078E-16
  0.138777878078E-16
  0.346944695195E-16
 -0.693889390391E-17
  0.000000000000E+00
  0.693889390391E-17
  0.555111512313E-16
 -0.693889390391E-17
 -0.693889390391E-17
 -0.208166817117E-16
SCALARS phi_mu float 1
LOOKUP_TABLE default
  0.282046923747E-09
  0.230178442147E-03
  0.197899022039E-02
  0.197899049864E-02
  0.309510471828E-02
  0.309510471968E-02
  0.914390409192E-03
  0.537071904866E-02
  0.537071905692E-02
  0.716004785841E-02
  0.716004843966E-02
  0.203397790511E-02
  0.844543459799E-02
  0.844543461889E-02
  0.810787705737E-02
  0.810787706915E-02
  0.113733728077E-01
  0.113733728144E-01
  0.135641883335E-01
  0.135641885392E-01
  0.355840696969E-02
  0.148921745826E-01
  0.148921745794E-01
  0.151628824049E-01
  0.151628824112E-01
  0.131278982287E-01
  0.131278982315E-01
  0.180373475899E-01
  0.180373476173E-01
  0.187452465289E-01
  0.187452463781E-01
  0.200786773709E-01
  0.200786774468E-01
  0.207242347017E-01
  0.207242351977E-01
  0.222391503205E-01
  0.222391503242E-01
  0.544609536516E-02
  0.220565059487E-01
  0.220565058858E-01
  0.232810548129E-01
  0.232810548300E-01
  0.219291778698E-01
  0.219291778494E-01
  0.223654616245E-01
  0.223654616464E-01
  0.233147633528E-01
  0.233147633629E-01
  0.252670961844E-01
  0.252670961935E-01
  0.164416373013E-01
  0.164416373104E-01
  0.242702624625E-01
  0.242702624577E-01
  0.237928368080E-01
  0.237928366950E-01
  0.276199384975E-01
  0.276199385073E-01
  0.240335581354E-01
  0.240335580159E-01
  0.296342997729E-01
  0.296342997720E-01
  0.250901769615E-01
  0.250901769717E-01
  0.275822669964E-01
  0.275822670905E-01
  0.314481802118E-01
  0.314481802171E-01
  0.764554659011E-02
  0.279380702738E-01
  0.279380702784E-01
  0.260066977250E-01
  0.260066976205E-01
  0.261987346357E-01
  0.261987345970E-01
  0.196350640861E-01
  0.196350640973E-01
  0.346205626856E-01
  0.346205626795E-01
  0.273229172611E-01
  0.273229172129E-01
  0.324190720299E-01
  0.324190720104E-01
  0.269327488709E-01
  0.269327489808E-01
  0.365348179208E-01
  0.365348179276E-01
  0.302699405261E-01
  0.302699405602E-01
  0.323569334254E-01
  0.323569334276E-01
  0.286609936640E-01
  0.286609936043E-01
  0.288406301727E-01
  0.288406301906E-01
  0.398008217610E-01
  0.398008217555E-01
  0.288301999859E-01
  0.288301999042E-01
  0.100967667539E-01
  0.374730887237E-01
  0.374730888161E-01
  0.294151715618E-01
  0.294151716328E-01
  0.226225125829E-01
  0.226225125711E-01
  0.309583730421E-01
  0.309583730241E-01
  0.414421184143E-01
  0.414421184283E-01
  0.337809000221E-01
  0.337809001239E-01
  0.448102139454E-01
  0.448102139341E-01
  0.289262362842E-01
  0.289262362943E-01
  0.363362033550E-01
  0.363362033448E-01
  0.280599161318E-01
  0.280599161028E-01
  0.424412827205E-01
  0.424412828672E-01
  0.277189653522E-01
  0.277189653576E-01
  0.268450472444E-01
  0.268450472487E-01
  0.127328982997E-01
  0.326815761249E-01
  0.326815761000E-01
  0.283944917487E-01
  0.283944917128E-01
  0.374973331092E-01
  0.374973332282E-01
  0.458662599670E-01
  0.458662599335E-01
  0.304698922923E-01
  0.304698921873E-01
  0.493299411025E-01
  0.493299411011E-01
  0.470154186071E-01
  0.470154186658E-01
  0.236239712537E-01
  0.236239712275E-01
  0.222378102720E-01
  0.222378102586E-01
  0.219203762617E-01
  0.219203762508E-01
  0.259976952385E-01
  0.259976952209E-01
  0.318145856829E-01
  0.318145857015E-01
  0.210661589449E-01
  0.210661589368E-01
  0.469023446922E-01
  0.469023446118E-01
  0.224801638338E-01
  0.224801637858E-01
  0.411951516520E-01
  0.411951516777E-01
  0.154820361499E-01
  0.530926410429E-01
  0.530926410439E-01
  0.329255918573E-01
  0.329255919119E-01
  0.509458779132E-01
  0.509458779716E-01
  0.169598630258E-01
  0.169598630016E-01
  0.229521981752E-01
  0.229521981755E-01
  0.298503999757E-01
  0.298503999706E-01
  0.154692705157E-01
  0.154692705040E-01
  0.187171997694E-01
  0.187171997645E-01
  0.152012453717E-01
  0.152012453616E-01
  0.496465857638E-01
  0.496465857406E-01
  0.157685455112E-01
  0.157685454921E-01
  0.144636930175E-01
  0.144636930037E-01
  0.446938340912E-01
  0.446938340172E-01
  0.182691813345E-01
  0.558886169886E-01
  0.558886169731E-01
  0.534516191306E-01
  0.534516188094E-01
  0.441393249764E-01
  0.441393247403E-01
  0.193787156787E-01
  0.193787156888E-01
  0.985903028972E-02
  0.985903028239E-02
  0.145683402382E-01
  0.145683402454E-01
  0.270882897145E-01
  0.270882896991E-01
  0.112691298205E-01
  0.112691298334E-01
  0.849755372350E-02
  0.849755371342E-02
  0.828150366857E-02
  0.828150365849E-02
  0.882016168004E-02
  0.882016167171E-02
  0.768138871493E-02
  0.768138870510E-02
  0.575690851397E-01
  0.575690850886E-01
  0.360454301201E-01
  0.360454300956E-01
  0.210183099717E-01
  0.562156747145E-01
  0.562156743054E-01
  0.451041305787E-01
  0.451041302681E-01
  0.154011238379E-01
  0.154011238130E-01
  0.101624395180E-01
  0.101624395240E-01
  0.287950233504E-02
  0.287950233665E-02
  0.657748236198E-02
  0.657748238208E-02
  0.179667184490E-02
  0.179667183342E-02
  0.400691342951E-02
  0.400691343751E-02
  0.162999720653E-02
  0.162999719823E-02
  0.413297477574E-01
  0.413297476851E-01
  0.116650466446E-02
  0.116650465650E-02
  0.207061986855E-02
  0.207061986593E-02
  0.580479059399E-01
  0.580479058542E-01
  0.179112555634E-01
  0.179112555236E-01
  0.236544398982E-01
  0.569446533441E-01
  0.569446528661E-01
  0.452316918019E-01
  0.452316919276E-01
 -0.351918391523E-02
 -0.351918392259E-02
 -0.424731908246E-02
 -0.424731909421E-02
  0.569685284591E-02
  0.569685282417E-02
  0.191686964998E-02
  0.191686965365E-02
 -0.437000850231E-02
 -0.437000851149E-02
 -0.752715335625E-03
 -0.752715320995E-03
  0.198244958357E-01
  0.198244958018E-01
 -0.266949586181E-02
 -0.266949586536E-02
 -0.470901771861E-02
 -0.470901772717E-02
 -0.408235363885E-02
 -0.408235364451E-02
  0.573034457712E-01
  0.573034456832E-01
  0.261056453624E-01
  0.266664918636E-01
  0.266664918140E-01
  0.536020079148E-02
  0.536020075699E-02
 -0.930858757894E-02
 -0.930858758960E-02
 -0.939478062192E-02
 -0.939478063097E-02
 -0.894194477863E-02
 -0.894194479166E-02
 -0.962922874025E-02
 -0.962922874991E-02
  0.445824835748E-01
  0.445824835789E-01
 -0.928150488593E-02
 -0.928150489770E-02
 -0.835996679737E-02
 -0.835996680653E-02
 -0.702939346755E-02
 -0.702939346223E-02
 -0.511196465454E-02
 -0.511196465643E-02
 -0.238195195099E-02
 -0.238195196317E-02
  0.553817536021E-01
  0.553817535230E-01
  0.708168384005E-02
  0.708168382276E-02
 -0.131222474459E-01
 -0.131222474550E-01
 -0.131810995304E-01
 -0.131810995382E-01
 -0.133367010958E-01
 -0.133367011026E-01
 -0.130627317613E-01
 -0.130627317710E-01
  0.283050891774E-01
 -0.132260182158E-01
 -0.132260182230E-01
  0.486762187692E-01
  0.486762187672E-01
 -0.127081201749E-01
 -0.127081201769E-01
 -0.118532965711E-01
 -0.118532965794E-01
 -0.397982955460E-02
 -0.397982956651E-02
  0.778254378429E-02
  0.778254379148E-02
 -0.154915176302E-01
 -0.154915176354E-01
 -0.105267818307E-01
 -0.105267818228E-01
 -0.155334242063E-01
 -0.155334242144E-01
 -0.156400447580E-01
 -0.156400447622E-01
  0.524023028335E-01
  0.524023029921E-01
 -0.857500319587E-02
 -0.857500320210E-02
 -0.156367493799E-01
 -0.156367493867E-01
 -0.162949707918E-01
 -0.162949707666E-01
 -0.163311246521E-01
 -0.163311246521E-01
 -0.164211403703E-01
 -0.164211403692E-01
 -0.156878145695E-01
 -0.156878145711E-01
 -0.165119482974E-01
 -0.165119482974E-01
 -0.192778392126E-02
 -0.192778392280E-02
 -0.154352634258E-01
 -0.154352634298E-01
 -0.165245422891E-01
 -0.165245422883E-01
 -0.148927885244E-01
 -0.148927885261E-01
 -0.163645046836E-01
 -0.163645046836E-01
  0.301927698015E-01
 -0.139504755945E-01
 -0.139504755913E-01
 -0.159310214912E-01
 -0.159310214912E-01
 -0.124943259853E-01
 -0.124943259895E-01
  0.773757161684E-02
  0.773757161102E-02
 -0.151224878288E-01
 -0.151224878288E-01
 -0.992120993771E-02
 -0.992120993544E-02
  0.485683536659E-01
  0.485683533370E-01
 -0.138379096932E-01
 -0.138379096932E-01
  0.389480442972E-01
  0.389480442753E-01
 -0.750725625153E-02
 -0.750725624318E-02
 -0.253048737285E-02
 -0.253048735370E-02
 -0.119734486966E-01
 -0.119734486966E-01
  0.139463904069E-01
  0.139463903989E-01
 -0.941222110074E-02
 -0.941222110029E-02
  0.317171862628E-01
  0.441860788524E-01
  0.441860786260E-01
 -0.600172349099E-02
 -0.600172349099E-02
 -0.150186522993E-02
 -0.150186522993E-02
  0.455919493878E-02
  0.455919493941E-02
  0.328367734480E-01
  0.397025838166E-01
  0.397025832645E-01
  0.135146960407E-01
  0.135146960407E-01
  0.293517568441E-01
  0.293517568441E-01
  0.397310222058E-01
  0.397310222058E-01
  0.335209745146E-01
  0.358050436097E-01
  0.358407900456E-01
  0.424694817735E-01
  0.424694817735E-01
  0.388515186070E-01
  0.388515186074E-01
  0.338640204101E-01
SCALARS phi_sigma float 1
LOOKUP_TABLE default
 -0.282046923747E-09
 -0.230178442147E-03
 -0.197899022039E-02
 -0.197899049864E-02
 -0.309510471828E-02
 -0.309510471968E-02
 -0.914390409192E-03
 -0.537071904866E-02
 -0.537071905692E-02
 -0.716004785841E-02
 -0.716004843966E-02
 -0.203397790511E-02
 -0.844543459799E-02
 -0.844543461889E-02
 -0.810787705737E-02
 -0.810787706915E-02
 -0.113733728077E-01
 -0.113733728144E-01
 -0.135641883335E-01
 -0.135641885392E-01
 -0.355840696969E-02
 -0.148921745826E-01
 -0.148921745794E-01
 -0.151628824049E-01
 -0.151628824112E-01
 -0.131278982287E-01
 -0.131278982315E-01
 -0.180373475899E-01
 -0.180373476173E-01
 -0.187452465289E-01
 -0.187452463781E-01
 -0.200786773709E-01
 -0.200786774468E-01
 -0.207242347017E-01
 -0.207242351977E-01
 -0.222391503205E-01
 -0.222391503242E-01
 -0.544609536516E-02
 -0.220565059487E-01
 -0.220565058858E-01
 -0.232810548129E-01
 -0.232810548300E-01
 -0.219291778698E-01
 -0.219291778494E-01
 -0.223654616245E-01
 -0.223654616464E-01
 -0.233147633528E-01
 -0.233147633629E-01
 -0.252670961844E-01
 -0.252670961935E-01
 -0.164416373013E-01
 -0.164416373104E-01
 -0.242702624625E-01
 -0.242702624577E-01
 -0.237928368080E-01
 -0.237928366950E-01
 -0.276199384975E-01
 -0.276199385073E-01
 -0.240335581354E-01
 -0.240335580159E-01
 -0.296342997729E-01
 -0.296342997720E-01
 -0.250901769615E-01
 -0.250901769717E-01
 -0.275822669964E-01
 -0.275822670905E-01
 -0.314481802118E-01
 -0.314481802171E-01
 -0.764554659011E-02
 -0.279380702738E-01
 -0.279380702784E-01
 -0.260066977250E-01
 -0.260066976205E-01
 -0.261987346357E-01
 -0.261987345970E-01
 -0.196350640861E-01
 -0.196350640973E-01
 -0.346205626856E-01
 -0.346205626795E-01
 -0.273229172611E-01
 -0.273229172129E-01
 -0.324190720299E-01
 -0.324190720104E-01
 -0.269327488709E-01
 -0.269327489808E-01
 -0.365348179208E-01
 -0.365348179276E-01
 -0.302699405261E-01
 -0.302699405602E-01
 -0.323569334254E-01
 -0.323569334276E-01
 -0.286609936640E-01
 -0.286609936043E-01
 -0.288406301727E-01
 -0.288406301906E-01
 -0.398008217610E-01
 -0.398008217555E-01
 -0.288301999859E-01
 -0.288301999042E-01
 -0.100967667539E-01
 -0.374730887237E-01
 -0.374730888161E-01
 -0.294151715618E-01
 -0.294151716328E-01
 -0.226225125829E-01
 -0.226225125711E-01
 -0.309583730421E-01
 -0.309583730241E-01
 -0.414421184143E-01
 -0.414421184283E-01
 -0.337809000221E-01
 -0.337809001239E-01
 -0.448102139454E-01
 -0.448102139341E-01
 -0.289262362842E-01
 -0.289262362943E-01
 -0.363362033550E-01
 -0.363362033448E-01
 -0.280599161318E-01
 -0.280599161028E-01
 -0.424412827205E-01
 -0.424412828672E-01
 -0.277189653522E-01
 -0.277189653576E-01