# vtk DataFile Version 3.0
MachLine results file. Generated by MachLine, USU AeroLab (c) 2022.
ASCII
DATASET POLYDATA
POINTS                 410 float
  0.215534751069E-08 -0.000000000000E+00  0.000000000000E+00
  0.682783204444E-02 -0.114825950568E-24  0.686367173798E-02
  0.171884711976E-01  0.763931866958E-02  0.000000000000E+00
  0.171884713053E-01 -0.763931842719E-02  0.000000000000E+00
  0.238990870203E-01  0.758722284929E-02  0.686367309419E-02
  0.238990869628E-01 -0.758722297871E-02  0.686367315140E-02
  0.271250763400E-01 -0.142743753570E-24  0.272674702244E-01
  0.438478858752E-01  0.743235756704E-02  0.272674718156E-01
  0.438478858700E-01 -0.743235757863E-02  0.272674718207E-01
  0.603380786803E-01 -0.250328244745E-24  0.606548313268E-01
  0.621884710780E-01  0.276393189386E-01  0.000000000000E+00
  0.621884712297E-01 -0.276393185974E-01  0.000000000000E+00
  0.685922161233E-01  0.274508363864E-01  0.686367331659E-02
  0.685922161942E-01 -0.274508362270E-01  0.686367324609E-02
  0.764907166711E-01  0.717894683143E-02  0.606548328977E-01
  0.764907166729E-01 -0.717894682737E-02  0.606548328959E-01
  0.876287736121E-01  0.268905304371E-01  0.272674720159E-01
  0.876287736526E-01 -0.268905303459E-01  0.272674719755E-01
  0.105560874997E+00  0.709927109781E-24  0.106115034813E+00
  0.117811530008E+00  0.523606786186E-01  0.000000000000E+00
  0.117811530211E+00 -0.523606781617E-01  0.000000000000E+00
  0.118778875758E+00  0.259736850534E-01  0.606548332115E-01
  0.118778875868E+00 -0.259736848040E-01  0.606548331013E-01
  0.123835961997E+00  0.520036126012E-01  0.686367341649E-02
  0.123835961958E+00 -0.520036126896E-01  0.686367345557E-02
  0.129142093659E+00  0.104805379696E-01  0.106115036663E+00
  0.129142093565E+00 -0.104805381814E-01  0.106115036757E+00
  0.141744927004E+00  0.509421547464E-01  0.272674722298E-01
  0.141744927173E+00 -0.509421543656E-01  0.272674720614E-01
  0.161559905492E+00 -0.657437885725E-24  0.162408044642E+00
  0.162811529977E+00  0.723606786889E-01  0.000000000000E+00
  0.162811529936E+00 -0.723606787805E-01  0.000000000000E+00
  0.168529091185E+00  0.718672259487E-01  0.686367355510E-02
  0.168529091311E+00 -0.718672256656E-01  0.686367342993E-02
  0.171049915053E+00  0.492052590689E-01  0.606548335791E-01
  0.171049915221E+00 -0.492052586901E-01  0.606548334116E-01
  0.180000000190E+00  0.799999987472E-01  0.000000000000E+00
  0.180000000204E+00 -0.799999986569E-01  0.000000000000E+00
  0.183666801296E+00  0.982528270617E-02  0.162408046753E+00
  0.183666801244E+00 -0.982528282320E-02  0.162408046805E+00
  0.185525814801E+00  0.704003274800E-01  0.272674723698E-01
  0.185525815028E+00 -0.704003269704E-01  0.272674721445E-01
  0.185600347264E+00  0.794544504884E-01  0.686367372770E-02
  0.185600347266E+00 -0.794544504761E-01  0.686367372519E-02
  0.186072195763E+00  0.357828063727E-01  0.106115036959E+00
  0.186072195927E+00 -0.357828060034E-01  0.106115036796E+00
  0.190279555878E+00  0.789971151882E-01  0.000000000000E+00
  0.190279555875E+00 -0.789971151523E-01  0.000000000000E+00
  0.195809803001E+00  0.784584061345E-01  0.686367406276E-02
  0.195809802995E+00 -0.784584060733E-01  0.686367406277E-02
  0.202248625476E+00  0.778326877674E-01  0.272674727279E-01
  0.202248625433E+00 -0.778326880549E-01  0.272674727864E-01
  0.212249693678E+00  0.768569739541E-01  0.272674731144E-01
  0.212249693640E+00 -0.768569735647E-01  0.272674731145E-01
  0.213338074357E+00  0.679999968016E-01  0.606548336766E-01
  0.213338074544E+00 -0.679999963810E-01  0.606548334906E-01
  0.220602764017E+00  0.760387532492E-01  0.000000000000E+00
  0.220602763978E+00 -0.760387528498E-01  0.000000000000E+00
  0.225926226562E+00  0.755202177019E-01  0.686367406285E-02
  0.225926226615E+00 -0.755202182383E-01  0.686367406279E-02
  0.226807661688E+00  0.844886731612E-24  0.227998335149E+00
  0.229490713182E+00  0.751789475045E-01  0.606548342672E-01
  0.229490713168E+00 -0.751789476318E-01  0.606548342892E-01
  0.237037573739E+00  0.335456269679E-01  0.162408047105E+00
  0.237037573972E+00 -0.335456264443E-01  0.162408046874E+00
  0.240686601358E+00  0.740866654255E-01  0.606548347056E-01
  0.240686601309E+00 -0.740866649199E-01  0.606548347057E-01
  0.241751404270E+00  0.739787579312E-01  0.272674731144E-01
  0.241751404277E+00 -0.739787580028E-01  0.272674731144E-01
  0.243002297834E+00  0.610850748493E-01  0.106115037288E+00
  0.243002298189E+00 -0.610850740503E-01  0.106115036934E+00
  0.247196737676E+00  0.906180768099E-02  0.227998337291E+00
  0.247196737813E+00 -0.906180737355E-02  0.227998337155E+00
  0.266583517304E+00  0.715656176135E-01  0.106115038170E+00
  0.266583517386E+00 -0.715656168897E-01  0.106115038046E+00
  0.269449092020E+00  0.712732575739E-01  0.000000000000E+00
  0.269449092015E+00 -0.712732575244E-01  0.000000000000E+00
  0.273623603191E+00  0.708732991542E-01  0.606548347057E-01
  0.273623603197E+00 -0.708732992142E-01  0.606548347057E-01
  0.274439454496E+00  0.707872201572E-01  0.686367406282E-02
  0.274439454552E+00 -0.707872207335E-01  0.686367406275E-02
  0.277241296841E+00  0.705258336532E-01  0.106115038646E+00
  0.277241296738E+00 -0.705258325989E-01  0.106115038647E+00
  0.289274417904E+00  0.693423663485E-01  0.272674731144E-01
  0.289274417883E+00 -0.693423661288E-01  0.272674731145E-01
  0.290408346145E+00  0.572659713106E-01  0.162408047493E+00
  0.290408346505E+00 -0.572659705003E-01  0.162408047135E+00
  0.296420326634E+00  0.309389583727E-01  0.227998337307E+00
  0.296420326820E+00 -0.309389579535E-01  0.227998337122E+00
  0.299524355891E+00 -0.000000000000E+00  0.301096773187E+00
  0.308595245894E+00  0.674669115926E-01  0.106115038646E+00
  0.308595245834E+00 -0.674669109744E-01  0.106115038646E+00
  0.312515242901E+00  0.670912591393E-01  0.162408048437E+00
  0.312515242946E+00 -0.670912587435E-01  0.162408048369E+00
  0.317998972721E+00  0.821093630455E-02  0.301096775160E+00
  0.317998972646E+00 -0.821093647178E-02  0.301096775234E+00
  0.324231398795E+00  0.659482198335E-01  0.162408049079E+00
  0.324231398725E+00 -0.659482191089E-01  0.162408049079E+00
  0.326387539440E+00  0.657255990985E-01  0.606548347055E-01
  0.326387539357E+00 -0.657255982459E-01  0.606548347056E-01
  0.334369181003E+00  0.649395896634E-01  0.000000000000E+00
  0.334369181034E+00 -0.649395899871E-01  0.000000000000E+00
  0.338916830787E+00  0.644967438043E-01  0.686367406289E-02
  0.338916830852E+00 -0.644967444759E-01  0.686367406281E-02
  0.345643915453E+00  0.528161093759E-01  0.227998337461E+00
  0.345643915711E+00 -0.528161087952E-01  0.227998337205E+00
  0.352435732174E+00  0.631802865624E-01  0.272674731145E-01
  0.352435732184E+00 -0.631802866675E-01  0.272674731145E-01
  0.358581431904E+00  0.625969959270E-01  0.162408049080E+00
  0.358581431929E+00 -0.625969961832E-01  0.162408049080E+00
  0.358823186324E+00  0.625666248133E-01  0.106115038646E+00
  0.358823186289E+00 -0.625666244545E-01  0.106115038646E+00
  0.362600647965E+00  0.280339032213E-01  0.301096775212E+00
  0.362600647742E+00 -0.280339037240E-01  0.301096775434E+00
  0.366032992125E+00  0.618779218826E-01  0.227998338660E+00
  0.366032992184E+00 -0.618779213632E-01  0.227998338571E+00
  0.377726466092E+00 -0.167628828563E-24  0.379709424071E+00
  0.378878756541E+00  0.606246768248E-01  0.227998339425E+00
  0.378878756503E+00 -0.606246764360E-01  0.227998339426E+00
  0.395911961680E+00  0.589427284410E-01  0.606548347056E-01
  0.395911961602E+00 -0.589427276422E-01  0.606548347057E-01
  0.405749887286E+00  0.124548497343E-01  0.379709426325E+00
  0.405749887335E+00 -0.124548496244E-01  0.379709426276E+00
  0.407202322986E+00  0.478568706392E-01  0.301096775486E+00
  0.407202323128E+00 -0.478568703203E-01  0.301096775345E+00
  0.412107666642E+00  0.573553462871E-01  0.000000000000E+00
  0.412107666714E+00 -0.573553470255E-01  0.000000000000E+00
  0.413224443804E+00  0.572659714130E-01  0.162408049079E+00
  0.413224443778E+00 -0.572659711413E-01  0.162408049079E+00
  0.416125190663E+00  0.569642205007E-01  0.686367406294E-02
  0.416125190696E+00 -0.569642208357E-01  0.686367406290E-02
  0.416375364946E+00  0.569664706292E-01  0.227998339426E+00
  0.416375364917E+00 -0.569664703408E-01  0.227998339426E+00
  0.425006052877E+00  0.561097609441E-01  0.106115038646E+00
  0.425006052737E+00 -0.561097595047E-01  0.106115038646E+00
  0.425676940240E+00  0.560678125106E-01  0.301096776772E+00
  0.425676940292E+00 -0.560678120532E-01  0.301096776693E+00
  0.428068175063E+00  0.558015111968E-01  0.272674731145E-01
  0.428068175056E+00 -0.558015111182E-01  0.272674731146E-01
  0.439740730016E+00  0.546957353686E-01  0.301096777544E+00
  0.439740730001E+00 -0.546957352163E-01  0.301096777544E+00
  0.459280842455E+00 -0.000000000000E+00  0.461691939738E+00
  0.461796734074E+00  0.373645597787E-01  0.379709426458E+00
  0.461796733887E+00 -0.373645602005E-01  0.379709426645E+00
  0.475485064387E+00  0.511996714178E-01  0.227998339425E+00
  0.475485064353E+00 -0.511996710691E-01  0.227998339426E+00
  0.478156363342E+00  0.509188843890E-01  0.606548347056E-01
  0.478156363210E+00 -0.509188830309E-01  0.606548347057E-01
  0.480555440324E+00  0.507138120932E-01  0.301096777544E+00
  0.480555440359E+00 -0.507138124582E-01  0.301096777544E+00
  0.483638875496E+00  0.108257879512E-01  0.461691941958E+00
  0.483638875194E+00 -0.108257886306E-01  0.461691942258E+00
  0.484436603298E+00  0.503184443623E-01  0.162408049079E+00
  0.484436603239E+00 -0.503184437608E-01  0.162408049079E+00
  0.489820155897E+00  0.498194149816E-01  0.379709427820E+00
  0.489820155914E+00 -0.498194148336E-01  0.379709427795E+00
  0.498766416642E+00  0.489008328883E-01  0.000000000000E+00
  0.498766416745E+00 -0.489008339435E-01  0.000000000000E+00
  0.502192984493E+00  0.485673616680E-01  0.686367406304E-02
  0.502192984557E+00 -0.485673623293E-01  0.686367406296E-02
  0.503297537722E+00  0.484715674517E-01  0.106115038646E+00
[...]
POINT_DATA                 410
SCALARS phi float 1
LOOKUP_TABLE default
  0.000000000000E+00
  0.000000000000E+00
  0.433680868994E-18
 -0.433680868994E-18
  0.433680868994E-18
  0.000000000000E+00
  0.000000000000E+00
  0.000000000000E+00
 -0.867361737988E-18
  0.000000000000E+00
 -0.173472347598E-17
  0.173472347598E-17
 -0.173472347598E-17
  0.173472347598E-17
  0.173472347598E-17
  0.867361737988E-18
  0.520417042793E-17
  0.000000000000E+00
  0.413590306277E-24
  0.173472347598E-17
  0.173472347598E-17
 -0.693889390391E-17
 -0.346944695195E-17
  0.000000000000E+00
  0.000000000000E+00
 -0.173472347598E-17
  0.000000000000E+00
  0.000000000000E+00
  0.346944695195E-17
  0.000000000000E+00
 -0.138777878078E-16
 -0.104083408559E-16
  0.000000000000E+00
 -0.138777878078E-16
 -0.346944695195E-17
 -0.346944695195E-17
  0.346944695195E-17
  0.346944695195E-17
  0.000000000000E+00
 -0.173472347598E-17
 -0.693889390391E-17
  0.346944695195E-17
  0.346944695195E-17
 -0.346944695195E-17
  0.693889390391E-17
  0.346944695195E-17
  0.000000000000E+00
 -0.346944695195E-17
  0.693889390391E-17
 -0.346944695195E-17
 -0.346944695195E-17
 -0.104083408559E-16
  0.346944695195E-17
 -0.346944695195E-17
  0.346944695195E-17
  0.346944695195E-17
 -0.346944695195E-17
 -0.346944695195E-17
  0.346944695195E-17
  0.693889390391E-17
 -0.827180612553E-24
 -0.693889390391E-17
  0.138777878078E-16
  0.173472347598E-16
  0.000000000000E+00
  0.138777878078E-16
  0.208166817117E-16
 -0.104083408559E-16
  0.104083408559E-16
 -0.138777878078E-16
 -0.693889390391E-17
  0.000000000000E+00
  0.000000000000E+00
 -0.138777878078E-16
 -0.138777878078E-16
 -0.346944695195E-17
 -0.346944695195E-17
  0.173472347598E-16
  0.693889390391E-17
  0.138777878078E-16
 -0.173472347598E-16
 -0.208166817117E-16
 -0.693889390391E-17
  0.693889390391E-17
  0.693889390391E-17
  0.138777878078E-16
  0.346944695195E-16
  0.693889390391E-17
 -0.346944695195E-17
  0.000000000000E+00
  0.138777878078E-16
  0.693889390391E-17
 -0.208166817117E-16
 -0.138777878078E-16
  0.867361737988E-18
  0.867361737988E-18
 -0.693889390391E-17
 -0.693889390391E-17
 -0.138777878078E-16
 -0.277555756156E-16
  0.138777878078E-16
  0.000000000000E+00
  0.693889390391E-17
 -0.693889390391E-17
 -0.693889390391E-17
  0.138777878078E-16
  0.138777878078E-16
 -0.138777878078E-16
 -0.277555756156E-16
 -0.208166817117E-16
  0.208166817117E-16
  0.346944695195E-16
 -0.693889390391E-17
  0.000000000000E+00
  0.138777878078E-16
  0.693889390391E-17
  0.000000000000E+00
 -0.138777878078E-16
 -0.277555756156E-16
 -0.138777878078E-16
 -0.208166817117E-16
  0.173472347598E-17
  0.173472347598E-17
 -0.693889390391E-17
  0.138777878078E-16
 -0.693889390391E-17
 -0.693889390391E-17
  0.346944695195E-16
 -0.693889390391E-17
  0.000000000000E+00
  0.000000000000E+00
 -0.208166817117E-16
  0.693889390391E-17
  0.000000000000E+00
  0.346944695195E-16
 -0.138777878078E-16
 -0.693889390391E-17
 -0.312250225676E-16
 -0.693889390391E-17
  0.693889390391E-17
  0.000000000000E+00
  0.000000000000E+00
 -0.693889390391E-17
  0.000000000000E+00
  0.000000000000E+00
  0.346944695195E-16
  0.208166817117E-16
  0.346944695195E-17
  0.346944695195E-16
  0.138777878078E-16
  0.000000000000E+00
  0.000000000000E+00
  0.138777878078E-16
 -0.693889390391E-17
 -0.138777878078E-16
 -0.693889390391E-17
  0.104083408559E-16
  0.208166817117E-16
 -0.138777878078E-16
 -0.208166817117E-16
 -0.242861286637E-16
  0.693889390391E-17
  0.000000000000E+00
  0.693889390391E-17
  0.208166817117E-16
 -0.104083408559E-16
 -0.693889390391E-17
 -0.104083408559E-16
  0.000000000000E+00
 -0.138777878078E-16
  0.138777878078E-16
 -0.693889390391E-17
  0.000000000000E+00
  0.000000000000E+00
 -0.693889390391E-17
 -0.138777878078E-16
 -0.208166817117E-16
  0.693889390391E-17
 -0.173472347598E-16
  0.104083408559E-16
 -0.346944695195E-17
 -0.693889390391E-17
 -0.693889390391E-17
 -0.346944695195E-17
 -0.346944695195E-17
 -0.346944695195E-17
  0.138777878078E-16
 -0.242861286637E-16
  0.346944695195E-17
  0.242861286637E-16
 -0.693889390391E-17
 -0.693889390391E-17
  0.346944695195E-17
  0.346944695195E-16
  0.277555756156E-16
  0.413590306277E-24
  0.693889390391E-17
 -0.346944695195E-17
  0.000000000000E+00
 -0.138777878078E-16
  0.138777878078E-16
 -0.693889390391E-17
  0.138777878078E-16
  0.000000000000E+00
  0.138777878078E-16
  0.000000000000E+00
  0.000000000000E+00
  0.000000000000E+00
  0.000000000000E+00
  0.000000000000E+00
 -0.693889390391E-17
 -0.520417042793E-17
 -0.346944695195E-17
 -0.173472347598E-17
 -0.520417042793E-17
  0.346944695195E-17
  0.867361737988E-17
  0.000000000000E+00
 -0.520417042793E-17
  0.346944695195E-17
  0.346944695195E-17
  0.346944695195E-17
  0.693889390391E-17
 -0.208166817117E-16
 -0.208166817117E-16
 -0.173472347598E-16
 -0.827180612553E-24
 -0.104083408559E-16
 -0.346944695195E-17
  0.138777878078E-16
  0.277555756156E-16
  0.173472347598E-17
  0.346944695195E-17
 -0.173472347598E-17
  0.000000000000E+00
  0.693889390391E-17
 -0.208166817117E-16
 -0.867361737988E-17
  0.000000000000E+00
 -0.173472347598E-17
  0.954097911787E-17
 -0.346944695195E-17
  0.346944695195E-17
 -0.954097911787E-17
  0.173472347598E-17
  0.867361737988E-18
  0.260208521397E-17
 -0.867361737988E-18
  0.260208521397E-17
 -0.208166817117E-16
  0.693889390391E-17
  0.173472347598E-17
 -0.433680868994E-17
  0.000000000000E+00
 -0.520417042793E-17
  0.520417042793E-17
  0.208166817117E-16
  0.277555756156E-16
  0.780625564190E-17
  0.867361737988E-17
  0.260208521397E-17
  0.433680868994E-17
  0.346944695195E-17
  0.000000000000E+00
 -0.693889390391E-17
  0.693889390391E-17
  0.173472347598E-17
  0.000000000000E+00
  0.867361737988E-18
 -0.216840434497E-18
 -0.332036915324E-18
 -0.107022612886E-17
  0.000000000000E+00
  0.542101086243E-18
 -0.298155597434E-17
 -0.867361737988E-18
  0.238524477947E-17
 -0.433680868994E-18
 -0.542101086243E-17
 -0.130104260698E-17
  0.000000000000E+00
 -0.138777878078E-16
  0.346944695195E-17
 -0.173472347598E-16
 -0.693889390391E-17
  0.000000000000E+00
 -0.173472347598E-17
  0.433680868994E-17
 -0.260208521397E-17
  0.108420217249E-17
  0.216840434497E-18
  0.130104260698E-17
 -0.867361737988E-18
 -0.693889390391E-17
  0.242861286637E-16
  0.000000000000E+00
  0.173472347598E-17
 -0.346944695195E-17
  0.867361737988E-18
  0.520417042793E-17
 -0.173472347598E-17
 -0.433680868994E-17
 -0.260208521397E-17
 -0.346944695195E-17
 -0.260208521397E-17
 -0.173472347598E-17
 -0.173472347598E-17
  0.000000000000E+00
  0.173472347598E-17
  0.173472347598E-17
 -0.867361737988E-18
 -0.390312782095E-17
  0.346944695195E-17
  0.520417042793E-17
  0.000000000000E+00
  0.346944695195E-17
  0.104083408559E-16
  0.000000000000E+00
  0.173472347598E-17
 -0.867361737988E-18
  0.827180612553E-24
  0.433680868994E-17
 -0.173472347598E-17
 -0.346944695195E-17
  0.867361737988E-18
  0.867361737988E-18
  0.867361737988E-18
 -0.520417042793E-17
  0.121430643318E-16
 -0.346944695195E-17
  0.000000000000E+00
  0.693889390391E-17
 -0.346944695195E-17
  0.000000000000E+00
 -0.173472347598E-17
  0.000000000000E+00
  0.173472347598E-17
 -0.173472347598E-16
  0.693889390391E-17
  0.104083408559E-16
 -0.173472347598E-17
 -0.867361737988E-17
 -0.138777878078E-16
  0.000000000000E+00
  0.433680868994E-18
  0.130104260698E-17
  0.867361737988E-18
 -0.433680868994E-18
 -0.650521303491E-18
  0.216840434497E-18
  0.780625564190E-17
 -0.173472347598E-17
  0.867361737988E-17
  0.520417042793E-17
  0.000000000000E+00
 -0.138777878078E-16
 -0.138777878078E-16
  0.104083408559E-16
  0.346944695195E-17
  0.867361737988E-17
  0.346944695195E-17
 -0.346944695195E-17
  0.867361737988E-17
 -0.104083408559E-16
  0.346944695195E-17
  0.346944695195E-17
  0.156125112838E-16
  0.000000000000E+00
  0.827180612553E-24
  0.000000000000E+00
 -0.216840434497E-18
 -0.693889390391E-17
  0.000000000000E+00
  0.173472347598E-17
  0.000000000000E+00
 -0.104083408559E-16
  0.520417042793E-17
  0.867361737988E-17
  0.867361737988E-17
 -0.173472347598E-17
  0.173472347598E-17
 -0.520417042793E-17
 -0.121430643318E-16
 -0.173472347598E-17
  0.173472347598E-17
 -0.693889390391E-17
 -0.346944695195E-17
  0.000000000000E+00
 -0.346944695195E-17
 -0.173472347598E-17
 -0.173472347598E-17
  0.433680868994E-18
  0.216840434497E-17
  0.173472347598E-17
 -0.867361737988E-18
 -0.208166817117E-16
  0.346944695195E-17
  0.138777878078E-16
 -0.346944695195E-17
  0.693889390391E-17
  0.693889390391E-17
  0.173472347598E-17
  0.693889390391E-17
 -0.867361737988E-18
  0.260208521397E-17
  0.000000000000E+00
 -0.433680868994E-18
  0.000000000000E+00
  0.216840434497E-18
  0.000000000000E+00
SCALARS phi_mu float 1
LOOKUP_TABLE default
  0.298637375943E-09
  0.191523697361E-08
  0.216013742478E-02
  0.216013778148E-02
  0.341996100215E-02
  0.341996100124E-02
  0.238089136749E-08
  0.550683333017E-02
  0.550683332915E-02
  0.278356305004E-08
  0.781544394736E-02
  0.781544450014E-02
  0.938793472879E-02
  0.938793473780E-02
  0.665398418920E-02
  0.665398419068E-02
  0.125398948376E-01
  0.125398948383E-01
  0.315765705423E-08
  0.148057873895E-01
  0.148057881625E-01
  0.161796935196E-01
  0.161796935292E-01
  0.165012220232E-01
  0.165012220140E-01
  0.971414356772E-02
  0.971414349057E-02
  0.200446937029E-01
  0.200446937096E-01
  0.365524035679E-08
  0.204610940568E-01
  0.204610938960E-01
  0.222038713922E-01
  0.222038714294E-01
  0.244049783905E-01
  0.244049783939E-01
  0.226212290455E-01
  0.226212291839E-01
  0.910680552681E-02
  0.910680548418E-02
  0.258967920874E-01
  0.258967921033E-01
  0.243758824949E-01
  0.243758824963E-01
  0.244313615477E-01
  0.244313615703E-01
  0.240549180755E-01
  0.240549180854E-01
  0.247429822275E-01
  0.247429822430E-01
  0.281063351658E-01
  0.281063351629E-01
  0.275650792576E-01
  0.275650793472E-01
  0.305262200284E-01
  0.305262200314E-01
  0.262548595714E-01
  0.262548596517E-01
  0.266166213645E-01
  0.266166212589E-01
  0.352306751539E-08
  0.328035653685E-01
  0.328035653718E-01
  0.275211880574E-01
  0.275211881290E-01
  0.320715608748E-01
  0.320715609746E-01
  0.280173408446E-01
  0.280173408310E-01
  0.340948207776E-01
  0.340948207937E-01
  0.839915984180E-02
  0.839915995379E-02
  0.377712788282E-01
  0.377712788050E-01
  0.288534160512E-01
  0.288534160599E-01
  0.308723430467E-01
  0.308723430355E-01
  0.291181750919E-01
  0.291181749902E-01
  0.371302160972E-01
  0.371302162902E-01
  0.300618855602E-01
  0.300618855987E-01
  0.384315017101E-01
  0.384315017558E-01
  0.285335033839E-01
  0.285335035038E-01
  0.358896592846E-08
  0.353252696497E-01
  0.353252697705E-01
  0.423688875691E-01
  0.423688875601E-01
  0.761051004382E-02
  0.761050998290E-02
  0.418789020540E-01
  0.418789021846E-01
  0.323768537439E-01
  0.323768538927E-01
  0.319632225031E-01
  0.319632224482E-01
  0.321844023554E-01
  0.321844022416E-01
  0.415878797443E-01
  0.415878798106E-01
  0.329212711099E-01
  0.329212710922E-01
  0.403587455609E-01
  0.403587455118E-01
  0.350362280323E-01
  0.350362280966E-01
  0.259839018248E-01
  0.259839016418E-01
  0.459224222518E-01
  0.459224222508E-01
  0.372794857914E-08
  0.457913896504E-01
  0.457913897214E-01
  0.336218455219E-01
  0.336218455757E-01
  0.115440825826E-01
  0.115440826226E-01
  0.426415345427E-01
  0.426415346089E-01
  0.315606180288E-01
  0.315606179902E-01
  0.387915545472E-01
  0.387915545978E-01
  0.313442686558E-01
  0.313442686390E-01
  0.449994130451E-01
  0.449994131005E-01
  0.341526128260E-01
  0.341526128894E-01
  0.476385909331E-01
  0.476385909467E-01
  0.308065823935E-01
  0.308065823970E-01
  0.482020251291E-01
  0.482020251577E-01
  0.383390222229E-08
  0.346322438958E-01
  0.346322437422E-01
  0.430997665763E-01
  0.430997666455E-01
  0.279687119345E-01
  0.279687119748E-01
  0.487506038103E-01
  0.487506037391E-01
  0.100341481023E-01
  0.100341478549E-01
  0.325809247374E-01
  0.325809247520E-01
  0.461314798777E-01
  0.461314798922E-01
  0.257832655712E-01
  0.257832655436E-01
  0.255418294471E-01
  0.255418294302E-01
  0.274112061095E-01
  0.274112061554E-01
  0.482530252614E-01
  0.482530251160E-01
  0.249046679666E-01
  0.249046679587E-01
  0.301024402306E-01
  0.301024398314E-01
  0.343323137150E-08
  0.451068096221E-01
  0.451068096219E-01
  0.511609109594E-01
  0.511609107359E-01
  0.304505858374E-01
  0.304505858390E-01
  0.401365849829E-01
  0.401365848844E-01
  0.241469985048E-01
  0.241469985025E-01
  0.210340259529E-01
  0.210340259594E-01
  0.450553540286E-01
  0.450553537797E-01
  0.170066681367E-01
  0.170066678610E-01
  0.202670633569E-01
  0.202670633729E-01
  0.189335698201E-01
  0.189335698013E-01
  0.187232083967E-01
  0.187232083821E-01
  0.181536726206E-01
  0.181536726141E-01
  0.444218532240E-01
  0.444218532154E-01
  0.317428718770E-08
  0.279996066707E-01
  0.279996066644E-01
  0.340133334456E-01
  0.340133332179E-01
  0.205630261790E-01
  0.205630261797E-01
  0.531951912517E-01
  0.531951910798E-01
  0.381816932435E-01
  0.381816930843E-01
  0.161246811165E-01
  0.161246811123E-01
  0.139867987140E-01
  0.139867988975E-01
  0.137159194801E-01
  0.137159194740E-01
  0.130221085348E-01
  0.130221085224E-01
  0.118479952386E-01
  0.118479952252E-01
  0.116806347159E-01
  0.116806347052E-01
  0.112235638452E-01
  0.112235638403E-01
  0.279735948816E-01
  0.279735948730E-01
  0.498611768594E-01
  0.498611766904E-01
  0.254777683610E-01
  0.254777683505E-01
  0.369483592854E-08
  0.168174841768E-01
  0.168174841793E-01
  0.345849007653E-01
  0.345849009098E-01
  0.118444386273E-01
  0.118444386180E-01
  0.110910604532E-01
  0.110910605720E-01
  0.348872958350E-01
  0.348872958261E-01
  0.849300186405E-02
  0.849300185778E-02
  0.655220618447E-02
  0.655220617300E-02
  0.221821180021E-01
  0.221821179597E-01
  0.604491111588E-02
  0.604491110357E-02
  0.502827407237E-02
  0.502827406231E-02
  0.490528245359E-02
  0.490528244442E-02
  0.396617584444E-01
  0.396617584415E-01
  0.457064421992E-02
  0.457064421299E-02
  0.429473279793E-08
  0.131505628459E-01
  0.131505628537E-01
  0.404125143901E-01
  0.404125143902E-01
  0.767145589905E-02
  0.767145590565E-02
  0.407213073812E-02
  0.407213072774E-02
  0.167968791701E-01
  0.167968794071E-01
  0.322083327147E-01
  0.322083327142E-01
  0.148755637605E-01
  0.148755637592E-01
  0.155281251566E-02
  0.155281250685E-02
 -0.180530378274E-05
 -0.180531634140E-05
  0.468138685700E-08
 -0.288529352287E-03
 -0.288529361316E-03
 -0.112618370766E-02
 -0.112618371508E-02
 -0.120816796879E-02
 -0.120816797772E-02
 -0.142683265856E-02
 -0.142683266742E-02
  0.225570232560E-01
  0.225570232361E-01
  0.243889902594E-01
  0.243889902614E-01
  0.119647735130E-01
  0.119647736632E-01
  0.397998434481E-02
  0.397998434888E-02
  0.131383674908E-03
  0.131383679902E-03
 -0.249708576741E-02
 -0.249708576940E-02
  0.276520340604E-01
  0.276520340660E-01
  0.530451289849E-08
 -0.433019219911E-02
 -0.433019220653E-02
 -0.554980507444E-02
 -0.554980508262E-02
 -0.562771665201E-02
 -0.562771665997E-02
 -0.628112608982E-02
 -0.628112609834E-02
 -0.632842613227E-02
 -0.632842614094E-02
 -0.644771436845E-02
 -0.644771437646E-02
  0.781760784763E-02
  0.781760797644E-02
  0.348251242820E-02
  0.348251242311E-02
  0.810067671729E-02
  0.810067669231E-02
  0.171432221159E-01
  0.171432221167E-01
  0.279463532442E-01
  0.279463532308E-01
 -0.277776763194E-02
 -0.277776762869E-02
  0.493865951526E-08
 -0.558986505306E-02
 -0.558986506472E-02
 -0.751297358653E-02
 -0.751297358809E-02
  0.446850703555E-02
  0.446850696780E-02
 -0.881224398252E-02
 -0.881224398726E-02
  0.237444144152E-01
  0.237444144165E-01
 -0.976293464533E-02
 -0.976293464831E-02
 -0.967308785207E-02
 -0.967308785701E-02
 -0.101657638439E-01
 -0.101657638536E-01
 -0.101868081694E-01
 -0.101868081783E-01
 -0.102303220327E-01
 -0.102303220398E-01
  0.119142523204E-01
  0.119142523339E-01
  0.428479982273E-08
 -0.324212400810E-02
 -0.324212401625E-02
  0.200882477186E-02
  0.200882467380E-02
  0.104821372002E-02
  0.104821369669E-02
 -0.698259272659E-02
 -0.698259273058E-02
 -0.918122528318E-02
 -0.918122528524E-02
 -0.106629698380E-01
 -0.106629698424E-01
 -0.116189605600E-01
 -0.116189605622E-01
 -0.123936399111E-01
 -0.123936399133E-01
 -0.121959676021E-01
 -0.121959676056E-01
 -0.125792405334E-01
 -0.125792405389E-01
 -0.125839286633E-01
 -0.125839286713E-01
 -0.125800736139E-01
 -0.125800736189E-01
  0.375642654722E-08
  0.519209656366E-03
  0.569234201716E-03
 -0.133977001631E-01
 -0.133977001374E-01
 -0.133968245545E-01
 -0.133968245545E-01
 -0.133768633368E-01
 -0.133768633357E-01
 -0.132879601583E-01
 -0.132879601583E-01
 -0.130531720777E-01
 -0.130531720768E-01
 -0.125746567113E-01
 -0.125746567113E-01
 -0.117374257412E-01
 -0.117374257412E-01
 -0.104069704990E-01
 -0.104069704990E-01
 -0.841453133026E-02
 -0.841453133026E-02
 -0.551294100655E-02
 -0.551294100655E-02
 -0.123486264825E-02
 -0.123486264765E-02
  0.588017945472E-02
  0.588017945472E-02
  0.182057444391E-01
  0.182057444391E-01
  0.230824252465E-01
  0.230824252473E-01
  0.166840771289E-01
  0.166840771289E-01
  0.109011314499E-01
  0.109011314499E-01
  0.623103320978E-02
  0.623103320978E-02
  0.280117047590E-02
  0.280117047590E-02
  0.760102364029E-03
  0.760102364847E-03
  0.113176770698E-08
SCALARS phi_sigma float 1
LOOKUP_TABLE default
 -0.298637375943E-09
 -0.191523697361E-08
 -0.216013742478E-02
 -0.216013778148E-02
 -0.341996100215E-02
 -0.341996100124E-02
 -0.238089136749E-08
 -0.550683333017E-02
 -0.550683332915E-02
 -0.278356305004E-08
 -0.781544394736E-02
 -0.781544450014E-02
 -0.938793472879E-02
 -0.938793473780E-02
 -0.665398418920E-02
 -0.665398419068E-02
 -0.125398948376E-01
 -0.125398948383E-01
 -0.315765705423E-08
 -0.148057873895E-01
 -0.148057881625E-01
 -0.161796935196E-01
 -0.161796935292E-01
 -0.165012220232E-01
 -0.165012220140E-01
 -0.971414356772E-02
 -0.971414349057E-02
 -0.200446937029E-01
 -0.200446937096E-01
 -0.365524035679E-08
 -0.204610940568E-01
 -0.204610938960E-01
 -0.222038713922E-01
 -0.222038714294E-01
 -0.244049783905E-01
 -0.244049783939E-01
 -0.226212290455E-01
 -0.226212291839E-01
 -0.910680552681E-02
 -0.910680548418E-02
 -0.258967920874E-01
 -0.258967921033E-01
 -0.243758824949E-01
 -0.243758824963E-01
 -0.244313615477E-01
 -0.244313615703E-01
 -0.240549180755E-01
 -0.240549180854E-01
 -0.247429822275E-01
 -0.247429822430E-01
 -0.281063351658E-01
 -0.281063351629E-01
 -0.275650792576E-01
 -0.275650793472E-01
 -0.305262200284E-01
 -0.305262200314E-01
 -0.262548595714E-01
 -0.262548596517E-01
 -0.266166213645E-01
 -0.266166212589E-01
 -0.352306751539E-08
 -0.328035653685E-01
 -0.328035653718E-01
 -0.275211880574E-01
 -0.275211881290E-01
 -0.320715608748E-01
 -0.320715609746E-01
 -0.280173408446E-01
 -0.280173408310E-01
 -0.340948207776E-01
 -0.340948207937E-01
 -0.839915984180E-02
 -0.839915995379E-02
 -0.377712788282E-01
 -0.377712788050E-01
 -0.288534160512E-01
 -0.288534160599E-01
 -0.308723430467E-01
 -0.308723430355E-01
 -0.291181750919E-01
 -0.291181749902E-01
 -0.371302160972E-01
 -0.371302162902E-01
 -0.300618855602E-01
 -0.300618855987E-01
 -0.384315017101E-01
 -0.384315017558E-01
 -0.285335033839E-01
 -0.285335035038E-01
 -0.358896592846E-08
 -0.353252696497E-01
 -0.353252697705E-01
 -0.423688875691E-01
 -0.423688875601E-01
 -0.761051004382E-02
 -0.761050998290E-02
 -0.418789020540E-01
 -0.418789021846E-01
 -0.323768537439E-01
 -0.323768538927E-01
 -0.319632225031E-01
 -0.319632224482E-01
 -0.321844023554E-01
 -0.321844022416E-01
 -0.415878797443E-01
 -0.415878798106E-01
 -0.329212711099E-01
 -0.329212710922E-01
 -0.403587455609E-01
 -0.403587455118E-01
 -0.350362280323E-01
 -0.350362280966E-01
 -0.259839018248E-01
 -0.259839016418E-01
 -0.459224222518E-01
 -0.459224222508E-01
 -0.372794857914E-08
 -0.457913896504E-01
 -0.457913897214E-01
 -0.336218455219E-01
 -0.336218455757E-01
 -0.115440825826E-01
 -0.115440826226E-01
 -0.426415345427E-01