# vtk DataFile Version 3.0
MachLine results file. Generated by MachLine, USU AeroLab (c) 2022.
ASCII
DATASET POLYDATA
POINTS                3023 float
  0.125324189671E-08  0.410098771700E-25  0.820197543400E-25
  0.895597396545E-03  0.132511807787E-25 -0.199020687543E-03
  0.895597460729E-03  0.174517769813E-25  0.199020398715E-03
  0.201978037345E-02  0.130924162996E-25 -0.448839138320E-03
  0.201978043658E-02  0.114825476058E-25  0.448838854249E-03
  0.342194355609E-02 -0.254707084036E-25 -0.760430982441E-03
  0.342194361763E-02 -0.223501568340E-25  0.760430705531E-03
  0.515701335375E-02 -0.141594709606E-25 -0.114600194581E-02
  0.515701339385E-02 -0.391622616731E-25  0.114600176536E-02
  0.728308876531E-02 -0.310751238240E-25 -0.161846304895E-02
  0.728308878324E-02 -0.334218268454E-25  0.161846296828E-02
  0.827775203089E-02  0.832120761778E-02  0.426174389686E-25
  0.827775351099E-02 -0.832120614542E-02  0.000000000000E+00
  0.914115702290E-02  0.832120780837E-02 -0.191867581869E-03
  0.914115704465E-02  0.832120778674E-02  0.191867484011E-03
  0.914115739735E-02 -0.832120743588E-02 -0.191865896873E-03
  0.914115742333E-02 -0.832120741004E-02  0.191865779968E-03
  0.985721702349E-02 -0.506747332337E-26 -0.219049157500E-02
  0.985721704854E-02  0.112277229382E-25  0.219049146229E-02
  0.102249315400E-01  0.832120780297E-02 -0.432706337840E-03
  0.102249315405E-01  0.832120780254E-02  0.432706335876E-03
  0.102249318495E-01 -0.832120749508E-02 -0.432704945044E-03
  0.102249319340E-01 -0.832120741107E-02  0.432704565001E-03
  0.115766943203E-01  0.832120781661E-02 -0.733098131415E-03
  0.115766943201E-01  0.832120781685E-02  0.733098132503E-03
  0.115766946180E-01 -0.832120752048E-02 -0.733096791827E-03
  0.115766947238E-01 -0.832120741525E-02  0.733096315801E-03
  0.129289356837E-01  0.501154321574E-26 -0.287309573364E-02
  0.129289357076E-01  0.553195189929E-25  0.287309562629E-02
  0.132493974624E-01  0.832120781356E-02 -0.110480992644E-02
  0.132493974587E-01  0.832120781719E-02  0.110480994289E-02
  0.132493977820E-01 -0.832120749564E-02 -0.110480848830E-02
  0.132493978541E-01 -0.832120742389E-02  0.110480816375E-02
  0.152990516119E-01  0.832120782298E-02 -0.156028867099E-02
  0.152990516143E-01  0.832120782065E-02  0.156028866042E-02
  0.152990519380E-01 -0.832120749856E-02 -0.156028720341E-02
  0.152990520084E-01 -0.832120742859E-02  0.156028688688E-02
  0.165316101383E-01  0.961114263326E-26 -0.367369010172E-02
  0.165316101656E-01  0.216040249499E-25  0.367368997890E-02
  0.172182432020E-01  0.173086339855E-01  0.504345133380E-25
  0.172182450910E-01 -0.173086321063E-01  0.000000000000E+00
  0.177806535125E-01  0.832120780851E-02 -0.211175569120E-02
  0.177806535148E-01  0.832120780623E-02  0.211175568089E-02
  0.177806538366E-01 -0.832120748603E-02 -0.211175423244E-02
  0.177806538878E-01 -0.832120743517E-02  0.211175400236E-02
  0.180468787798E-01  0.173086341996E-01 -0.184140955268E-03
  0.180468787674E-01  0.173086342119E-01  0.184141011107E-03
  0.180468793003E-01 -0.173086336818E-01 -0.184138613214E-03
  0.180468793503E-01 -0.173086336320E-01  0.184138387940E-03
  0.190870096000E-01  0.173086342123E-01 -0.415281197863E-03
  0.190870095994E-01  0.173086342130E-01  0.415281200749E-03
  0.190870100827E-01 -0.173086337321E-01 -0.415279025648E-03
  0.190870101718E-01 -0.173086336435E-01  0.415278624619E-03
  0.203843368073E-01  0.173086342111E-01 -0.703576126821E-03
  0.203843368289E-01  0.173086341895E-01  0.703576029468E-03
  0.203843372984E-01 -0.173086337225E-01 -0.703573916899E-03
  0.203843373637E-01 -0.173086336575E-01  0.703573622918E-03
  0.206723340135E-01 -0.496398651917E-26 -0.459385092845E-02
  0.206723340245E-01  0.208127323441E-25  0.459385087910E-02
  0.207419600296E-01  0.832120781731E-02 -0.276982384802E-02
  0.207419600336E-01  0.832120781337E-02  0.276982383022E-02
  0.207419603409E-01 -0.832120750762E-02 -0.276982244710E-02
  0.207419604060E-01 -0.832120744287E-02  0.276982215421E-02
  0.219896800748E-01  0.173086342046E-01 -0.106031904446E-02
  0.219896800680E-01  0.173086342113E-01  0.106031907511E-02
  0.219896805182E-01 -0.173086337635E-01 -0.106031704930E-02
  0.219896805896E-01 -0.173086336924E-01  0.106031672758E-02
  0.239567945077E-01  0.173086342056E-01 -0.149745559011E-02
  0.239567945139E-01  0.173086341995E-01  0.149745556237E-02
  0.239567949503E-01 -0.173086337654E-01 -0.149745359849E-02
  0.239567949951E-01 -0.173086337208E-01  0.149745339709E-02
  0.242151372871E-01  0.832120781887E-02 -0.354164102377E-02
  0.242151373101E-01  0.832120779590E-02  0.354164091988E-02
  0.242151376000E-01 -0.832120750760E-02 -0.354163961569E-02
  0.242151376570E-01 -0.832120745085E-02  0.354163935899E-02
  0.253221655090E-01  0.000000000000E+00 -0.562714679991E-02
  0.253221655057E-01  0.000000000000E+00  0.562714681510E-02
  0.263384620926E-01  0.173086342157E-01 -0.202671510110E-02
  0.263384621054E-01  0.173086342030E-01  0.202671504371E-02
  0.263384625602E-01 -0.173086337506E-01 -0.202671299727E-02
  0.263384625911E-01 -0.173086337198E-01  0.202671285802E-02
  0.267917399219E-01  0.269323890019E-01  0.000000000000E+00
  0.267917416507E-01 -0.269323872821E-01  0.000000000000E+00
  0.275831443406E-01  0.269323892389E-01 -0.175867235209E-03
  0.275831443481E-01  0.269323892315E-01  0.175867201603E-03
  0.275831448840E-01 -0.269323886984E-01 -0.175864790077E-03
  0.275831448242E-01 -0.269323887578E-01  0.175865058972E-03
  0.282070239066E-01  0.832120781432E-02 -0.442872691758E-02
  0.282070239157E-01  0.832120780527E-02  0.442872687666E-02
  0.282070242164E-01 -0.832120750620E-02 -0.442872552375E-02
  0.282070242784E-01 -0.832120744448E-02  0.442872524459E-02
  0.285765414275E-01  0.269323892401E-01 -0.396622149125E-03
  0.285765414219E-01  0.269323892456E-01  0.396622173989E-03
  0.285765419352E-01 -0.269323887350E-01 -0.396619864186E-03
  0.285765419090E-01 -0.269323887611E-01  0.396619982349E-03
  0.291805165918E-01  0.173086342115E-01 -0.265828274764E-02
  0.291805165870E-01  0.173086342163E-01  0.265828276940E-02
  0.291805170680E-01 -0.173086337378E-01 -0.265828060505E-02
  0.291805170796E-01 -0.173086337262E-01  0.265828055251E-02
  0.298155788613E-01  0.269323892710E-01 -0.671963947967E-03
  0.298155788749E-01  0.269323892575E-01  0.671963886784E-03
  0.298155793187E-01 -0.269323888160E-01 -0.671961889668E-03
  0.298155793448E-01 -0.269323887901E-01  0.671961772241E-03
  0.304094177214E-01 -0.515803077918E-26 -0.675764726602E-02
  0.304094177138E-01 -0.998275843407E-26  0.675764730039E-02
  0.313487930139E-01  0.269323892804E-01 -0.101267824858E-02
  0.313487930397E-01  0.269323892548E-01  0.101267813264E-02
  0.313487934351E-01 -0.269323888614E-01 -0.101267635322E-02
  0.313487934795E-01 -0.269323888173E-01  0.101267615357E-02
  0.325138287647E-01  0.173086341937E-01 -0.339901870176E-02
  0.325138287637E-01  0.173086341947E-01  0.339901870593E-02
  0.325138292070E-01 -0.173086337537E-01 -0.339901671119E-02
  0.325138292161E-01 -0.173086337446E-01  0.339901667022E-02
  0.326897184229E-01  0.832120779616E-02 -0.542488116825E-02
  0.326897184148E-01  0.832120780416E-02  0.542488120442E-02
  0.326897187454E-01 -0.832120747537E-02 -0.542487971709E-02
  0.326897187877E-01 -0.832120743326E-02  0.542487952663E-02
  0.332275237628E-01  0.269323892556E-01 -0.143017385289E-02
  0.332275238061E-01  0.269323892126E-01  0.143017365831E-02
  0.332275241699E-01 -0.269323888507E-01 -0.143017202131E-02
  0.332275242001E-01 -0.269323888206E-01  0.143017188524E-02
  0.355021815396E-01  0.269323892260E-01 -0.193565321801E-02
  0.355021815065E-01  0.269323892590E-01  0.193565336726E-02
  0.355021819402E-01 -0.269323888275E-01 -0.193565141533E-02
  0.355021819912E-01 -0.269323887767E-01  0.193565118582E-02
  0.358190161768E-01  0.531958017442E-26 -0.795978022119E-02
  0.358190161670E-01  0.153164577162E-25  0.795978026536E-02
  0.363449618058E-01  0.173086341986E-01 -0.425038162293E-02
  0.363449618228E-01  0.173086341817E-01  0.425038154630E-02
  0.363449622342E-01 -0.173086337724E-01 -0.425037969507E-02
  0.363449622548E-01 -0.173086337519E-01  0.425037960219E-02
  0.369489978141E-01  0.371429696992E-01  0.000000000000E+00
  0.369489992198E-01 -0.371429683008E-01  0.160981251041E-24
  0.375941106563E-01  0.832120779870E-02 -0.651474612111E-02
  0.375941106372E-01  0.832120781774E-02  0.651474620729E-02
  0.375941110113E-01 -0.832120744562E-02 -0.651474452393E-02
  0.375941110134E-01 -0.832120744353E-02  0.651474451447E-02
  0.377009007897E-01  0.371429700079E-01 -0.167089039746E-03
  0.377009007572E-01  0.371429700403E-01  0.167089186170E-03
  0.377009012415E-01 -0.371429695585E-01 -0.167087006703E-03
  0.377009012507E-01 -0.371429695494E-01  0.167086965381E-03
  0.382165407016E-01  0.269323892320E-01 -0.253884417154E-02
  0.382165406605E-01  0.269323892728E-01  0.253884435620E-02
  0.382165411083E-01 -0.269323888274E-01 -0.253884234109E-02
  0.382165411353E-01 -0.269323888006E-01  0.253884221986E-02
  0.386447144174E-01  0.371429700511E-01 -0.376825606296E-03
  0.386447144317E-01  0.371429700369E-01  0.376825541949E-03
  0.386447148390E-01 -0.371429696317E-01 -0.376823708934E-03
  0.386447149426E-01 -0.371429695286E-01  0.376823242646E-03
  0.398219078201E-01  0.371429700504E-01 -0.638424136962E-03
  0.398219078694E-01  0.371429700014E-01  0.638423915123E-03
  0.398219082427E-01 -0.371429696299E-01 -0.638422235003E-03
  0.398219082729E-01 -0.371429695999E-01  0.638422098947E-03
  0.406471378537E-01  0.173086342107E-01 -0.520642080196E-02
  0.406471378680E-01  0.173086341964E-01  0.520642073732E-02
  0.406471383192E-01 -0.173086337476E-01 -0.520641870709E-02
  0.406471383152E-01 -0.173086337516E-01  0.520641872514E-02
  0.412785947302E-01  0.371429700015E-01 -0.962132107217E-03
  0.412785947248E-01  0.371429700069E-01  0.962132131358E-03
  0.412785950811E-01 -0.371429696524E-01 -0.962130528027E-03
  0.412785950949E-01 -0.371429696387E-01  0.962130465944E-03
[...]
POINT_DATA                3023
SCALARS phi float 1
LOOKUP_TABLE default
 -0.129246970711E-25
 -0.135525271561E-19
  0.135525271561E-19
  0.000000000000E+00
  0.271050543121E-19
 -0.542101086243E-19
  0.542101086243E-19
  0.000000000000E+00
  0.000000000000E+00
 -0.108420217249E-18
  0.542101086243E-18
  0.226182198745E-25
  0.775481824268E-25
 -0.271050543121E-19
  0.542101086243E-19
  0.000000000000E+00
  0.000000000000E+00
  0.325260651746E-18
 -0.216840434497E-18
  0.542101086243E-19
 -0.162630325873E-18
  0.542101086243E-19
  0.000000000000E+00
  0.000000000000E+00
 -0.108420217249E-18
 -0.216840434497E-18
  0.108420217249E-18
  0.000000000000E+00
  0.650521303491E-18
  0.216840434497E-18
  0.433680868994E-18
  0.108420217249E-18
  0.000000000000E+00
  0.433680868994E-18
  0.433680868994E-18
  0.216840434497E-18
 -0.433680868994E-18
  0.216840434497E-18
  0.000000000000E+00
  0.129246970711E-25
  0.258493941423E-25
 -0.433680868994E-18
  0.000000000000E+00
 -0.867361737988E-18
  0.650521303491E-18
  0.271050543121E-19
 -0.271050543121E-19
  0.000000000000E+00
  0.000000000000E+00
  0.000000000000E+00
  0.162630325873E-18
 -0.542101086243E-19
  0.162630325873E-18
 -0.108420217249E-18
  0.000000000000E+00
 -0.433680868994E-18
 -0.216840434497E-18
 -0.433680868994E-18
  0.000000000000E+00
  0.216840434497E-18
 -0.433680868994E-18
  0.000000000000E+00
  0.433680868994E-18
 -0.650521303491E-18
 -0.216840434497E-18
  0.650521303491E-18
  0.433680868994E-18
 -0.650521303491E-18
  0.000000000000E+00
 -0.216840434497E-18
 -0.650521303491E-18
 -0.433680868994E-18
 -0.433680868994E-18
  0.433680868994E-18
 -0.130104260698E-17
 -0.173472347598E-17
 -0.433680868994E-18
  0.433680868994E-18
  0.000000000000E+00
 -0.216840434497E-18
  0.216840434497E-18
 -0.193870456067E-25
  0.000000000000E+00
 -0.271050543121E-19
  0.000000000000E+00
 -0.271050543121E-19
  0.000000000000E+00
  0.433680868994E-18
 -0.173472347598E-17
 -0.867361737988E-18
  0.000000000000E+00
  0.000000000000E+00
  0.000000000000E+00
 -0.542101086243E-19
 -0.271050543121E-18
  0.000000000000E+00
  0.867361737988E-18
  0.867361737988E-18
  0.173472347598E-17
 -0.108420217249E-18
 -0.108420217249E-18
  0.000000000000E+00
 -0.542101086243E-18
 -0.867361737988E-18
  0.433680868994E-18
  0.000000000000E+00
 -0.216840434497E-18
 -0.433680868994E-18
  0.216840434497E-18
  0.216840434497E-17
 -0.173472347598E-17
  0.433680868994E-18
  0.173472347598E-17
  0.216840434497E-17
  0.130104260698E-17
 -0.130104260698E-17
  0.260208521397E-17
  0.000000000000E+00
 -0.433680868994E-18
 -0.216840434497E-18
 -0.650521303491E-18
 -0.433680868994E-18
  0.867361737988E-18
  0.000000000000E+00
  0.173472347598E-17
  0.130104260698E-17
  0.216840434497E-17
 -0.216840434497E-17
  0.867361737988E-18
  0.130104260698E-17
 -0.867361737988E-18
  0.000000000000E+00
 -0.775481824268E-25
  0.130104260698E-17
  0.000000000000E+00
 -0.346944695195E-17
  0.346944695195E-17
  0.000000000000E+00
 -0.271050543121E-19
 -0.271050543121E-19
 -0.271050543121E-19
  0.433680868994E-18
  0.000000000000E+00
  0.173472347598E-17
  0.000000000000E+00
  0.000000000000E+00
  0.379470760370E-18
 -0.542101086243E-19
  0.325260651746E-18
  0.216840434497E-18
  0.108420217249E-18
  0.000000000000E+00
  0.000000000000E+00
 -0.867361737988E-18
  0.130104260698E-17
  0.000000000000E+00
  0.130104260698E-17
 -0.216840434497E-18
 -0.433680868994E-18
  0.000000000000E+00
  0.000000000000E+00
  0.130104260698E-17
  0.173472347598E-17
 -0.130104260698E-17
  0.130104260698E-17
  0.867361737988E-18
  0.000000000000E+00
  0.216840434497E-17
  0.433680868994E-18
 -0.867361737988E-18
  0.303576608296E-17
 -0.216840434497E-18
 -0.108420217249E-17
  0.216840434497E-18
  0.867361737988E-18
  0.216840434497E-17
 -0.433680868994E-18
  0.303576608296E-17
  0.867361737988E-18
 -0.130104260698E-17
 -0.867361737988E-18
  0.000000000000E+00
  0.867361737988E-18
  0.000000000000E+00
  0.130104260698E-17
 -0.433680868994E-18
  0.433680868994E-18
  0.646234853557E-26
  0.129246970711E-24
  0.303576608296E-17
 -0.130104260698E-17
  0.433680868994E-18
  0.433680868994E-18
 -0.867361737988E-18
  0.260208521397E-17
 -0.260208521397E-17
 -0.260208521397E-17
  0.000000000000E+00
  0.000000000000E+00
  0.271050543121E-19
  0.271050543121E-19
  0.173472347598E-17
  0.173472347598E-17
  0.173472347598E-17
  0.130104260698E-17
  0.542101086243E-19
  0.162630325873E-18
  0.000000000000E+00
  0.325260651746E-18
  0.216840434497E-18
  0.325260651746E-18
  0.325260651746E-18
  0.325260651746E-18
  0.260208521397E-17
  0.433680868994E-17
  0.520417042793E-17
 -0.260208521397E-17
  0.867361737988E-18
 -0.867361737988E-18
  0.130104260698E-17
 -0.303576608296E-17
  0.216840434497E-18
 -0.216840434497E-18
  0.216840434497E-18
  0.000000000000E+00
  0.000000000000E+00
  0.000000000000E+00
  0.000000000000E+00
  0.650521303491E-18
  0.000000000000E+00
 -0.346944695195E-17
  0.867361737988E-18
  0.000000000000E+00
  0.173472347598E-17
  0.173472347598E-17
  0.867361737988E-18
  0.433680868994E-18
  0.650521303491E-18
  0.000000000000E+00
 -0.216840434497E-18
 -0.216840434497E-18
  0.867361737988E-18
 -0.173472347598E-17
  0.260208521397E-17
  0.867361737988E-18
 -0.433680868994E-18
  0.867361737988E-18
  0.433680868994E-18
  0.867361737988E-18
  0.433680868994E-17
  0.693889390391E-17
  0.000000000000E+00
 -0.867361737988E-18
  0.346944695195E-17
  0.433680868994E-17
  0.693889390391E-17
 -0.260208521397E-17
  0.258493941423E-25
 -0.516987882846E-25
  0.000000000000E+00
  0.000000000000E+00
  0.000000000000E+00
 -0.271050543121E-19
  0.108420217249E-18
 -0.119262238973E-17
  0.000000000000E+00
 -0.216840434497E-17
  0.433680868994E-18
  0.867361737988E-18
  0.433680868994E-18
  0.130104260698E-17
 -0.108420217249E-18
 -0.867361737988E-18
 -0.108420217249E-18
 -0.411996825544E-17
  0.173472347598E-17
  0.433680868994E-17
  0.000000000000E+00
  0.000000000000E+00
 -0.108420217249E-18
 -0.108420217249E-18
  0.000000000000E+00
  0.325260651746E-18
  0.867361737988E-18
 -0.867361737988E-18
  0.260208521397E-17
  0.260208521397E-17
 -0.867361737988E-18
 -0.433680868994E-18
  0.130104260698E-17
 -0.433680868994E-18
  0.216840434497E-18
 -0.433680868994E-18
  0.000000000000E+00
 -0.867361737988E-18
  0.650521303491E-18
  0.000000000000E+00
 -0.867361737988E-18
 -0.867361737988E-18
  0.346944695195E-17
 -0.260208521397E-17
 -0.607153216592E-17
 -0.260208521397E-17
 -0.173472347598E-17
  0.607153216592E-17
  0.867361737988E-18
  0.433680868994E-17
  0.173472347598E-17
  0.867361737988E-18
 -0.433680868994E-18
  0.433680868994E-18
 -0.433680868994E-18
  0.867361737988E-18
  0.646234853557E-25
 -0.155096364854E-24
  0.271050543121E-19
  0.542101086243E-19
  0.271050543121E-19
  0.000000000000E+00
  0.000000000000E+00
 -0.867361737988E-18
  0.000000000000E+00
 -0.216840434497E-17
  0.542101086243E-19
 -0.140946282423E-17
  0.542101086243E-19
  0.271050543121E-18
  0.867361737988E-18
  0.780625564190E-17
  0.954097911787E-17
 -0.346944695195E-17
  0.173472347598E-17
 -0.173472347598E-17
 -0.260208521397E-17
 -0.346944695195E-17
  0.108420217249E-18
  0.975781955237E-18
  0.216840434497E-18
 -0.975781955237E-18
  0.173472347598E-17
 -0.346944695195E-17
  0.000000000000E+00
  0.867361737988E-18
 -0.108420217249E-18
 -0.216840434497E-18
 -0.542101086243E-18
 -0.216840434497E-18
  0.867361737988E-18
 -0.303576608296E-17
  0.173472347598E-17
  0.173472347598E-17
 -0.433680868994E-18
 -0.216840434497E-18
 -0.108420217249E-17
  0.433680868994E-18
  0.867361737988E-18
  0.520417042793E-17
  0.173472347598E-17
  0.520417042793E-17
 -0.151788304148E-17
  0.130104260698E-17
 -0.433680868994E-18
  0.130104260698E-17
  0.000000000000E+00
  0.000000000000E+00
  0.520417042793E-17
  0.173472347598E-17
  0.433680868994E-17
  0.000000000000E+00
  0.867361737988E-18
  0.520417042793E-17
 -0.433680868994E-18
  0.433680868994E-18
  0.433680868994E-18
  0.000000000000E+00
  0.867361737988E-17
  0.780625564190E-17
  0.260208521397E-17
  0.000000000000E+00
 -0.433680868994E-17
 -0.346944695195E-17
 -0.520417042793E-17
 -0.346944695195E-17
 -0.433680868994E-18
 -0.216840434497E-17
  0.433680868994E-18
  0.000000000000E+00
 -0.646234853557E-26
  0.000000000000E+00
  0.000000000000E+00
  0.000000000000E+00
 -0.542101086243E-19
  0.271050543121E-19
  0.162630325873E-18
  0.487890977618E-18
  0.000000000000E+00
 -0.325260651746E-18
 -0.108420217249E-18
  0.108420217249E-18
  0.000000000000E+00
 -0.140946282423E-17
  0.867361737988E-18
 -0.173472347598E-17
 -0.173472347598E-17
 -0.130104260698E-17
  0.000000000000E+00
  0.000000000000E+00
  0.000000000000E+00
  0.108420217249E-18
 -0.173472347598E-17
 -0.260208521397E-17
 -0.104083408559E-16
  0.433680868994E-17
 -0.867361737988E-18
 -0.260208521397E-17
 -0.867361737988E-18
 -0.607153216592E-17
  0.216840434497E-18
  0.433680868994E-18
  0.000000000000E+00
  0.216840434497E-18
  0.260208521397E-17
 -0.346944695195E-17
  0.000000000000E+00
  0.260208521397E-17
  0.000000000000E+00
 -0.433680868994E-18
 -0.650521303491E-18
  0.000000000000E+00
  0.346944695195E-17
  0.173472347598E-17
  0.173472347598E-17
  0.693889390391E-17
  0.433680868994E-18
  0.216840434497E-17
 -0.130104260698E-17
 -0.173472347598E-17
 -0.867361737988E-18
 -0.607153216592E-17
  0.433680868994E-17
 -0.346944695195E-17
  0.000000000000E+00
 -0.867361737988E-18
 -0.130104260698E-17
 -0.433680868994E-18
 -0.433680868994E-18
  0.130104260698E-17
 -0.520417042793E-17
 -0.260208521397E-17
  0.130104260698E-16
  0.433680868994E-17
  0.129246970711E-25
 -0.258493941423E-25
  0.000000000000E+00
  0.271050543121E-19
  0.542101086243E-19
  0.000000000000E+00
  0.000000000000E+00
  0.596311194867E-18
  0.542101086243E-19
 -0.216840434497E-18
  0.260208521397E-17
  0.867361737988E-18
  0.867361737988E-18
  0.780625564190E-17
  0.130104260698E-17
  0.173472347598E-17
  0.000000000000E+00
 -0.433680868994E-18
  0.000000000000E+00
 -0.867361737988E-18
 -0.271050543121E-18
  0.162630325873E-18
 -0.433680868994E-18
  0.000000000000E+00
  0.867361737988E-18
 -0.130104260698E-17
 -0.108420217249E-18
 -0.433680868994E-18
 -0.216840434497E-18
  0.108420217249E-18
 -0.216840434497E-18
 -0.650521303491E-18
 -0.216840434497E-18
  0.216840434497E-18
  0.000000000000E+00
  0.130104260698E-17
 -0.216840434497E-17
 -0.867361737988E-18
  0.346944695195E-17
 -0.346944695195E-17
  0.173472347598E-17
  0.867361737988E-18
  0.000000000000E+00
  0.000000000000E+00
  0.216840434497E-18
  0.000000000000E+00
 -0.433680868994E-17
  0.607153216592E-17
  0.780625564190E-17
  0.520417042793E-17
 -0.216840434497E-18
 -0.433680868994E-18
 -0.216840434497E-17
 -0.216840434497E-18
 -0.607153216592E-17
 -0.173472347598E-17
 -0.520417042793E-17
  0.000000000000E+00
  0.390312782095E-17
 -0.173472347598E-17
 -0.346944695195E-17
 -0.477048955894E-17
 -0.260208521397E-17
 -0.433680868994E-18
  0.216840434497E-17
  0.867361737988E-18
 -0.260208521397E-17
  0.867361737988E-18
  0.520417042793E-17
  0.867361737988E-18
  0.387740912134E-25
  0.103397576569E-24
  0.135525271561E-19
  0.000000000000E+00
 -0.271050543121E-19
  0.000000000000E+00
  0.000000000000E+00
 -0.130104260698E-17
  0.433680868994E-18
  0.433680868994E-18
  0.108420217249E-18
 -0.542101086243E-19
 -0.108420217249E-18
 -0.189735380185E-17
  0.542101086243E-19
 -0.542101086243E-19
 -0.108420217249E-18
 -0.108420217249E-18
  0.346944695195E-17
 -0.563785129692E-17
  0.216840434497E-17
  0.346944695195E-17
  0.325260651746E-18
  0.216840434497E-18
 -0.433680868994E-18
 -0.216840434497E-18
  0.867361737988E-18
 -0.867361737988E-17
  0.867361737988E-18
  0.520417042793E-17
  0.000000000000E+00
 -0.216840434497E-17
 -0.130104260698E-17
  0.216840434497E-17
  0.173472347598E-17
 -0.260208521397E-17
  0.867361737988E-18
  0.173472347598E-17
 -0.108420217249E-18
 -0.108420217249E-18
 -0.216840434497E-18
 -0.108420217249E-18
  0.000000000000E+00
  0.000000000000E+00
  0.216840434497E-18
  0.173472347598E-17
 -0.346944695195E-17
 -0.433680868994E-17
  0.000000000000E+00
 -0.520417042793E-17
 -0.650521303491E-18
  0.000000000000E+00
  0.000000000000E+00
  0.173472347598E-17
  0.173472347598E-17
 -0.867361737988E-18
  0.130104260698E-17
 -0.346944695195E-17
  0.000000000000E+00
 -0.867361737988E-18
 -0.303576608296E-17
  0.000000000000E+00
 -0.216840434497E-17
 -0.867361737988E-18
 -0.260208521397E-17
  0.260208521397E-17
 -0.433680868994E-17
  0.867361737988E-18
 -0.867361737988E-18
  0.867361737988E-18
 -0.130104260698E-17
  0.000000000000E+00
 -0.775481824268E-25
 -0.258493941423E-25
  0.000000000000E+00
 -0.260208521397E-17
 -0.104083408559E-16
 -0.520417042793E-17
  0.135525271561E-19
  0.000000000000E+00
 -0.135525271561E-19
  0.271050543121E-19
  0.000000000000E+00
  0.433680868994E-18
  0.542101086243E-19
 -0.433680868994E-18
  0.000000000000E+00
  0.173472347598E-17
 -0.346944695195E-17
  0.346944695195E-17
  0.216840434497E-18
 -0.271050543121E-18
  0.000000000000E+00
 -0.113841228111E-17
  0.303576608296E-17
 -0.737257477290E-17
 -0.433680868994E-17
 -0.867361737988E-18
  0.390312782095E-17
 -0.433680868994E-18
  0.130104260698E-17
  0.130104260698E-17
 -0.216840434497E-18
 -0.542101086243E-18
 -0.325260651746E-18
  0.216840434497E-18
 -0.108420217249E-18
 -0.108420217249E-18
 -0.325260651746E-18
  0.108420217249E-18
  0.563785129692E-17
  0.303576608296E-17
 -0.346944695195E-17
  0.173472347598E-17
  0.216840434497E-18
 -0.867361737988E-18
 -0.433680868994E-18
 -0.216840434497E-18
 -0.173472347598E-17
  0.260208521397E-17
  0.867361737988E-18
  0.260208521397E-17
  0.216840434497E-18
  0.216840434497E-18
  0.433680868994E-18
  0.650521303491E-18
  0.173472347598E-17
 -0.867361737988E-18
  0.173472347598E-17
  0.260208521397E-17
  0.433680868994E-17
 -0.260208521397E-17
  0.867361737988E-18
 -0.173472347598E-17
  0.216840434497E-18
 -0.650521303491E-18
 -0.433680868994E-18
  0.433680868994E-18
 -0.607153216592E-17
  0.104083408559E-16
  0.433680868994E-17
  0.520417042793E-17
  0.867361737988E-18
  0.000000000000E+00
 -0.130104260698E-17
  0.867361737988E-18
  0.433680868994E-18
 -0.173472347598E-17
 -0.173472347598E-17
  0.216840434497E-17
 -0.173472347598E-17
 -0.260208521397E-17
 -0.867361737988E-18
 -0.260208521397E-17
  0.516987882846E-25
  0.155096364854E-24
 -0.135525271561E-19
 -0.135525271561E-19
 -0.135525271561E-19
  0.135525271561E-19
 -0.433680868994E-18
  0.520417042793E-17
 -0.303576608296E-17
 -0.346944695195E-17
 -0.542101086243E-19
 -0.379470760370E-18
  0.000000000000E+00
 -0.108420217249E-18
  0.216840434497E-17
  0.173472347598E-17
  0.130104260698E-17
 -0.433680868994E-18
 -0.108420217249E-18
 -0.108420217249E-18
  0.542101086243E-19
 -0.542101086243E-19
  0.216840434497E-18
 -0.108420217249E-18
 -0.216840434497E-18
  0.108420217249E-18
  0.216840434497E-18
  0.108420217249E-18
  0.108420217249E-18
  0.542101086243E-18
  0.000000000000E+00
 -0.433680868994E-18
  0.433680868994E-18
  0.000000000000E+00
  0.867361737988E-18
  0.216840434497E-18
  0.000000000000E+00
  0.216840434497E-18
  0.520417042793E-17
  0.433680868994E-17
  0.867361737988E-17
 -0.867361737988E-18
 -0.477048955894E-17
 -0.130104260698E-17
 -0.867361737988E-18
 -0.216840434497E-17
  0.867361737988E-18
 -0.867361737988E-18
 -0.216840434497E-18
  0.130104260698E-17
  0.303576608296E-17
  0.433680868994E-17
  0.173472347598E-17
 -0.867361737988E-18
 -0.260208521397E-17
  0.520417042793E-17
  0.520417042793E-17
  0.867361737988E-18
 -0.433680868994E-18
 -0.130104260698E-17
  0.216840434497E-18
  0.433680868994E-18
 -0.325260651746E-17
  0.216840434497E-18
 -0.433680868994E-18
 -0.867361737988E-18
  0.000000000000E+00
  0.000000000000E+00
  0.000000000000E+00
  0.867361737988E-18
  0.260208521397E-17
 -0.607153216592E-17
  0.258493941423E-25
  0.516987882846E-25
  0.346944695195E-17
 -0.563785129692E-17
  0.867361737988E-18
 -0.346944695195E-17
  0.406575814682E-19
  0.000000000000E+00
  0.000000000000E+00
  0.000000000000E+00
  0.867361737988E-18
 -0.130104260698E-17
  0.867361737988E-18
  0.216840434497E-17
 -0.271050543121E-19
  0.813151629364E-19
  0.271050543121E-19
 -0.542101086243E-19
 -0.650521303491E-18
 -0.650521303491E-18
 -0.108420217249E-17
  0.151788304148E-17
 -0.542101086243E-19
  0.271050543121E-18
 -0.216840434497E-18
  0.162630325873E-18
 -0.542101086243E-19
 -0.542101086243E-19
 -0.108420217249E-18
 -0.216840434497E-18
  0.346944695195E-17
  0.173472347598E-17
  0.260208521397E-17
 -0.867361737988E-18
 -0.130104260698E-17
  0.867361737988E-18
  0.867361737988E-18
 -0.130104260698E-17
  0.000000000000E+00
 -0.325260651746E-18
  0.108420217249E-18
 -0.108420217249E-18
  0.867361737988E-18
 -0.520417042793E-17
 -0.954097911787E-17
 -0.607153216592E-17
 -0.325260651746E-18
 -0.433680868994E-18
  0.325260651746E-18
 -0.433680868994E-18
 -0.108420217249E-17
  0.325260651746E-17
  0.000000000000E+00
 -0.411996825544E-17
  0.216840434497E-18
  0.000000000000E+00
  0.433680868994E-18
 -0.216840434497E-18
  0.867361737988E-18
  0.173472347598E-17
  0.130104260698E-17
  0.173472347598E-17
 -0.130104260698E-17
 -0.867361737988E-18
  0.346944695195E-17
  0.173472347598E-17
  0.433680868994E-18
 -0.216840434497E-18
 -0.216840434497E-18
  0.000000000000E+00
 -0.173472347598E-17
  0.520417042793E-17
 -0.520417042793E-17
  0.867361737988E-18
 -0.867361737988E-18
 -0.867361737988E-18
  0.867361737988E-18
  0.433680868994E-18
 -0.195156391047E-17
 -0.130104260698E-17
 -0.173472347598E-17
  0.130104260698E-17
 -0.260208521397E-17
  0.173472347598E-17
 -0.520417042793E-17
 -0.260208521397E-17
  0.216840434497E-17
  0.130104260698E-17
 -0.303576608296E-17
  0.000000000000E+00
 -0.129246970711E-25
 -0.775481824268E-25
 -0.135525271561E-19
 -0.271050543121E-19
  0.000000000000E+00
  0.000000000000E+00
  0.000000000000E+00
 -0.514996031931E-18
 -0.542101086243E-19
  0.216840434497E-18
  0.433680868994E-17
 -0.867361737988E-18
 -0.346944695195E-17
  0.867361737988E-18
 -0.108420217249E-18
  0.000000000000E+00
  0.000000000000E+00
  0.216840434497E-18
  0.130104260698E-17
  0.433680868994E-17
  0.130104260698E-17
  0.433680868994E-18
  0.542101086243E-19
  0.108420217249E-18
  0.000000000000E+00
  0.216840434497E-18
 -0.433680868994E-18
 -0.867361737988E-18
 -0.433680868994E-18
  0.000000000000E+00
 -0.151788304148E-17
  0.455364912444E-17
 -0.455364912444E-17
  0.151788304148E-17
 -0.325260651746E-18
  0.000000000000E+00
  0.000000000000E+00
 -0.108420217249E-18
 -0.108420217249E-18
  0.433680868994E-18
  0.325260651746E-18
 -0.108420217249E-18
  0.000000000000E+00
 -0.130104260698E-17
 -0.867361737988E-18
  0.433680868994E-18
  0.433680868994E-18
  0.000000000000E+00
  0.867361737988E-18
  0.000000000000E+00
  0.867361737988E-18
 -0.216840434497E-18
 -0.650521303491E-18
  0.433680868994E-18
  0.650521303491E-18
 -0.867361737988E-18
  0.346944695195E-17
  0.000000000000E+00
  0.520417042793E-17
  0.104083408559E-16
 -0.346944695195E-17
  0.260208521397E-17
  0.520417042793E-17
  0.000000000000E+00
  0.130104260698E-17
  0.130104260698E-17
 -0.216840434497E-18
 -0.260208521397E-17
 -0.607153216592E-17
 -0.130104260698E-17
 -0.173472347598E-17
  0.433680868994E-18
  0.650521303491E-18
  0.216840434497E-18
  0.650521303491E-18
  0.108420217249E-17
 -0.477048955894E-17
  0.216840434497E-18
  0.325260651746E-17
  0.151788304148E-17
  0.173472347598E-17
  0.867361737988E-18
  0.346944695195E-17
 -0.520417042793E-17
  0.433680868994E-18
  0.173472347598E-17
  0.130104260698E-17
  0.173472347598E-17
 -0.387740912134E-25
  0.155096364854E-24
  0.135525271561E-19
  0.000000000000E+00
  0.000000000000E+00
  0.000000000000E+00
  0.271050543121E-19
 -0.322550146314E-17
  0.271050543121E-19
 -0.159919820442E-17
  0.542101086243E-19
 -0.271050543121E-18
  0.000000000000E+00
 -0.542101086243E-19
  0.433680868994E-18
  0.867361737988E-18
  0.000000000000E+00
  0.867361737988E-18
  0.542101086243E-19
  0.000000000000E+00
  0.000000000000E+00
  0.108420217249E-18
 -0.867361737988E-18