# vtk DataFile Version 3.0
MachLine results file. Generated by MachLine, USU AeroLab (c) 2022.
ASCII
DATASET POLYDATA
POINTS                 410 float
  0.220300179032E-08 -0.000000000000E+00  0.000000000000E+00
  0.682783181440E-02 -0.103522189412E-24  0.686367196682E-02
  0.171884711997E-01  0.763931866491E-02  0.000000000000E+00
  0.171884712915E-01 -0.763931845824E-02  0.000000000000E+00
  0.238990869757E-01  0.758722294965E-02  0.686367313856E-02
  0.238990869416E-01 -0.758722302630E-02  0.686367317245E-02
  0.271250763095E-01 -0.141246099706E-24  0.272674702547E-01
  0.438478858868E-01  0.743235754080E-02  0.272674718040E-01
  0.438478858907E-01 -0.743235753201E-02  0.272674718001E-01
  0.621884709445E-01  0.276393192390E-01  0.000000000000E+00
  0.621884711710E-01 -0.276393187295E-01  0.000000000000E+00
  0.685922160865E-01  0.274508364692E-01  0.686367335320E-02
  0.685922161603E-01 -0.274508363031E-01  0.686367327974E-02
  0.603380784482E-01 -0.233223080741E-24  0.606548315576E-01
  0.764907164856E-01  0.717894724881E-02  0.606548330822E-01
  0.764907164809E-01 -0.717894725943E-02  0.606548330869E-01
  0.876287736636E-01  0.268905303212E-01  0.272674719646E-01
  0.876287737088E-01 -0.268905302194E-01  0.272674719196E-01
  0.117811530003E+00  0.523606786300E-01  0.000000000000E+00
  0.117811529960E+00 -0.523606787261E-01  0.000000000000E+00
  0.123835961974E+00  0.520036126546E-01  0.686367344011E-02
  0.123835961944E+00 -0.520036127207E-01  0.686367346932E-02
  0.105560874875E+00  0.687474819239E-24  0.106115034935E+00
  0.118778875716E+00  0.259736851478E-01  0.606548332533E-01
  0.118778875800E+00 -0.259736849585E-01  0.606548331696E-01
  0.141744927005E+00  0.509421547453E-01  0.272674722293E-01
  0.141744927245E+00 -0.509421542034E-01  0.272674719898E-01
  0.129142093527E+00  0.104805382658E-01  0.106115036794E+00
  0.129142093645E+00 -0.104805380018E-01  0.106115036678E+00
  0.162811529977E+00  0.723606786889E-01  0.000000000000E+00
  0.162811530038E+00 -0.723606785501E-01  0.000000000000E+00
  0.168529091166E+00  0.718672259926E-01  0.686367357451E-02
  0.168529091415E+00 -0.718672254308E-01  0.686367332614E-02
  0.180000000191E+00  0.799999987426E-01  0.000000000000E+00
  0.180000000244E+00 -0.799999983910E-01  0.000000000000E+00
  0.171049915287E+00  0.492052585425E-01  0.606548333464E-01
  0.171049915286E+00 -0.492052585448E-01  0.606548333474E-01
  0.185600347282E+00  0.794544503674E-01  0.686367370310E-02
  0.185600347207E+00 -0.794544508665E-01  0.686367380455E-02
  0.190279555864E+00  0.789971150374E-01  0.000000000000E+00
  0.190279555900E+00 -0.789971154138E-01  0.000000000000E+00
  0.185525814842E+00  0.704003273888E-01  0.272674723295E-01
  0.185525815016E+00 -0.704003269961E-01  0.272674721559E-01
  0.161559905431E+00 -0.648494458922E-24  0.162408044703E+00
  0.195809802993E+00  0.784584060540E-01  0.686367406277E-02
  0.195809802959E+00 -0.784584057051E-01  0.686367406281E-02
  0.186072195698E+00  0.357828065187E-01  0.106115037024E+00
  0.186072195841E+00 -0.357828061961E-01  0.106115036881E+00
  0.202248625424E+00  0.778326881104E-01  0.272674727976E-01
  0.202248625498E+00 -0.778326876235E-01  0.272674726987E-01
  0.183666800970E+00  0.982528344118E-02  0.162408047078E+00
  0.183666801198E+00 -0.982528292847E-02  0.162408046851E+00
  0.212249693636E+00  0.768569735219E-01  0.272674731145E-01
  0.212249693645E+00 -0.768569736108E-01  0.272674731144E-01
  0.220602763969E+00  0.760387527624E-01  0.000000000000E+00
  0.220602764023E+00 -0.760387533084E-01  0.000000000000E+00
  0.213338074509E+00  0.679999964604E-01  0.606548335258E-01
  0.213338074601E+00 -0.679999962529E-01  0.606548334340E-01
  0.225926226606E+00  0.755202181510E-01  0.686367406280E-02
  0.225926226634E+00 -0.755202184376E-01  0.686367406276E-02
  0.229490713150E+00  0.751789477883E-01  0.606548343161E-01
  0.229490713214E+00 -0.751789472215E-01  0.606548342185E-01
  0.241751404284E+00  0.739787580760E-01  0.272674731144E-01
  0.241751404235E+00 -0.739787575731E-01  0.272674731145E-01
  0.240686601335E+00  0.740866651822E-01  0.606548347057E-01
  0.240686601328E+00 -0.740866651096E-01  0.606548347057E-01
  0.243002297905E+00  0.610850746881E-01  0.106115037216E+00
  0.243002298002E+00 -0.610850744697E-01  0.106115037120E+00
  0.237037573559E+00  0.335456273727E-01  0.162408047284E+00
  0.237037573764E+00 -0.335456269115E-01  0.162408047080E+00
  0.269449091975E+00  0.712732571147E-01  0.000000000000E+00
  0.269449092042E+00 -0.712732578054E-01  0.000000000000E+00
  0.226807661824E+00  0.871750419927E-24  0.227998335013E+00
  0.274439454511E+00  0.707872203155E-01  0.686367406280E-02
  0.274439454519E+00 -0.707872203979E-01  0.686367406279E-02
  0.273623603203E+00  0.708732992767E-01  0.606548347057E-01
  0.273623603223E+00 -0.708732994797E-01  0.606548347056E-01
  0.266583517328E+00  0.715656174050E-01  0.106115038134E+00
  0.266583517371E+00 -0.715656170201E-01  0.106115038068E+00
  0.247196737677E+00  0.906180767862E-02  0.227998337290E+00
  0.247196737709E+00 -0.906180760786E-02  0.227998337259E+00
  0.289274417940E+00  0.693423667126E-01  0.272674731144E-01
  0.289274417914E+00 -0.693423664547E-01  0.272674731144E-01
  0.277241296790E+00  0.705258331315E-01  0.106115038646E+00
  0.277241296826E+00 -0.705258335022E-01  0.106115038646E+00
  0.290408346128E+00  0.572659713498E-01  0.162408047510E+00
  0.290408346316E+00 -0.572659709259E-01  0.162408047323E+00
  0.308595245918E+00  0.674669118353E-01  0.106115038646E+00
  0.308595245924E+00 -0.674669118941E-01  0.106115038646E+00
  0.334369181013E+00  0.649395897664E-01  0.000000000000E+00
  0.334369181039E+00 -0.649395900309E-01  0.000000000000E+00
  0.326387539399E+00  0.657255986782E-01  0.606548347056E-01
  0.326387539396E+00 -0.657255986498E-01  0.606548347056E-01
  0.296420326368E+00  0.309389589717E-01  0.227998337572E+00
  0.296420326573E+00 -0.309389585098E-01  0.227998337368E+00
  0.338916830809E+00  0.644967440336E-01  0.686367406286E-02
  0.338916830853E+00 -0.644967444796E-01  0.686367406281E-02
  0.312515242899E+00  0.670912591638E-01  0.162408048442E+00
  0.312515242900E+00 -0.670912591559E-01  0.162408048440E+00
  0.324231398753E+00  0.659482194037E-01  0.162408049079E+00
  0.324231398765E+00 -0.659482195241E-01  0.162408049079E+00
  0.299524355659E+00 -0.000000000000E+00  0.301096773418E+00
  0.352435732246E+00  0.631802872989E-01  0.272674731144E-01
  0.352435732223E+00 -0.631802870641E-01  0.272674731144E-01
  0.317998972488E+00  0.821093682719E-02  0.301096775391E+00
  0.317998972481E+00 -0.821093684258E-02  0.301096775398E+00
  0.358823186354E+00  0.625666251218E-01  0.106115038646E+00
  0.358823186361E+00 -0.625666251870E-01  0.106115038646E+00
  0.345643915076E+00  0.528161102239E-01  0.227998337836E+00
  0.345643915368E+00 -0.528161095675E-01  0.227998337546E+00
  0.358581431988E+00  0.625969967864E-01  0.162408049079E+00
  0.358581431957E+00 -0.625969964708E-01  0.162408049079E+00
  0.395911961664E+00  0.589427282773E-01  0.606548347056E-01
  0.395911961668E+00 -0.589427283161E-01  0.606548347056E-01
  0.366032992043E+00  0.618779225997E-01  0.227998338783E+00
  0.366032992074E+00 -0.618779223292E-01  0.227998338737E+00
  0.412107666646E+00  0.573553463301E-01  0.000000000000E+00
  0.412107666699E+00 -0.573553468668E-01  0.000000000000E+00
  0.416125190662E+00  0.569642204828E-01  0.686367406294E-02
  0.416125190657E+00 -0.569642204393E-01  0.686367406294E-02
  0.362600647585E+00  0.280339040753E-01  0.301096775590E+00
  0.362600647642E+00 -0.280339039475E-01  0.301096775533E+00
  0.378878756508E+00  0.606246764847E-01  0.227998339426E+00
  0.378878756515E+00 -0.606246765577E-01  0.227998339426E+00
  0.428068175091E+00  0.558015114792E-01  0.272674731145E-01
  0.428068175077E+00 -0.558015113402E-01  0.272674731145E-01
  0.413224443800E+00  0.572659713668E-01  0.162408049079E+00
  0.413224443816E+00 -0.572659715359E-01  0.162408049079E+00
  0.425006052857E+00  0.561097607300E-01  0.106115038646E+00
  0.425006052844E+00 -0.561097606054E-01  0.106115038646E+00
  0.377726465948E+00 -0.162345004812E-24  0.379709424214E+00
  0.416375364991E+00  0.569664710914E-01  0.227998339425E+00
  0.416375364929E+00 -0.569664704589E-01  0.227998339426E+00
  0.407202322700E+00  0.478568712830E-01  0.301096775771E+00
  0.407202322801E+00 -0.478568710558E-01  0.301096775670E+00
  0.405749887256E+00  0.124548498016E-01  0.379709426355E+00
  0.405749887091E+00 -0.124548501738E-01  0.379709426519E+00
  0.425676940212E+00  0.560678127521E-01  0.301096776814E+00
  0.425676940279E+00 -0.560678121663E-01  0.301096776713E+00
  0.478156363266E+00  0.509188836112E-01  0.606548347057E-01
  0.478156363333E+00 -0.509188842891E-01  0.606548347056E-01
  0.439740729947E+00  0.546957346655E-01  0.301096777544E+00
  0.439740729993E+00 -0.546957351379E-01  0.301096777544E+00
  0.498766416667E+00  0.489008331432E-01  0.000000000000E+00
  0.498766416734E+00 -0.489008338352E-01  0.000000000000E+00
  0.502192984488E+00  0.485673616250E-01  0.686367406305E-02
  0.502192984541E+00 -0.485673621645E-01  0.686367406298E-02
  0.484436603296E+00  0.503184443365E-01  0.162408049079E+00
  0.484436603282E+00 -0.503184441951E-01  0.162408049079E+00
  0.512379220090E+00  0.475760430414E-01  0.272674731146E-01
  0.512379220130E+00 -0.475760434587E-01  0.272674731145E-01
  0.475485064397E+00  0.511996715253E-01  0.227998339425E+00
  0.475485064333E+00 -0.511996708689E-01  0.227998339426E+00
  0.503297537690E+00  0.484715671199E-01  0.106115038646E+00
  0.503297537744E+00 -0.484715676748E-01  0.106115038646E+00
  0.461796733953E+00  0.373645600509E-01  0.379709426578E+00
  0.461796733874E+00 -0.373645602284E-01  0.379709426657E+00
  0.480555440300E+00  0.507138118544E-01  0.301096777544E+00
  0.480555440359E+00 -0.507138124511E-01  0.301096777544E+00
  0.459280842252E+00 -0.000000000000E+00  0.461691939939E+00
  0.489820155945E+00  0.498194145578E-01  0.379709427747E+00
[...]
POINT_DATA                 410
SCALARS phi float 1
LOOKUP_TABLE default
  0.000000000000E+00
  0.000000000000E+00
 -0.151788304148E-17
  0.867361737988E-18
  0.000000000000E+00
  0.867361737988E-18
  0.000000000000E+00
  0.346944695195E-17
  0.000000000000E+00
  0.867361737988E-18
  0.173472347598E-17
  0.173472347598E-17
 -0.173472347598E-17
  0.000000000000E+00
  0.000000000000E+00
 -0.173472347598E-17
  0.346944695195E-17
 -0.346944695195E-17
 -0.693889390391E-17
  0.173472347598E-17
  0.173472347598E-17
 -0.346944695195E-17
 -0.173472347598E-17
  0.520417042793E-17
 -0.173472347598E-17
 -0.693889390391E-17
 -0.138777878078E-16
 -0.520417042793E-17
 -0.173472347598E-17
  0.104083408559E-16
  0.693889390391E-17
 -0.346944695195E-17
  0.173472347598E-16
 -0.104083408559E-16
 -0.173472347598E-16
  0.346944695195E-17
  0.104083408559E-16
 -0.693889390391E-17
 -0.208166817117E-16
 -0.693889390391E-17
  0.000000000000E+00
  0.104083408559E-16
 -0.693889390391E-17
  0.000000000000E+00
  0.000000000000E+00
  0.346944695195E-17
  0.000000000000E+00
  0.000000000000E+00
  0.104083408559E-16
  0.000000000000E+00
 -0.346944695195E-17
 -0.346944695195E-17
  0.693889390391E-17
 -0.104083408559E-16
  0.000000000000E+00
  0.693889390391E-17
  0.000000000000E+00
  0.000000000000E+00
 -0.693889390391E-17
  0.693889390391E-17
  0.000000000000E+00
 -0.173472347598E-16
 -0.693889390391E-17
 -0.693889390391E-17
  0.104083408559E-16
  0.693889390391E-17
  0.693889390391E-17
 -0.346944695195E-17
 -0.242861286637E-16
  0.346944695195E-17
  0.346944695195E-17
 -0.346944695195E-17
  0.520417042793E-17
  0.208166817117E-16
  0.173472347598E-16
  0.693889390391E-17
  0.173472347598E-16
  0.000000000000E+00
 -0.138777878078E-16
  0.138777878078E-16
  0.346944695195E-17
 -0.104083408559E-16
  0.000000000000E+00
 -0.138777878078E-16
  0.346944695195E-17
 -0.138777878078E-16
 -0.138777878078E-16
 -0.693889390391E-17
  0.138777878078E-16
 -0.104083408559E-16
  0.104083408559E-16
 -0.346944695195E-17
  0.346944695195E-17
  0.000000000000E+00
  0.693889390391E-17
  0.346944695195E-17
  0.000000000000E+00
  0.000000000000E+00
 -0.208166817117E-16
 -0.693889390391E-17
 -0.138777878078E-16
  0.000000000000E+00
 -0.173472347598E-16
  0.208166817117E-16
 -0.312250225676E-16
  0.138777878078E-16
  0.346944695195E-17
  0.346944695195E-17
 -0.208166817117E-16
 -0.693889390391E-17
  0.693889390391E-17
 -0.277555756156E-16
  0.104083408559E-16
  0.000000000000E+00
  0.346944695195E-16
  0.000000000000E+00
  0.000000000000E+00
  0.693889390391E-17
  0.693889390391E-17
 -0.173472347598E-16
 -0.346944695195E-16
 -0.693889390391E-17
 -0.693889390391E-17
 -0.346944695195E-16
  0.693889390391E-17
 -0.208166817117E-16
  0.346944695195E-17
  0.138777878078E-16
 -0.312250225676E-16
  0.346944695195E-17
  0.312250225676E-16
 -0.208166817117E-16
  0.277555756156E-16
  0.693889390391E-17
  0.138777878078E-16
  0.693889390391E-17
 -0.346944695195E-16
  0.138777878078E-16
 -0.277555756156E-16
  0.346944695195E-17
 -0.208166817117E-16
 -0.346944695195E-16
  0.416333634234E-16
  0.138777878078E-16
 -0.693889390391E-17
 -0.693889390391E-17
 -0.138777878078E-16
 -0.173472347598E-16
 -0.138777878078E-16
 -0.346944695195E-17
  0.693889390391E-17
 -0.242861286637E-16
 -0.693889390391E-17
  0.138777878078E-16
 -0.693889390391E-17
  0.000000000000E+00
  0.693889390391E-17
 -0.693889390391E-17
 -0.208166817117E-16
 -0.104083408559E-16
  0.000000000000E+00
 -0.693889390391E-17
  0.208166817117E-16
 -0.693889390391E-17
 -0.485722573274E-16
  0.138777878078E-16
  0.173472347598E-16
 -0.138777878078E-16
 -0.225514051877E-16
 -0.121430643318E-16
  0.346944695195E-17
 -0.693889390391E-17
 -0.346944695195E-17
  0.693889390391E-17
  0.104083408559E-16
 -0.173472347598E-16
 -0.381639164715E-16
  0.693889390391E-17
 -0.104083408559E-16
  0.190819582357E-16
 -0.520417042793E-17
 -0.693889390391E-17
  0.693889390391E-17
 -0.485722573274E-16
 -0.208166817117E-16
  0.693889390391E-17
  0.000000000000E+00
 -0.138777878078E-16
  0.000000000000E+00
 -0.277555756156E-16
 -0.138777878078E-16
  0.000000000000E+00
  0.000000000000E+00
  0.607153216592E-17
  0.867361737988E-18
  0.104083408559E-16
  0.867361737988E-17
 -0.346944695195E-17
  0.104083408559E-16
  0.867361737988E-18
 -0.173472347598E-17
  0.208166817117E-16
 -0.693889390391E-17
  0.693889390391E-17
 -0.867361737988E-17
  0.173472347598E-16
 -0.104083408559E-16
 -0.867361737988E-18
 -0.104083408559E-16
 -0.260208521397E-17
 -0.520417042793E-17
 -0.346944695195E-17
 -0.312250225676E-16
  0.000000000000E+00
  0.693889390391E-17
  0.208166817117E-16
  0.693889390391E-17
 -0.693889390391E-17
  0.173472347598E-17
 -0.130104260698E-17
  0.119262238973E-17
  0.325260651746E-18
  0.173472347598E-16
  0.173472347598E-17
  0.628837260042E-17
  0.628837260042E-17
  0.867361737988E-18
 -0.433680868994E-17
  0.104083408559E-16
 -0.173472347598E-17
 -0.867361737988E-18
 -0.130104260698E-17
 -0.277555756156E-16
 -0.138777878078E-16
  0.384891771232E-17
 -0.650521303491E-18
 -0.151788304148E-17
  0.195156391047E-17
 -0.277555756156E-16
 -0.277555756156E-16
 -0.416333634234E-16
  0.693889390391E-17
  0.121430643318E-16
  0.121430643318E-16
 -0.138777878078E-16
  0.138777878078E-16
 -0.346944695195E-16
  0.693889390391E-17
  0.260208521397E-17
  0.867361737988E-18
  0.693889390391E-17
 -0.520417042793E-17
  0.693889390391E-17
 -0.867361737988E-17
  0.260208521397E-17
  0.607153216592E-17
  0.433680868994E-18
 -0.254787510534E-17
  0.102999206386E-17
 -0.390312782095E-17
 -0.130104260698E-17
  0.607153216592E-17
 -0.867361737988E-18
  0.867361737988E-17
  0.346944695195E-17
 -0.208166817117E-16
  0.416333634234E-16
 -0.346944695195E-17
 -0.346944695195E-17
  0.277555756156E-16
  0.208166817117E-16
  0.520417042793E-17
 -0.520417042793E-17
  0.121430643318E-16
 -0.173472347598E-16
 -0.104083408559E-16
 -0.121430643318E-16
 -0.390312782095E-17
  0.260208521397E-17
 -0.242861286637E-16
  0.346944695195E-17
 -0.693889390391E-17
  0.173472347598E-17
 -0.208166817117E-16
 -0.867361737988E-17
  0.520417042793E-17
  0.520417042793E-17
 -0.173472347598E-17
 -0.173472347598E-17
  0.693889390391E-17
  0.173472347598E-17
  0.346944695195E-17
 -0.346944695195E-17
  0.173472347598E-17
  0.485722573274E-16
  0.208166817117E-16
 -0.346944695195E-17
 -0.867361737988E-18
  0.121430643318E-16
  0.156125112838E-16
  0.104083408559E-16
 -0.104083408559E-16
  0.000000000000E+00
  0.138777878078E-16
  0.173472347598E-17
 -0.138777878078E-16
 -0.173472347598E-17
  0.173472347598E-17
  0.000000000000E+00
  0.867361737988E-17
  0.104083408559E-16
 -0.121430643318E-16
  0.693889390391E-17
  0.000000000000E+00
 -0.346944695195E-17
 -0.416333634234E-16
  0.242861286637E-16
 -0.242861286637E-16
 -0.312250225676E-16
 -0.416333634234E-16
  0.277555756156E-16
  0.381639164715E-16
 -0.104083408559E-16
  0.346944695195E-17
  0.693889390391E-17
 -0.242861286637E-16
 -0.589805981832E-16
 -0.173472347598E-17
  0.346944695195E-17
 -0.693889390391E-17
 -0.346944695195E-17
  0.242861286637E-16
  0.277555756156E-16
 -0.693889390391E-17
 -0.138777878078E-16
 -0.173472347598E-16
  0.208166817117E-16
 -0.693889390391E-17
 -0.555111512313E-16
 -0.520417042793E-17
 -0.867361737988E-17
  0.104083408559E-16
 -0.260208521397E-17
  0.242861286637E-16
 -0.242861286637E-16
  0.693889390391E-17
 -0.346944695195E-17
 -0.138777878078E-16
 -0.277555756156E-16
 -0.138777878078E-16
  0.138777878078E-16
 -0.208166817117E-16
  0.693889390391E-17
 -0.173472347598E-17
  0.000000000000E+00
 -0.208166817117E-16
 -0.173472347598E-16
 -0.346944695195E-17
  0.693889390391E-17
 -0.346944695195E-17
  0.242861286637E-16
  0.693889390391E-17
  0.138777878078E-16
  0.173472347598E-17
  0.000000000000E+00
 -0.277555756156E-16
  0.867361737988E-17
  0.693889390391E-17
  0.000000000000E+00
  0.000000000000E+00
  0.000000000000E+00
 -0.520417042793E-17
  0.277555756156E-16
  0.000000000000E+00
  0.000000000000E+00
  0.000000000000E+00
 -0.346944695195E-17
 -0.433680868994E-17
 -0.138777878078E-16
 -0.346944695195E-17
 -0.121430643318E-16
 -0.173472347598E-17
 -0.242861286637E-16
 -0.208166817117E-16
 -0.156125112838E-16
  0.173472347598E-17
  0.208166817117E-16
 -0.138777878078E-16
  0.693889390391E-17
 -0.867361737988E-17
  0.867361737988E-18
  0.108420217249E-17
 -0.346944695195E-17
  0.693889390391E-17
  0.520417042793E-17
  0.173472347598E-17
  0.208166817117E-16
 -0.138777878078E-16
  0.277555756156E-16
  0.104083408559E-16
 -0.138777878078E-16
 -0.277555756156E-16
 -0.138777878078E-16
  0.277555756156E-16
  0.693889390391E-17
 -0.763278329430E-16
 -0.277555756156E-16
  0.000000000000E+00
 -0.138777878078E-16
  0.208166817117E-16
SCALARS phi_mu float 1
LOOKUP_TABLE default
  0.269798849435E-09
  0.345428979533E-03
  0.193483721344E-02
  0.193483744736E-02
  0.300453020542E-02
  0.300453020340E-02
  0.137226613758E-02
  0.527693818316E-02
  0.527693818349E-02
  0.700030127169E-02
  0.700030191256E-02
  0.819841121569E-02
  0.819841122955E-02
  0.305250530277E-02
  0.813926108882E-02
  0.813926108787E-02
  0.110443613274E-01
  0.110443613298E-01
  0.132615601396E-01
  0.132615600129E-01
  0.144769997206E-01
  0.144769997122E-01
  0.534031809249E-02
  0.148059749810E-01
  0.148059749856E-01
  0.174969713189E-01
  0.174969713425E-01
  0.132708352278E-01
  0.132708352555E-01
  0.183270247099E-01
  0.183270248958E-01
  0.195342481974E-01
  0.195342482822E-01
  0.202618600467E-01
  0.202618604568E-01
  0.216127533947E-01
  0.216127533947E-01
  0.214636120652E-01
  0.214636120057E-01
  0.213813878554E-01
  0.213813877661E-01
  0.225862155967E-01
  0.225862156196E-01
  0.817329819961E-02
  0.217448108933E-01
  0.217448109713E-01
  0.228324697935E-01
  0.228324698033E-01
  0.245154672799E-01
  0.245154672971E-01
  0.170237954332E-01
  0.170237955118E-01
  0.234671954572E-01
  0.234671954387E-01
  0.231356396733E-01
  0.231356395755E-01
  0.268106731451E-01
  0.268106731507E-01
  0.233405925444E-01
  0.233405924939E-01
  0.287592803096E-01
  0.287592803083E-01
  0.243043554016E-01
  0.243043554879E-01
  0.264519789068E-01
  0.264519789213E-01
  0.306258703889E-01
  0.306258703933E-01
  0.276004056363E-01
  0.276004056601E-01
  0.252381416534E-01
  0.252381415423E-01
  0.114741651931E-01
  0.254080389897E-01
  0.254080389766E-01
  0.263890070467E-01
  0.263890070128E-01
  0.336789412708E-01
  0.336789412647E-01
  0.208838709203E-01
  0.208838709345E-01
  0.260809196027E-01
  0.260809196435E-01
  0.304473751144E-01
  0.304473750371E-01
  0.357574771727E-01
  0.357574771850E-01
  0.291149876450E-01
  0.291149876350E-01
  0.277670190415E-01
  0.277670190006E-01
  0.278758769006E-01
  0.278758769051E-01
  0.323314427926E-01
  0.323314428292E-01
  0.279197907158E-01
  0.279197906470E-01
  0.388792103120E-01
  0.388792103119E-01
  0.348479201614E-01
  0.348479201347E-01
  0.151528816905E-01
  0.284578807649E-01
  0.284578808009E-01
  0.247663665057E-01
  0.247663665019E-01
  0.298621846870E-01
  0.298621846767E-01
  0.408418138305E-01
  0.408418138605E-01
  0.323520300833E-01
  0.323520301376E-01
  0.277175346295E-01
  0.277175346272E-01
  0.440310336217E-01
  0.440310336173E-01
  0.271340038648E-01
  0.271340038425E-01
  0.267548484417E-01
  0.267548484435E-01
  0.368230995441E-01
  0.368230995583E-01
  0.396094858421E-01
  0.396094858242E-01
  0.257847345515E-01
  0.257847345569E-01
  0.306622713582E-01
  0.306622713459E-01
  0.269531657310E-01
  0.269531657371E-01
  0.191091070641E-01
  0.357404527664E-01
  0.357404528784E-01
  0.456120641346E-01
  0.456120641501E-01
  0.328710500296E-01
  0.328710499458E-01
  0.488522928475E-01
  0.488522928415E-01
  0.224529885588E-01
  0.224529885396E-01
  0.442443190048E-01
  0.442443188898E-01
  0.212717069528E-01
  0.212717069373E-01
  0.209328703401E-01
  0.209328703281E-01
  0.243659195649E-01
  0.243659195697E-01
  0.200192419516E-01
  0.200192419425E-01
  0.294102340690E-01
  0.294102341000E-01
  0.211686939209E-01
  0.211686939063E-01
  0.474202107006E-01
  0.474202106819E-01
  0.385430803328E-01
  0.385430802814E-01
  0.232349215010E-01
  0.531091482174E-01
  0.531091482178E-01
  0.365061800194E-01
  0.365061798931E-01
  0.483831945514E-01
  0.483831942467E-01
  0.158499145502E-01
  0.158499145375E-01
  0.145227107576E-01
  0.145227107442E-01
  0.142386105275E-01
  0.142386105141E-01
  0.211464089882E-01
  0.211464090048E-01
  0.172920995079E-01
  0.172920995179E-01
  0.271463720400E-01
  0.271463720213E-01
  0.134551537092E-01
  0.134551536913E-01
  0.145536667541E-01
  0.145536667299E-01
  0.509844723036E-01
  0.509844721478E-01
  0.377654287595E-01
  0.377654287145E-01
  0.566196927899E-01
  0.566196927797E-01
  0.274177840821E-01
  0.503839901978E-01
  0.503839900185E-01
  0.880834120205E-02
  0.880834118573E-02
  0.758573827365E-02
  0.758573826304E-02
  0.130289048692E-01
  0.130289048816E-01
  0.174007324743E-01
  0.174007324806E-01
  0.735609172109E-02
  0.735609171006E-02
  0.475216400433E-01
  0.475216400679E-01
  0.997316042861E-02
  0.997316043861E-02
  0.240926060598E-01
  0.240926060350E-01
  0.671666346518E-02
  0.671666345269E-02
  0.768198871265E-02
  0.768198869173E-02
  0.306517994262E-01
  0.306517994144E-01
  0.592555952807E-01
  0.592555952788E-01
  0.315435914094E-01
  0.545322806304E-01
  0.545322808500E-01
  0.188322431389E-02
  0.188322429720E-02
  0.922874605322E-03
  0.922874593187E-03
  0.850437065018E-02
  0.850437066055E-02
  0.743945028882E-03
  0.743945021994E-03
  0.519541225466E-02
  0.519541226840E-02
  0.132484257021E-01
  0.132484256998E-01
  0.280415784251E-02
  0.280415783733E-02
  0.498962274652E-01
  0.498962276853E-01
  0.244776921220E-03
  0.244776913356E-03
  0.996255733815E-03
  0.996255722349E-03
  0.324741031716E-01
  0.324741032245E-01
  0.609424818618E-01
  0.609424818533E-01
  0.151499980439E-01
  0.151499980559E-01
  0.354998152050E-01
  0.534676859672E-01
  0.534676860393E-01
 -0.446774378757E-02
 -0.446774379807E-02
 -0.508514782182E-02
 -0.508514783047E-02
 -0.521931501827E-02
 -0.521931502858E-02
 -0.559187761416E-02
 -0.559187762022E-02
 -0.202828378049E-02
 -0.202828377403E-02
  0.440611784406E-03
  0.440611794954E-03
 -0.380080166292E-02
 -0.380080166161E-02
  0.391246255260E-02
  0.391246255271E-02
 -0.510372244517E-02
 -0.510372245436E-02
  0.516200337188E-01
  0.516200340201E-01
  0.162454911920E-01
  0.162454912052E-01
  0.616600927044E-01
  0.616600927840E-01
 -0.101156626267E-01
 -0.101156626349E-01
 -0.102128725356E-01
 -0.102128725451E-01
 -0.985121331651E-02
 -0.985121332498E-02
  0.329490738533E-02
  0.329490739022E-02
  0.209428760150E-01
  0.209428759992E-01
 -0.104796177311E-01
 -0.104796177390E-01
  0.391785278922E-01
 -0.102605955297E-01
 -0.102605955318E-01
 -0.943674642614E-02
 -0.943674642181E-02
 -0.822948173621E-02
 -0.822948173221E-02
 -0.647281170091E-02
 -0.647281169632E-02
 -0.396614235730E-02
 -0.396614236021E-02
  0.319415069551E-01
  0.319415069076E-01
  0.455547268386E-02
  0.455547267425E-02
 -0.139059198257E-01
 -0.139059198365E-01
 -0.139755191250E-01
 -0.139755191357E-01
  0.614428161099E-01
  0.614428161577E-01
 -0.141626948111E-01
 -0.141626948204E-01
 -0.139426877752E-01
 -0.139426877823E-01
 -0.141741517751E-01
 -0.141741517769E-01
 -0.137459278723E-01
 -0.137459278656E-01
 -0.162605813519E-01
 -0.162605813603E-01
 -0.163130914101E-01
 -0.163130914212E-01
 -0.130016550421E-01
 -0.130016550403E-01
 -0.164509166702E-01
 -0.164509166781E-01
  0.424793919977E-01
 -0.170590702613E-01
 -0.170590702363E-01
 -0.164985955759E-01
 -0.164985955800E-01
 -0.171057824114E-01
 -0.171057824114E-01
 -0.118135788375E-01
 -0.118135788348E-01
 -0.574452317483E-02
 -0.574452318520E-02
 -0.172268903699E-01
 -0.172268903688E-01
  0.383262932545E-01
  0.383262931824E-01
 -0.166170230950E-01
 -0.166170230962E-01
 -0.173676685058E-01
 -0.173676685058E-01
 -0.100424190979E-01
 -0.100424191035E-01
  0.471382945197E-02
  0.471382942563E-02
 -0.164495438467E-01
 -0.164495438456E-01
 -0.174473796016E-01
 -0.174473796008E-01
  0.603810992681E-01
  0.603810991359E-01
 -0.160106071323E-01
 -0.160106071275E-01
 -0.173709068877E-01
 -0.173709068877E-01
 -0.402780646506E-02
 -0.402780648872E-02
 -0.151951079450E-01
 -0.151951079420E-01
 -0.170387116557E-01
 -0.170387116557E-01
 -0.138987345414E-01
 -0.138987345458E-01
 -0.163533561075E-01
 -0.163533561075E-01
 -0.115462661891E-01
 -0.115462662017E-01
  0.453123650145E-01
 -0.152222374569E-01
 -0.152222374569E-01
  0.405641708752E-02
  0.405641706244E-02
 -0.941758545953E-02
 -0.941758547105E-02
  0.586246271880E-01
  0.586246269721E-01
 -0.135566680328E-01
 -0.135566680328E-01
 -0.494066014711E-02
 -0.494066016144E-02
  0.252981478302E-01
  0.252981477918E-01
  0.846409355762E-02
  0.846409354038E-02
 -0.112670193475E-01
 -0.112670193468E-01
 -0.825237585522E-02
 -0.825237585522E-02
  0.476001757522E-01
  0.563893711586E-01
  0.563893710528E-01
 -0.438029098191E-02
 -0.438029098191E-02
  0.555342437165E-03
  0.555342437744E-03
  0.492804099026E-01
  0.693669803836E-02
  0.693669803836E-02
  0.539742142998E-01
  0.539742143830E-01
  0.156644165319E-01
  0.156644165319E-01
  0.311166579044E-01
  0.311166579044E-01
  0.503072430553E-01
  0.518141991535E-01
  0.518465056685E-01
  0.456646709284E-01
  0.456646709284E-01
  0.511509627325E-01
  0.511509627329E-01
  0.508169919451E-01
SCALARS phi_sigma float 1
LOOKUP_TABLE default
 -0.269798849435E-09
 -0.345428979533E-03
 -0.193483721344E-02
 -0.193483744736E-02
 -0.300453020542E-02
 -0.300453020340E-02
 -0.137226613758E-02
 -0.527693818316E-02
 -0.527693818349E-02
 -0.700030127169E-02
 -0.700030191256E-02
 -0.819841121569E-02
 -0.819841122955E-02
 -0.305250530277E-02
 -0.813926108882E-02
 -0.813926108787E-02
 -0.110443613274E-01
 -0.110443613298E-01
 -0.132615601396E-01
 -0.132615600129E-01
 -0.144769997206E-01
 -0.144769997122E-01
 -0.534031809249E-02
 -0.148059749810E-01
 -0.148059749856E-01
 -0.174969713189E-01
 -0.174969713425E-01
 -0.132708352278E-01
 -0.132708352555E-01
 -0.183270247099E-01
 -0.183270248958E-01
 -0.195342481974E-01
 -0.195342482822E-01
 -0.202618600467E-01
 -0.202618604568E-01
 -0.216127533947E-01
 -0.216127533947E-01
 -0.214636120652E-01
 -0.214636120057E-01
 -0.213813878554E-01
 -0.213813877661E-01
 -0.225862155967E-01
 -0.225862156196E-01
 -0.817329819961E-02
 -0.217448108933E-01
 -0.217448109713E-01
 -0.228324697935E-01
 -0.228324698033E-01
 -0.245154672799E-01
 -0.245154672971E-01
 -0.170237954332E-01
 -0.170237955118E-01
 -0.234671954572E-01
 -0.234671954387E-01
 -0.231356396733E-01
 -0.231356395755E-01
 -0.268106731451E-01
 -0.268106731507E-01
 -0.233405925444E-01
 -0.233405924939E-01
 -0.287592803096E-01
 -0.287592803083E-01
 -0.243043554016E-01
 -0.243043554879E-01
 -0.264519789068E-01
 -0.264519789213E-01
 -0.306258703889E-01
 -0.306258703933E-01
 -0.276004056363E-01
 -0.276004056601E-01
 -0.252381416534E-01
 -0.252381415423E-01
 -0.114741651931E-01
 -0.254080389897E-01
 -0.254080389766E-01
 -0.263890070467E-01
 -0.263890070128E-01
 -0.336789412708E-01
 -0.336789412647E-01
 -0.208838709203E-01
 -0.208838709345E-01
 -0.260809196027E-01
 -0.260809196435E-01
 -0.304473751144E-01
 -0.304473750371E-01
 -0.357574771727E-01
 -0.357574771850E-01
 -0.291149876450E-01
 -0.291149876350E-01
 -0.277670190415E-01
 -0.277670190006E-01
 -0.278758769006E-01
 -0.278758769051E-01
 -0.323314427926E-01
 -0.323314428292E-01
 -0.279197907158E-01
 -0.279197906470E-01
 -0.388792103120E-01
 -0.388792103119E-01
 -0.348479201614E-01
 -0.348479201347E-01
 -0.151528816905E-01
 -0.284578807649E-01
 -0.284578808009E-01
 -0.247663665057E-01
 -0.247663665019E-01
 -0.298621846870E-01
 -0.298621846767E-01
 -0.408418138305E-01
 -0.408418138605E-01
 -0.323520300833E-01
 -0.323520301376E-01
 -0.277175346295E-01
 -0.277175346272E-01
 -0.440310336217E-01
 -0.440310336173E-01
 -0.271340038648E-01
 -0.271340038425E-01
 -0.267548484417E-01
 -0.267548484435E-01
 -0.368230995441E-01
 -0.368230995583E-01
 -0.396094858421E-01
 -0.396094858242E-01