# vtk DataFile Version 3.0
MachLine results file. Generated by MachLine, USU AeroLab (c) 2022.
ASCII
DATASET POLYDATA
POINTS                4847 float
  0.000000000000E+00  0.000000000000E+00  0.000000000000E+00
  0.197142857140E-02  0.000000000000E+00 -0.438095238100E-03
  0.197142857140E-02  0.000000000000E+00  0.438095238100E-03
  0.394285714290E-02  0.000000000000E+00 -0.876190476190E-03
  0.394285714290E-02  0.000000000000E+00  0.876190476190E-03
  0.591428571430E-02  0.000000000000E+00 -0.131428571430E-02
  0.591428571430E-02  0.000000000000E+00  0.131428571430E-02
  0.788571428570E-02  0.000000000000E+00 -0.175238095240E-02
  0.788571428570E-02  0.000000000000E+00  0.175238095240E-02
  0.827775178670E-02  0.832120786070E-02  0.000000000000E+00
  0.827775178670E-02 -0.832120786070E-02  0.000000000000E+00
  0.985714285710E-02  0.000000000000E+00 -0.219047619050E-02
  0.985714285710E-02  0.000000000000E+00  0.219047619050E-02
  0.101783178660E-01  0.832120786070E-02 -0.422348017620E-03
  0.101783178660E-01 -0.832120786070E-02 -0.422348017620E-03
  0.101783178660E-01  0.832120786070E-02  0.422348017620E-03
  0.101783178660E-01 -0.832120786070E-02  0.422348017620E-03
  0.118285714290E-01  0.000000000000E+00 -0.262857142860E-02
  0.118285714290E-01  0.000000000000E+00  0.262857142860E-02
  0.120788839450E-01  0.832120786070E-02 -0.844696035250E-03
  0.120788839450E-01 -0.832120786070E-02 -0.844696035250E-03
  0.120788839450E-01  0.832120786070E-02  0.844696035250E-03
  0.120788839450E-01 -0.832120786070E-02  0.844696035250E-03
  0.138000000000E-01  0.000000000000E+00 -0.306666666670E-02
  0.139794500250E-01  0.832120786070E-02 -0.126704405290E-02
  0.139794500250E-01 -0.832120786070E-02 -0.126704405290E-02
  0.138000000000E-01  0.000000000000E+00  0.306666666670E-02
  0.139794500250E-01  0.832120786070E-02  0.126704405290E-02
  0.139794500250E-01 -0.832120786070E-02  0.126704405290E-02
  0.157714285710E-01  0.000000000000E+00 -0.350476190480E-02
  0.158800161040E-01  0.832120786070E-02 -0.168939207050E-02
  0.158800161040E-01 -0.832120786070E-02 -0.168939207050E-02
  0.158800161040E-01  0.832120786070E-02  0.168939207050E-02
  0.158800161040E-01 -0.832120786070E-02  0.168939207050E-02
  0.157714285710E-01  0.000000000000E+00  0.350476190480E-02
  0.172182429130E-01  0.173086342730E-01  0.000000000000E+00
  0.172182429130E-01 -0.173086342730E-01  0.000000000000E+00
  0.177428571430E-01  0.000000000000E+00 -0.394285714290E-02
  0.177805821830E-01  0.832120786070E-02 -0.211174008810E-02
  0.177805821830E-01 -0.832120786070E-02 -0.211174008810E-02
  0.177805821830E-01  0.832120786070E-02  0.211174008810E-02
  0.177805821830E-01 -0.832120786070E-02  0.211174008810E-02
  0.177428571430E-01  0.000000000000E+00  0.394285714290E-02
  0.190422730560E-01  0.173086342730E-01 -0.405340031820E-03
  0.190422730560E-01 -0.173086342730E-01 -0.405340031820E-03
  0.190422730560E-01  0.173086342730E-01  0.405340031820E-03
  0.190422730560E-01 -0.173086342730E-01  0.405340031820E-03
  0.197142857140E-01  0.000000000000E+00 -0.438095238100E-02
  0.196811482630E-01  0.832120786070E-02 -0.253408810570E-02
  0.196811482630E-01 -0.832120786070E-02 -0.253408810570E-02
  0.196811482630E-01  0.832120786070E-02  0.253408810570E-02
  0.196811482630E-01 -0.832120786070E-02  0.253408810570E-02
  0.197142857140E-01  0.000000000000E+00  0.438095238100E-02
  0.208663032000E-01  0.173086342730E-01 -0.810680063640E-03
  0.208663032000E-01 -0.173086342730E-01 -0.810680063640E-03
  0.208663032000E-01  0.173086342730E-01  0.810680063640E-03
  0.208663032000E-01 -0.173086342730E-01  0.810680063640E-03
  0.216857142860E-01  0.000000000000E+00 -0.481904761900E-02
  0.215817143420E-01  0.832120786070E-02 -0.295643612340E-02
  0.215817143420E-01 -0.832120786070E-02 -0.295643612340E-02
  0.215817143420E-01  0.832120786070E-02  0.295643612340E-02
  0.215817143420E-01 -0.832120786070E-02  0.295643612340E-02
  0.216857142860E-01  0.000000000000E+00  0.481904761900E-02
  0.226903333430E-01  0.173086342730E-01 -0.121602009550E-02
  0.226903333430E-01 -0.173086342730E-01 -0.121602009550E-02
  0.226903333430E-01  0.173086342730E-01  0.121602009550E-02
  0.226903333430E-01 -0.173086342730E-01  0.121602009550E-02
  0.234822804210E-01  0.832120786070E-02 -0.337878414100E-02
  0.234822804210E-01 -0.832120786070E-02 -0.337878414100E-02
  0.236571428570E-01  0.000000000000E+00 -0.525714285710E-02
  0.234822804210E-01  0.832120786070E-02  0.337878414100E-02
  0.234822804210E-01 -0.832120786070E-02  0.337878414100E-02
  0.236571428570E-01  0.000000000000E+00  0.525714285710E-02
  0.245143634860E-01  0.173086342730E-01 -0.162136012730E-02
  0.245143634860E-01 -0.173086342730E-01 -0.162136012730E-02
  0.245143634860E-01  0.173086342730E-01  0.162136012730E-02
  0.245143634860E-01 -0.173086342730E-01  0.162136012730E-02
  0.253828465000E-01  0.832120786070E-02 -0.380113215860E-02
  0.253828465000E-01 -0.832120786070E-02 -0.380113215860E-02
  0.256285714290E-01  0.000000000000E+00 -0.569523809520E-02
  0.253828465000E-01  0.832120786070E-02  0.380113215860E-02
  0.253828465000E-01 -0.832120786070E-02  0.380113215860E-02
  0.256285714290E-01  0.000000000000E+00  0.569523809520E-02
  0.263383936290E-01  0.173086342730E-01 -0.202670015910E-02
  0.263383936290E-01 -0.173086342730E-01 -0.202670015910E-02
  0.263383936290E-01  0.173086342730E-01  0.202670015910E-02
  0.263383936290E-01 -0.173086342730E-01  0.202670015910E-02
  0.267917395800E-01  0.269323893420E-01  0.000000000000E+00
  0.267917395800E-01 -0.269323893420E-01  0.000000000000E+00
  0.272834125800E-01  0.832120786070E-02 -0.422348017620E-02
  0.272834125800E-01 -0.832120786070E-02 -0.422348017620E-02
  0.276000000000E-01  0.000000000000E+00 -0.613333333330E-02
  0.272834125800E-01  0.832120786070E-02  0.422348017620E-02
  0.272834125800E-01 -0.832120786070E-02  0.422348017620E-02
  0.281624237720E-01  0.173086342730E-01 -0.243204019090E-02
  0.281624237720E-01 -0.173086342730E-01 -0.243204019090E-02
  0.276000000000E-01  0.000000000000E+00  0.613333333330E-02
  0.281624237720E-01  0.173086342730E-01  0.243204019090E-02
  0.281624237720E-01 -0.173086342730E-01  0.243204019090E-02
  0.285338148820E-01  0.269323893420E-01 -0.387127844920E-03
  0.285338148820E-01 -0.269323893420E-01 -0.387127844920E-03
  0.285338148820E-01  0.269323893420E-01  0.387127844920E-03
  0.285338148820E-01 -0.269323893420E-01  0.387127844920E-03
  0.291839786590E-01  0.832120786070E-02 -0.464582819390E-02
  0.291839786590E-01 -0.832120786070E-02 -0.464582819390E-02
  0.295714285710E-01  0.000000000000E+00 -0.657142857140E-02
  0.291839786590E-01  0.832120786070E-02  0.464582819390E-02
  0.291839786590E-01 -0.832120786070E-02  0.464582819390E-02
  0.299864539150E-01  0.173086342730E-01 -0.283738022270E-02
  0.299864539150E-01 -0.173086342730E-01 -0.283738022270E-02
  0.295714285710E-01  0.000000000000E+00  0.657142857140E-02
  0.299864539150E-01  0.173086342730E-01  0.283738022270E-02
  0.299864539150E-01 -0.173086342730E-01  0.283738022270E-02
  0.302758901840E-01  0.269323893420E-01 -0.774255689830E-03
  0.302758901840E-01 -0.269323893420E-01 -0.774255689830E-03
  0.302758901840E-01  0.269323893420E-01  0.774255689830E-03
  0.302758901840E-01 -0.269323893420E-01  0.774255689830E-03
  0.310845447380E-01  0.832120786070E-02 -0.506817621150E-02
  0.310845447380E-01 -0.832120786070E-02 -0.506817621150E-02
  0.315428571430E-01  0.000000000000E+00 -0.700952380950E-02
  0.310845447380E-01  0.832120786070E-02  0.506817621150E-02
  0.310845447380E-01 -0.832120786070E-02  0.506817621150E-02
  0.318104840590E-01  0.173086342730E-01 -0.324272025460E-02
  0.318104840590E-01 -0.173086342730E-01 -0.324272025460E-02
  0.320179654860E-01  0.269323893420E-01 -0.116138353470E-02
  0.320179654860E-01 -0.269323893420E-01 -0.116138353470E-02
  0.318104840590E-01  0.173086342730E-01  0.324272025460E-02
  0.318104840590E-01 -0.173086342730E-01  0.324272025460E-02
  0.315428571430E-01  0.000000000000E+00  0.700952380950E-02
  0.320179654860E-01  0.269323893420E-01  0.116138353470E-02
  0.320179654860E-01 -0.269323893420E-01  0.116138353470E-02
  0.329851108180E-01  0.832120786070E-02 -0.549052422910E-02
  0.329851108180E-01 -0.832120786070E-02 -0.549052422910E-02
  0.335142857140E-01  0.000000000000E+00 -0.744761904760E-02
  0.336345142020E-01  0.173086342730E-01 -0.364806028640E-02
  0.336345142020E-01 -0.173086342730E-01 -0.364806028640E-02
  0.329851108180E-01  0.832120786070E-02  0.549052422910E-02
  0.329851108180E-01 -0.832120786070E-02  0.549052422910E-02
  0.337600407880E-01  0.269323893420E-01 -0.154851137970E-02
  0.337600407880E-01 -0.269323893420E-01 -0.154851137970E-02
  0.337600407880E-01  0.269323893420E-01  0.154851137970E-02
  0.337600407880E-01 -0.269323893420E-01  0.154851137970E-02
  0.336345142020E-01  0.173086342730E-01  0.364806028640E-02
  0.336345142020E-01 -0.173086342730E-01  0.364806028640E-02
  0.335142857140E-01  0.000000000000E+00  0.744761904760E-02
  0.348856768970E-01  0.832120786070E-02 -0.591287224670E-02
  0.348856768970E-01 -0.832120786070E-02 -0.591287224670E-02
  0.354857142860E-01  0.000000000000E+00 -0.788571428570E-02
  0.354585443450E-01  0.173086342730E-01 -0.405340031820E-02
  0.354585443450E-01 -0.173086342730E-01 -0.405340031820E-02
  0.348856768970E-01  0.832120786070E-02  0.591287224670E-02
  0.348856768970E-01 -0.832120786070E-02  0.591287224670E-02
  0.355021160900E-01  0.269323893420E-01 -0.193563922460E-02
  0.355021160900E-01 -0.269323893420E-01 -0.193563922460E-02
  0.355021160900E-01  0.269323893420E-01  0.193563922460E-02
  0.355021160900E-01 -0.269323893420E-01  0.193563922460E-02
  0.354585443450E-01  0.173086342730E-01  0.405340031820E-02
  0.354585443450E-01 -0.173086342730E-01  0.405340031820E-02
  0.354857142860E-01  0.000000000000E+00  0.788571428570E-02
  0.367862429760E-01  0.832120786070E-02 -0.633522026440E-02
  0.367862429760E-01 -0.832120786070E-02 -0.633522026440E-02
[...]
CELL_DATA                9576
SCALARS C_p_ise float 1
LOOKUP_TABLE default
  0.377373879940E-03
  0.201540253582E-01
  0.966840575139E-02
  0.105780698808E-01
  0.111220167026E-01
  0.104791017271E-01
  0.122675195024E-01
  0.120106666200E-01
  0.118198715484E-01
  0.139093019733E-01
  0.140283622386E-01
  0.133386346406E-01
  0.128683913456E-01
  0.120672589056E-01
  0.153558196272E-01
  0.194812381374E-01
  0.155451780896E-01
  0.877701309428E-02
  0.132949498339E-01
  0.221024742086E-01
  0.230201128837E-01
  0.198552544929E-01
  0.757480192875E-02
  0.390828720011E-02
  0.226208826284E-01
  0.353007956495E-01
  0.302044527636E-01
  0.259629530325E-01
  0.135203818075E-01
  0.655807134213E-02
 -0.800394491708E-02
  0.135032490169E-01
  0.510153274174E-01
  0.513314918257E-01
  0.520940412098E-01
  0.301768949198E-01
 -0.128292025920E-01
  0.262965828506E-01
 -0.188186333369E-02
  0.390045043316E-01
 -0.166292842421E+00
  0.274508928793E-01
  0.332447848625E+00
  0.343724018924E+00
  0.332546629321E+00
  0.344544959532E+00
  0.332466371165E+00
  0.345866504126E+00
  0.332540852366E+00
  0.346533106614E+00
  0.332303898441E+00
  0.347508677527E+00
  0.331677306116E+00
  0.347610402686E+00
  0.330941149987E+00
  0.349160949421E+00
  0.330308809054E+00
  0.349202644334E+00
  0.329066650304E+00
  0.351580499386E+00
  0.328888658899E+00
  0.353402407781E+00
  0.328775216532E+00
  0.356540375909E+00
  0.328883966040E+00
  0.360846951298E+00
  0.328726760585E+00
  0.363748333029E+00
  0.328990697083E+00
  0.372345819258E+00
  0.328398831196E+00
  0.375594529562E+00
  0.327880233616E+00
  0.384101274572E+00
  0.326748491883E+00
  0.400656933242E+00
  0.326609405740E+00
  0.393172503898E+00
  0.324958264928E+00
  0.427312821137E+00
  0.325575654665E+00
  0.480619314032E+00
  0.313892197516E+00
  0.427259337634E+00
  0.365251973637E+00
  0.182086656078E+00
  0.336497488253E+00
  0.180896860744E+00
  0.281537129522E+00
  0.171218547662E+00
  0.194911430683E+00
  0.169102262603E+00
  0.203054057983E+00
  0.167696688955E+00
  0.191964134161E+00
  0.165000992537E+00
  0.192283039990E+00
  0.164047916729E+00
  0.187714704431E+00
  0.161575444844E+00
  0.178157789689E+00
  0.160013960668E+00
  0.177249409595E+00
  0.158690107887E+00
  0.176407324353E+00
  0.156808311851E+00
  0.171029852281E+00
  0.158311638184E+00
  0.170905819645E+00
  0.160695622706E+00
  0.171883159340E+00
  0.162434751804E+00
  0.170581529733E+00
  0.163659133392E+00
  0.171809466075E+00
  0.163721831458E+00
  0.171832130959E+00
  0.164056957258E+00
  0.170362785854E+00
  0.163903350725E+00
  0.170220485382E+00
  0.163784778380E+00
  0.169565026607E+00
  0.163720262043E+00
  0.168656205667E+00
  0.163276841391E+00
 -0.123875096788E+00
 -0.262763597722E+00
 -0.114675256407E+00
 -0.165653862425E+00
 -0.166744509820E+00
 -0.121133614108E+00
 -0.724835657959E-01
 -0.112863227323E+00
 -0.103213792416E+00
 -0.111680349500E+00
 -0.126002973334E+00
 -0.136635748041E+00
 -0.136907060287E+00
 -0.125910320000E+00
 -0.102318812954E+00
 -0.108558937514E+00
 -0.119952058791E+00
 -0.121302879380E+00
 -0.129966441777E+00
 -0.133422614763E+00
 -0.114118089210E+00
 -0.110856931255E+00
 -0.122500539212E+00
 -0.125568025841E+00
 -0.123116726553E+00
 -0.121801362968E+00
 -0.118756604526E+00
 -0.121763109171E+00
 -0.123905814115E+00
 -0.121916739351E+00
 -0.120964518141E+00
 -0.122007021204E+00
 -0.121663098430E+00
 -0.122272589095E+00
 -0.121832168963E+00
 -0.121611544465E+00
 -0.121716123038E+00
 -0.121606404497E+00
 -0.120932660820E+00
 -0.121650623902E+00
 -0.131056945270E+00
 -0.113599093444E+00
 -0.909336902354E-02
  0.494645982865E-03
  0.944938816944E-02
  0.966719660369E-02
  0.109761553825E-01
  0.111205497706E-01
  0.107345239446E-01
  0.122674569901E-01
  0.127721966961E-01
  0.118192970621E-01
  0.114897831930E-01
  0.140284451950E-01
  0.148424215727E-01
  0.128677545589E-01
  0.111840226811E-01
  0.153557140494E-01
  0.175731320024E-01
  0.155473127624E-01
  0.806820125132E-02
  0.132911929438E-01
  0.249142994090E-01
  0.230212333608E-01
  0.793361048173E-02
  0.757278112574E-02
  0.775813667785E-02
  0.225880056259E-01
  0.386749420614E-01
  0.302082217949E-01
  0.347355224209E-03
  0.134127439672E-01
 -0.441282125717E-03
 -0.814685720803E-02
  0.252018508730E-01
  0.509583281125E-01
  0.298314494740E-01
  0.517903315815E-01
 -0.349839504150E-01
 -0.150435813187E-01
 -0.829219866163E-01
 -0.768193897832E-02
 -0.242310551878E+00
 -0.181802380321E+00
  0.341172824839E+00
  0.358762012584E+00
  0.341678040263E+00
  0.362502546766E+00
  0.342592067214E+00
  0.362195678513E+00
  0.342894822042E+00
  0.364390415535E+00
  0.343442520797E+00
  0.366337234836E+00
  0.343128526660E+00
  0.366513879337E+00
  0.344152335725E+00
  0.373454551026E+00
  0.343612230046E+00
  0.372627486545E+00
  0.345242747804E+00
  0.377420494593E+00
  0.346246183145E+00
  0.381429311643E+00
  0.348355614289E+00
  0.381733422733E+00
  0.351586600445E+00
  0.391111018091E+00
  0.353278009833E+00
  0.395851433313E+00
  0.360096066756E+00
  0.404311254506E+00
  0.361906263299E+00
  0.412837460409E+00
  0.368190938671E+00
  0.433800324205E+00
  0.380744080355E+00
  0.437164024311E+00
  0.371609353199E+00
  0.436339388746E+00
  0.399670129035E+00
  0.436676656102E+00
  0.439295504161E+00
  0.427259411732E+00
  0.427259370861E+00
  0.427259348807E+00
  0.365252043461E+00
  0.365251989307E+00
  0.365251803231E+00
  0.327306344264E+00
  0.402087543995E+00
  0.273973265897E+00
  0.263278177261E+00
  0.189976633694E+00
  0.266844750883E+00
  0.198892445822E+00
  0.235319003273E+00
  0.188527818230E+00
  0.224278706375E+00
  0.189110313104E+00
  0.205769518177E+00
  0.184696549215E+00
  0.204626077719E+00
  0.175580724676E+00
  0.201151656388E+00
  0.174895680450E+00
  0.198521195669E+00
  0.174239423277E+00
  0.187142071233E+00
  0.169080033511E+00
  0.190016387900E+00
  0.169110428228E+00
  0.190841973510E+00
  0.170220053524E+00
  0.182163397466E+00
  0.169028674753E+00
  0.181862958503E+00
  0.170305803953E+00
  0.185420633609E+00
  0.170428023321E+00
  0.180291922883E+00
  0.169054298688E+00
  0.179032497251E+00
  0.168974037041E+00
  0.181114353173E+00
  0.168410021384E+00
  0.178188317202E+00
  0.167580041192E+00
 -0.275696383791E+00
 -0.321203260560E+00
 -0.172999684331E+00
 -0.241803014382E+00
 -0.121447324226E+00
 -0.133615324503E+00
 -0.113673472443E+00
 -0.130988816438E+00
 -0.112115944002E+00
 -0.126233595947E+00
 -0.137084740556E+00
 -0.147823145252E+00
 -0.126013765822E+00
 -0.118102466574E+00
 -0.108728345005E+00
 -0.115405706494E+00
 -0.121458836299E+00
 -0.134800070361E+00
 -0.133489688079E+00
 -0.123924443671E+00
 -0.110940856176E+00
 -0.116518409239E+00
 -0.125649750797E+00
 -0.131960732346E+00
 -0.121826485983E+00
 -0.117690675753E+00
 -0.121821913061E+00
 -0.125548589792E+00
 -0.121947151529E+00
 -0.122013057324E+00
 -0.122039597237E+00
 -0.123566095591E+00
 -0.122298299285E+00
 -0.122063588860E+00
 -0.121637691371E+00
 -0.123038238467E+00
 -0.121625651872E+00
 -0.122120926328E+00
 -0.121668894152E+00
 -0.121756221364E+00
 -0.113498646523E+00
 -0.105975967463E+00
 -0.599828572454E-01
 -0.906667196807E-02
  0.897685901091E-02
  0.944635995301E-02
  0.948109059320E-02
  0.109751239962E-01
  0.102557303601E-01
  0.107339304765E-01
  0.121521761273E-01
  0.127708164818E-01
  0.941241360724E-02
  0.114905641869E-01
  0.151044587479E-01
  0.148417224048E-01
  0.750015285247E-02
  0.111829640744E-01
  0.175152560540E-01
  0.175732869599E-01
  0.788287546935E-02
  0.806571468069E-02
  0.175750512466E-01
  0.249115706175E-01
  0.881395120609E-02
  0.791900929916E-02
  0.335560035402E-02
  0.772113735646E-02
  0.227867782636E-01
  0.386495138082E-01
  0.586606319652E-02
  0.242480758475E-03
 -0.647583986053E-02
 -0.471326443394E-03
 -0.160170724028E-02
  0.248382811499E-01
  0.403646107717E-02
  0.292311443346E-01
 -0.763629620639E-01
 -0.372167567575E-01
 -0.194675283710E+00
 -0.938684790815E-01
 -0.220150075914E+00
 -0.244227649091E+00
  0.353520716314E+00
  0.374012464833E+00
  0.356952128457E+00
  0.381155886085E+00
  0.356350180548E+00
  0.379643175637E+00
  0.358209373262E+00
  0.381509898469E+00
  0.359853614453E+00
  0.385456382975E+00
  0.359724577705E+00
  0.385591309964E+00
  0.366214540590E+00
  0.395890077347E+00
  0.365095443218E+00
  0.394786578322E+00
  0.369446145205E+00
  0.404504790756E+00
  0.372870602196E+00
  0.410029178827E+00
  0.372528887044E+00
  0.409681842263E+00
  0.381037871399E+00
  0.416626536172E+00
  0.385317775347E+00
  0.425273715879E+00
  0.392825301378E+00
  0.434824394272E+00
  0.400423441524E+00
  0.437108642495E+00
  0.421790975088E+00
  0.459551535636E+00
  0.423780416432E+00
  0.451351809838E+00
  0.418144344554E+00
  0.425750575191E+00
  0.424034867658E+00
  0.427259396341E+00
  0.427259407854E+00
  0.427259411704E+00
  0.427259357958E+00
  0.427259341339E+00
  0.365252086701E+00
  0.365252046935E+00
  0.365251795749E+00
  0.365251802003E+00
  0.365251889207E+00
  0.396451845780E+00
  0.362874310803E+00
  0.258502685630E+00
  0.373774423434E+00
  0.263479943944E+00
  0.286580258774E+00
  0.232054305621E+00
  0.282386729427E+00
  0.221566472780E+00
  0.220993411724E+00
  0.203013075874E+00
  0.242100639556E+00
  0.202275054160E+00
  0.232915239956E+00
  0.198966256952E+00
  0.223167142359E+00
  0.196407599038E+00
  0.212204646107E+00
  0.185261744721E+00
  0.216133125454E+00
  0.188259993289E+00
  0.211969035214E+00
  0.189124669496E+00
  0.200862873980E+00
  0.180581836821E+00
  0.194169034961E+00
  0.180311927616E+00
  0.201866681884E+00
  0.183917548907E+00
  0.192342517142E+00
  0.178856117293E+00
  0.189880700875E+00
  0.177640261372E+00
  0.192589487509E+00
  0.179741865806E+00
  0.188039734244E+00
  0.176854933278E+00
 -0.324987502403E+00
 -0.315419970746E+00
 -0.253124600825E+00
 -0.314650210707E+00
 -0.137262279976E+00
 -0.200794528842E+00
 -0.131969251117E+00
 -0.135986754987E+00
 -0.127355617932E+00
 -0.151791095590E+00
 -0.148590571754E+00
 -0.152644943474E+00
 -0.118453117383E+00
 -0.128446938898E+00
 -0.115648006180E+00
 -0.120591775043E+00
 -0.135188393431E+00
 -0.141739605566E+00
 -0.124060251305E+00
 -0.125339842068E+00
 -0.116674429850E+00
 -0.122415220615E+00
 -0.132132914644E+00
 -0.132786161714E+00
 -0.117795370926E+00
 -0.121618071455E+00
 -0.125651078147E+00
 -0.128472316201E+00
 -0.122084615508E+00
 -0.122626829519E+00
 -0.123643060526E+00
 -0.125673522716E+00
 -0.122121176025E+00
 -0.123830037385E+00
 -0.123090349243E+00
 -0.123851029200E+00
 -0.122169479299E+00
 -0.123379175201E+00
 -0.121796831879E+00
 -0.122672924121E+00
 -0.105964994897E+00
 -0.588521485759E-01
 -0.107009493496E+00
 -0.594816487050E-01
  0.790652195709E-02
  0.897531043157E-02
  0.921510821514E-02
  0.947911848645E-02
  0.935804637288E-02
  0.102528951162E-01
  0.969728140430E-02
  0.121520894329E-01
  0.877594267372E-02
  0.941229197455E-02
  0.126041600280E-01
  0.151044020964E-01
  0.701911278222E-02
  0.750000766543E-02
  0.130530092001E-01
  0.175150444756E-01
  0.537433768567E-02
  0.787685108628E-02
  0.109555174060E-01
  0.175615442709E-01
  0.111781502726E-01
  0.881835379776E-02
 -0.322217988409E-02
  0.332179105268E-02
  0.615868664586E-02
  0.227027667868E-01
  0.239135236895E-02
  0.583328088719E-02
 -0.224437708560E-01
 -0.684922319331E-02
 -0.156969719423E-01
 -0.213032687487E-02
 -0.488980167216E-01
  0.259930043189E-02
 -0.154626135632E+00
 -0.823017750618E-01
 -0.211258460057E+00
 -0.200169237801E+00
 -0.182383148033E+00
 -0.211273885150E+00
  0.367755924644E+00
  0.387582494561E+00
  0.374708810381E+00
  0.399794150287E+00
  0.373029457063E+00
  0.399542185099E+00
  0.374549920903E+00
  0.400922152721E+00
  0.378157602747E+00
  0.408797585121E+00
  0.377851946433E+00
  0.407093510722E+00
  0.387563541420E+00
  0.414233230763E+00
  0.386407670625E+00
  0.419718489113E+00
  0.395514459070E+00
  0.430978958006E+00
  0.400439576387E+00
  0.427754815296E+00
  0.400375947281E+00
  0.426830765849E+00
  0.407391698703E+00
  0.447801632793E+00
  0.414551039273E+00
  0.449932466006E+00
  0.422932414511E+00
  0.454617588059E+00
  0.422919372904E+00
  0.444151719036E+00
  0.436089966655E+00
  0.430946194036E+00
  0.432949865741E+00
  0.427259403342E+00
  0.427259402350E+00
  0.427259402370E+00
  0.427259396266E+00
  0.427259394434E+00
  0.427259408807E+00
  0.427259405601E+00
  0.427259345051E+00
  0.427259365739E+00
  0.365252038895E+00
  0.365252090070E+00
  0.365251789637E+00
  0.365251795946E+00
  0.365251893147E+00
  0.365251890027E+00
  0.365251794652E+00
  0.365151679476E+00
  0.365175530550E+00
  0.369045398037E+00
  0.367645773330E+00
  0.281904653947E+00
  0.372539791078E+00
  0.279194452967E+00
  0.311447303608E+00
  0.219253135740E+00
  0.258814025883E+00
  0.240152359148E+00
  0.259402431135E+00
  0.230750880878E+00
  0.254875215663E+00
  0.221081707194E+00
  0.243746864800E+00
  0.210352468372E+00
  0.237133113873E+00
  0.214153051718E+00
  0.233942019952E+00
  0.209961669100E+00
  0.222525048225E+00
  0.198998328513E+00
  0.226357385125E+00
  0.192585889348E+00
  0.218770349394E+00
  0.200271817675E+00
  0.204840438148E+00
  0.190792063006E+00
  0.205563486659E+00
  0.188408100526E+00
  0.213889068119E+00
  0.191229036519E+00
  0.200153208219E+00
  0.186730780857E+00
 -0.312060866387E+00
 -0.303332068352E+00
 -0.319639172859E+00
 -0.308374529699E+00
 -0.210901538860E+00
 -0.295405700446E+00
 -0.138424878263E+00
 -0.188321572917E+00
 -0.152993873647E+00
 -0.164483727253E+00
 -0.153558867440E+00
 -0.160776931716E+00
 -0.129237837634E+00
 -0.141649098234E+00
 -0.121115255735E+00
 -0.139794495238E+00
 -0.142055301429E+00
 -0.140711424343E+00
 -0.125656396308E+00
 -0.129937905278E+00
 -0.122723019236E+00
 -0.133673298437E+00
 -0.132951130516E+00
 -0.133449267702E+00
 -0.121801857619E+00
 -0.125889734922E+00
 -0.128641650405E+00
 -0.130809438322E+00
 -0.122766350323E+00
 -0.126912127275E+00
 -0.125786649985E+00
 -0.127833504451E+00
 -0.123933990600E+00
 -0.125991648838E+00
 -0.123940329022E+00
 -0.125637902997E+00
 -0.123461082871E+00
 -0.124941430588E+00
 -0.122747439161E+00
 -0.124032013734E+00
 -0.581832297150E-01
 -0.120166145994E-01
 -0.929591760444E-01
 -0.106653953917E+00
  0.748035348442E-02
  0.790191493069E-02
  0.725029570576E-02
  0.921252015983E-02
  0.783618982442E-02
  0.935782189670E-02
  0.853995933788E-02
  0.969725306049E-02
  0.729503555188E-02
  0.877458014973E-02
  0.862073075288E-02
  0.126055313482E-01
  0.475138883530E-02
  0.701872101302E-02
  0.838719383480E-02
  0.130515078256E-01
  0.418436757642E-02
  0.537194503794E-02
  0.499426221867E-02
  0.109462895937E-01
  0.660005622990E-03
  0.111487433550E-01
 -0.112998033723E-01
 -0.334486015672E-02
  0.232934036243E-02
  0.606637395244E-02
 -0.236432955770E-01
  0.213600853752E-02
 -0.277862824497E-01
 -0.228263166578E-01
 -0.319847476800E-01
 -0.160881147214E-01
 -0.141430051654E+00
 -0.526917001270E-01
 -0.195998877731E+00
 -0.159677425183E+00
 -0.177489593325E+00
 -0.207815738961E+00
 -0.143207929043E+00
 -0.175593036544E+00
  0.380566229424E+00
  0.411544350869E+00
  0.391968632581E+00
  0.415394952243E+00
  0.391734365830E+00
  0.419398141999E+00
  0.392812554288E+00
  0.416024742672E+00
  0.400704651762E+00
  0.423972985250E+00
  0.399236617908E+00
  0.429415176528E+00
  0.405655151547E+00
  0.439975426343E+00
  0.410392374557E+00
  0.442044967557E+00
  0.421040754921E+00
  0.447842327473E+00
  0.417284678872E+00
  0.446264966408E+00
  0.415232863175E+00
  0.452838328345E+00
  0.433542412275E+00
  0.454534878720E+00
  0.432400277960E+00
  0.439568749810E+00
  0.432378556018E+00
  0.427876843020E+00
  0.428310645789E+00
  0.427427873426E+00
  0.427603277898E+00
  0.427259395352E+00
  0.427259403574E+00
  0.427259404331E+00
  0.427259402906E+00
  0.427259402508E+00
  0.427259395736E+00
  0.427259395911E+00
  0.427259408476E+00
  0.427259413166E+00
  0.427259361153E+00
  0.427259333212E+00
  0.365252105145E+00
  0.365252034534E+00
  0.365251793655E+00
  0.365251788753E+00
  0.365251896638E+00
  0.365251892859E+00
  0.365251791796E+00
  0.365251794051E+00
  0.365251852994E+00
  0.365173431259E+00
  0.365256235179E+00
  0.367754245053E+00
  0.365116906819E+00
  0.367556715405E+00
  0.368811427961E+00
  0.305992320508E+00
  0.379917164570E+00
  0.255358164555E+00
  0.298228515451E+00
  0.256535130880E+00
  0.333846309837E+00
  0.253335545508E+00
  0.269670922001E+00
  0.242075760373E+00
  0.251211921402E+00
  0.235096640028E+00
  0.246818148869E+00
  0.231748702900E+00
  0.268092962768E+00
  0.220866767936E+00
  0.250022227934E+00
  0.224672773625E+00
  0.239381094488E+00
  0.216926560774E+00
  0.217459330472E+00
  0.203058940031E+00
  0.234781108932E+00
  0.204024064578E+00
  0.231610991024E+00
  0.212298208319E+00
  0.216110315216E+00
  0.198598856308E+00
 -0.300508641456E+00
 -0.288693923103E+00
 -0.305245664661E+00
 -0.292550626761E+00
 -0.301626915603E+00
 -0.315851131948E+00
 -0.195408120616E+00
 -0.275156079582E+00
 -0.166650155154E+00
 -0.194198126257E+00
 -0.161989881636E+00
 -0.176169149705E+00
 -0.142639126562E+00
 -0.162220767783E+00
 -0.140643840728E+00
 -0.150360911935E+00
 -0.141279930977E+00
 -0.154102373899E+00
 -0.130267967043E+00
 -0.135325253456E+00
 -0.134102169876E+00
 -0.139181116949E+00
 -0.133788067027E+00
 -0.139329891674E+00
 -0.126175428822E+00
 -0.133741329668E+00
 -0.131012904185E+00
 -0.134258971293E+00
 -0.127115255008E+00
 -0.130558252093E+00
 -0.128013957071E+00
 -0.130980755704E+00
 -0.126154446836E+00
 -0.129438323687E+00
 -0.125777913406E+00
 -0.128382660572E+00
 -0.125065694933E+00
 -0.127360031213E+00
 -0.124143065434E+00
 -0.126185999713E+00
 -0.114057371080E-01
 -0.281207213672E-01
 -0.121162650777E+00
 -0.929523830677E-01
  0.612424676766E-02
  0.747994986169E-02
  0.664715480698E-02
  0.725015324854E-02
  0.656753745124E-02
  0.783408533617E-02
  0.586151684729E-02
  0.853965305728E-02
  0.468557467656E-02
  0.729623304812E-02
  0.505987904804E-02
  0.862288744850E-02
  0.288471236564E-02
  0.475137115693E-02
  0.319382532685E-02
  0.838579530079E-02
 -0.204258708193E-02
  0.417741428947E-02
 -0.565127733654E-02
  0.495597188291E-02
 -0.669917079456E-02
  0.596730133982E-03
 -0.809106100168E-02
 -0.112823763421E-01
 -0.338735372072E-01
  0.209677044366E-02
 -0.349624654183E-01
 -0.241017036654E-01
 -0.284697141862E-01
 -0.278147198237E-01
 -0.128283068079E+00
 -0.346571883532E-01
 -0.196987127274E+00
 -0.147855676938E+00
 -0.163190422339E+00
 -0.195088425157E+00
 -0.134631882879E+00
 -0.171410571152E+00
 -0.100631359222E+00
 -0.138241377012E+00
  0.403836931702E+00
  0.432401856565E+00
  0.407064375558E+00
  0.433814660376E+00
  0.410787515773E+00
  0.435712832341E+00
  0.407157123649E+00
  0.431570596351E+00
  0.414544776478E+00
  0.447365399811E+00
  0.418956235823E+00
  0.458269975147E+00
  0.427151286751E+00
  0.444979087491E+00
  0.430100350046E+00
  0.454361463163E+00
  0.434505333603E+00
  0.456165144515E+00
  0.429836411898E+00
  0.442991090389E+00
  0.431889308693E+00
  0.431877967329E+00
  0.432864875138E+00
  0.427477915281E+00
  0.427692135965E+00
  0.427255250055E+00
  0.427250980368E+00
  0.427259404679E+00
  0.427259397481E+00
  0.427259397294E+00
  0.427259396081E+00
  0.427259392901E+00
  0.427259403397E+00
  0.427259403787E+00
  0.427259401857E+00
  0.427259404775E+00
  0.427259396303E+00
  0.427259394812E+00
  0.427259410994E+00
  0.427259414001E+00
  0.427259344207E+00
  0.427259328773E+00
  0.365252151644E+00
  0.365252109761E+00
  0.365251778878E+00
  0.365251793578E+00
  0.365251911191E+00
  0.365251896964E+00
  0.365251777127E+00
  0.365251791238E+00
  0.365251869756E+00
  0.365251853340E+00
  0.365251855088E+00
  0.365251859191E+00
  0.365251870173E+00
  0.365251869898E+00
  0.365251793441E+00
  0.368911119499E+00
  0.365092614188E+00
  0.376046749144E+00
  0.364792410038E+00
  0.293167499395E+00
  0.377317547761E+00
  0.328385055430E+00
  0.363485767894E+00
  0.265788619500E+00