# vtk DataFile Version 3.0
MachLine results file. Generated by MachLine, USU AeroLab (c) 2022.
ASCII
DATASET POLYDATA
POINTS                3023 float
  0.000000000000E+00  0.000000000000E+00  0.000000000000E+00
  0.895597194070E-03  0.000000000000E+00 -0.199021598680E-03
  0.895597194070E-03  0.000000000000E+00  0.199021598680E-03
  0.201978017340E-02  0.000000000000E+00 -0.448840038540E-03
  0.201978017340E-02  0.000000000000E+00  0.448840038540E-03
  0.342194336150E-02  0.000000000000E+00 -0.760431858110E-03
  0.342194336150E-02  0.000000000000E+00  0.760431858110E-03
  0.515701313740E-02  0.000000000000E+00 -0.114600291940E-02
  0.515701313740E-02  0.000000000000E+00  0.114600291940E-02
  0.728308852790E-02  0.000000000000E+00 -0.161846411730E-02
  0.728308852790E-02  0.000000000000E+00  0.161846411730E-02
  0.827775178670E-02  0.832120786070E-02  0.000000000000E+00
  0.827775178670E-02 -0.832120786070E-02  0.000000000000E+00
  0.914115697030E-02  0.832120786070E-02 -0.191867818590E-03
  0.914115697030E-02 -0.832120786070E-02 -0.191867818590E-03
  0.914115697030E-02  0.832120786070E-02  0.191867818590E-03
  0.914115697030E-02 -0.832120786070E-02  0.191867818590E-03
  0.985721679120E-02  0.000000000000E+00 -0.219049262030E-02
  0.102249314820E-01  0.832120786070E-02 -0.432706598980E-03
  0.102249314820E-01 -0.832120786070E-02 -0.432706598980E-03
  0.985721679120E-02  0.000000000000E+00  0.219049262030E-02
  0.102249314820E-01  0.832120786070E-02  0.432706598980E-03
  0.102249314820E-01 -0.832120786070E-02  0.432706598980E-03
  0.115766942760E-01  0.832120786070E-02 -0.733098330870E-03
  0.115766942760E-01 -0.832120786070E-02 -0.733098330870E-03
  0.115766942760E-01  0.832120786070E-02  0.733098330870E-03
  0.115766942760E-01 -0.832120786070E-02  0.733098330870E-03
  0.129289354540E-01  0.000000000000E+00 -0.287309676740E-02
  0.132493974150E-01  0.832120786070E-02 -0.110481013970E-02
  0.132493974150E-01 -0.832120786070E-02 -0.110481013970E-02
  0.132493974150E-01  0.832120786070E-02  0.110481013970E-02
  0.132493974150E-01 -0.832120786070E-02  0.110481013970E-02
  0.129289354540E-01  0.000000000000E+00  0.287309676740E-02
  0.152990515740E-01  0.832120786070E-02 -0.156028884160E-02
  0.152990515740E-01 -0.832120786070E-02 -0.156028884160E-02
  0.152990515740E-01  0.832120786070E-02  0.156028884160E-02
  0.152990515740E-01 -0.832120786070E-02  0.156028884160E-02
  0.165316099180E-01  0.000000000000E+00 -0.367369109300E-02
  0.172182429130E-01  0.173086342730E-01  0.000000000000E+00
  0.172182429130E-01 -0.173086342730E-01  0.000000000000E+00
  0.165316099180E-01  0.000000000000E+00  0.367369109300E-02
  0.177806534600E-01  0.832120786070E-02 -0.211175592730E-02
  0.177806534600E-01 -0.832120786070E-02 -0.211175592730E-02
  0.180468787060E-01  0.173086342730E-01 -0.184141287390E-03
  0.180468787060E-01 -0.173086342730E-01 -0.184141287390E-03
  0.180468787060E-01  0.173086342730E-01  0.184141287390E-03
  0.180468787060E-01 -0.173086342730E-01  0.184141287390E-03
  0.177806534600E-01  0.832120786070E-02  0.211175592730E-02
  0.177806534600E-01 -0.832120786070E-02  0.211175592730E-02
  0.190870095390E-01  0.173086342730E-01 -0.415281472340E-03
  0.190870095390E-01 -0.173086342730E-01 -0.415281472340E-03
  0.190870095390E-01  0.173086342730E-01  0.415281472340E-03
  0.190870095390E-01 -0.173086342730E-01  0.415281472340E-03
  0.206723337860E-01  0.000000000000E+00 -0.459385195240E-02
  0.207419599860E-01  0.832120786070E-02 -0.276982404430E-02
  0.207419599860E-01 -0.832120786070E-02 -0.276982404430E-02
  0.203843367450E-01  0.173086342730E-01 -0.703576407050E-03
  0.203843367450E-01 -0.173086342730E-01 -0.703576407050E-03
  0.203843367450E-01  0.173086342730E-01  0.703576407050E-03
  0.203843367450E-01 -0.173086342730E-01  0.703576407050E-03
  0.207419599860E-01  0.832120786070E-02  0.276982404430E-02
  0.207419599860E-01 -0.832120786070E-02  0.276982404430E-02
  0.206723337860E-01  0.000000000000E+00  0.459385195240E-02
  0.219896800060E-01  0.173086342730E-01 -0.106031935400E-02
  0.219896800060E-01 -0.173086342730E-01 -0.106031935400E-02
  0.219896800060E-01  0.173086342730E-01  0.106031935400E-02
  0.219896800060E-01 -0.173086342730E-01  0.106031935400E-02
  0.242151372450E-01  0.832120786070E-02 -0.354164121300E-02
  0.242151372450E-01 -0.832120786070E-02 -0.354164121300E-02
  0.239567944400E-01  0.173086342730E-01 -0.149745589490E-02
  0.239567944400E-01 -0.173086342730E-01 -0.149745589490E-02
  0.239567944400E-01  0.173086342730E-01  0.149745589490E-02
  0.239567944400E-01 -0.173086342730E-01  0.149745589490E-02
  0.253221652780E-01  0.000000000000E+00 -0.562714783960E-02
  0.242151372450E-01  0.832120786070E-02  0.354164121300E-02
  0.242151372450E-01 -0.832120786070E-02  0.354164121300E-02
  0.263384620350E-01  0.173086342730E-01 -0.202671536050E-02
  0.263384620350E-01 -0.173086342730E-01 -0.202671536050E-02
  0.253221652780E-01  0.000000000000E+00  0.562714783960E-02
  0.263384620350E-01  0.173086342730E-01  0.202671536050E-02
  0.263384620350E-01 -0.173086342730E-01  0.202671536050E-02
  0.267917395800E-01  0.269323893420E-01  0.000000000000E+00
  0.267917395800E-01 -0.269323893420E-01  0.000000000000E+00
  0.282070238600E-01  0.832120786070E-02 -0.442872712740E-02
  0.282070238600E-01 -0.832120786070E-02 -0.442872712740E-02
  0.275831442370E-01  0.269323893420E-01 -0.175867701560E-03
  0.275831442370E-01 -0.269323893420E-01 -0.175867701560E-03
  0.275831442370E-01  0.269323893420E-01  0.175867701560E-03
  0.275831442370E-01 -0.269323893420E-01  0.175867701560E-03
  0.285765413250E-01  0.269323893420E-01 -0.396622610160E-03
  0.285765413250E-01 -0.269323893420E-01 -0.396622610160E-03
  0.285765413250E-01  0.269323893420E-01  0.396622610160E-03
  0.285765413250E-01 -0.269323893420E-01  0.396622610160E-03
  0.291805165300E-01  0.173086342730E-01 -0.265828302590E-02
  0.291805165300E-01 -0.173086342730E-01 -0.265828302590E-02
  0.282070238600E-01  0.832120786070E-02  0.442872712740E-02
  0.282070238600E-01 -0.832120786070E-02  0.442872712740E-02
  0.304094174850E-01  0.000000000000E+00 -0.675764833000E-02
  0.291805165300E-01  0.173086342730E-01  0.265828302590E-02
  0.291805165300E-01 -0.173086342730E-01  0.265828302590E-02
  0.298155787900E-01  0.269323893420E-01 -0.671964269040E-03
  0.298155787900E-01 -0.269323893420E-01 -0.671964269040E-03
  0.298155787900E-01  0.269323893420E-01  0.671964269040E-03
  0.298155787900E-01 -0.269323893420E-01  0.671964269040E-03
  0.313487929520E-01  0.269323893420E-01 -0.101267852710E-02
  0.313487929520E-01 -0.269323893420E-01 -0.101267852710E-02
  0.313487929520E-01  0.269323893420E-01  0.101267852710E-02
  0.313487929520E-01 -0.269323893420E-01  0.101267852710E-02
  0.326897183580E-01  0.832120786070E-02 -0.542488146020E-02
  0.326897183580E-01 -0.832120786070E-02 -0.542488146020E-02
  0.304094174850E-01  0.000000000000E+00  0.675764833000E-02
  0.325138286850E-01  0.173086342730E-01 -0.339901906030E-02
  0.325138286850E-01 -0.173086342730E-01 -0.339901906030E-02
  0.332275236760E-01  0.269323893420E-01 -0.143017424370E-02
  0.332275236760E-01 -0.269323893420E-01 -0.143017424370E-02
  0.325138286850E-01  0.173086342730E-01  0.339901906030E-02
  0.325138286850E-01 -0.173086342730E-01  0.339901906030E-02
  0.332275236760E-01  0.269323893420E-01  0.143017424370E-02
  0.332275236760E-01 -0.269323893420E-01  0.143017424370E-02
  0.326897183580E-01  0.832120786070E-02  0.542488146020E-02
  0.326897183580E-01 -0.832120786070E-02  0.542488146020E-02
  0.358190159330E-01  0.000000000000E+00 -0.795978131850E-02
  0.355021814230E-01  0.269323893420E-01 -0.193565374290E-02
  0.355021814230E-01 -0.269323893420E-01 -0.193565374290E-02
  0.363449617310E-01  0.173086342730E-01 -0.425038195950E-02
  0.363449617310E-01 -0.173086342730E-01 -0.425038195950E-02
  0.355021814230E-01  0.269323893420E-01  0.193565374290E-02
  0.355021814230E-01 -0.269323893420E-01  0.193565374290E-02
  0.375941105940E-01  0.832120786070E-02 -0.651474640160E-02
  0.375941105940E-01 -0.832120786070E-02 -0.651474640160E-02
  0.369489973750E-01  0.371429701360E-01  0.000000000000E+00
  0.369489973750E-01 -0.371429701360E-01  0.000000000000E+00
  0.363449617310E-01  0.173086342730E-01  0.425038195950E-02
  0.363449617310E-01 -0.173086342730E-01  0.425038195950E-02
  0.358190159330E-01  0.000000000000E+00  0.795978131850E-02
  0.377009006610E-01  0.371429701360E-01 -0.167089619000E-03
  0.377009006610E-01 -0.371429701360E-01 -0.167089619000E-03
  0.377009006610E-01  0.371429701360E-01  0.167089619000E-03
  0.377009006610E-01 -0.371429701360E-01  0.167089619000E-03
  0.382165405910E-01  0.269323893420E-01 -0.253884466910E-02
  0.382165405910E-01 -0.269323893420E-01 -0.253884466910E-02
  0.386447143320E-01  0.371429701360E-01 -0.376825990390E-03
  0.386447143320E-01 -0.371429701360E-01 -0.376825990390E-03
  0.382165405910E-01  0.269323893420E-01  0.253884466910E-02
  0.382165405910E-01 -0.269323893420E-01  0.253884466910E-02
  0.386447143320E-01  0.371429701360E-01  0.376825990390E-03
  0.386447143320E-01 -0.371429701360E-01  0.376825990390E-03
  0.375941105940E-01  0.832120786070E-02  0.651474640160E-02
  0.375941105940E-01 -0.832120786070E-02  0.651474640160E-02
  0.414000000000E-01  0.000000000000E+00 -0.920000000000E-02
  0.406471377910E-01  0.173086342730E-01 -0.520642108390E-02
  0.406471377910E-01 -0.173086342730E-01 -0.520642108390E-02
  0.398219077340E-01  0.371429701360E-01 -0.638424524220E-03
  0.398219077340E-01 -0.371429701360E-01 -0.638424524220E-03
  0.398219077340E-01  0.371429701360E-01  0.638424524220E-03
  0.398219077340E-01 -0.371429701360E-01  0.638424524220E-03
  0.414000848990E-01  0.269323893420E-01 -0.324629895980E-02
  0.414000848990E-01 -0.269323893420E-01 -0.324629895980E-02
  0.412785945950E-01  0.371429701360E-01 -0.962132715490E-03
  0.412785945950E-01 -0.371429701360E-01 -0.962132715490E-03
  0.428092624200E-01  0.832120786070E-02 -0.767366902960E-02
[...]
CELL_DATA                5928
SCALARS C_p_ise float 1
LOOKUP_TABLE default
 -0.948511721636E-01
 -0.334023532375E-01
  0.155941965491E+00
  0.155637822823E+00
  0.158768619519E+00
  0.157642076133E+00
  0.159399197208E+00
  0.160958637810E+00
  0.162734181992E+00
  0.160862467941E+00
  0.163376189392E+00
  0.166790768680E+00
  0.167032522578E+00
  0.166338366359E+00
  0.171444674588E+00
  0.171055934866E+00
  0.175401682592E+00
  0.181764869718E+00
  0.183435558453E+00
  0.183117449071E+00
  0.186274455629E+00
  0.199486177616E+00
  0.194391163284E+00
  0.189711728317E+00
  0.804013114512E-01
  0.175086955229E+00
  0.179374739487E+00
  0.180790591075E+00
  0.181334119697E+00
  0.182472184224E+00
  0.183349305238E+00
  0.184153037405E+00
  0.185496737608E+00
  0.185902000593E+00
  0.187090548587E+00
  0.186501511110E+00
  0.188260792285E+00
  0.186451053897E+00
  0.189688686495E+00
  0.131141158163E+00
  0.193718914512E+00
  0.155770198766E+00
  0.194356318026E+00
  0.127295722095E+00
  0.193377765044E+00
  0.354143073556E-01
  0.189598095277E+00
 -0.163940593281E+00
  0.180327187036E+00
 -0.220842585895E+00
  0.168454027681E+00
 -0.237228106145E+00
  0.741512447922E-01
  0.887582412199E-01
  0.140802818309E+00
  0.799585690610E-01
  0.131167868290E+00
  0.701343309545E-01
  0.395840912357E-01
  0.561109154939E-01
 -0.327019683068E+00
  0.390194175179E-01
  0.362143394491E+00
  0.363593981833E-01
  0.200829939323E-01
  0.288537768999E-01
  0.149983986123E-01
  0.192368112630E-01
  0.188857510289E-01
  0.814915644933E-02
  0.214214981439E-01
  0.119723752039E-01
  0.266809677100E-01
  0.198659484584E-01
  0.250724112566E-01
  0.191478470558E-01
  0.231627361109E-01
  0.204394695532E-01
 -0.246512799518E+00
 -0.295801836621E+00
 -0.176950865961E+00
 -0.173819828904E+00
 -0.198338879410E+00
 -0.202868627930E+00
 -0.198433182030E+00
 -0.198191483011E+00
 -0.200224495757E+00
 -0.198562242449E+00
 -0.194830363079E+00
 -0.195548940800E+00
 -0.194812708154E+00
 -0.196278528018E+00
 -0.197103477309E+00
 -0.195286534742E+00
 -0.193253205890E+00
 -0.195651121719E+00
 -0.195553573351E+00
 -0.193841401978E+00
 -0.192589622277E+00
 -0.193664548346E+00
 -0.191824517013E+00
 -0.192384037971E+00
 -0.268924343955E-01
  0.372453979200E-01
  0.346102986892E+00
 -0.946598021424E-01
  0.155477073599E+00
  0.155898227398E+00
  0.157856029673E+00
  0.158728491627E+00
  0.160618280009E+00
  0.159353770307E+00
  0.161640963017E+00
  0.162690887448E+00
  0.162920407934E+00
  0.163341603443E+00
  0.167066275949E+00
  0.166983188955E+00
  0.171817696639E+00
  0.171384962111E+00
  0.170160757492E+00
  0.175399330155E+00
  0.184024347221E+00
  0.183404691592E+00
  0.165168295537E+00
  0.185927327121E+00
  0.194144354051E+00
  0.194421397413E+00
 -0.153716668169E-02
  0.578814609324E-01
  0.191079359117E+00
  0.186128777918E+00
  0.190911358802E+00
  0.182176978475E+00
  0.190362620843E+00
  0.173050185604E+00
  0.190067326907E+00
  0.156238482881E+00
  0.186535531817E+00
  0.188925808064E+00
  0.185077137325E+00
  0.150191258793E+00
  0.115212849920E+00
 -0.685640381820E-01
  0.135024455624E+00
 -0.422745280465E-01
  0.965278274296E-01
 -0.205010158420E+00
 -0.868920027733E-02
 -0.226106305506E+00
 -0.199224521568E+00
 -0.237227541156E+00
 -0.237227494273E+00
 -0.237227372282E+00
 -0.237228091344E+00
 -0.237228300540E+00
  0.741513407884E-01
  0.741512467173E-01
  0.741510370762E-01
  0.140270172610E+00
  0.737756016322E-01
  0.129356024355E+00
  0.106839356116E+00
  0.391145810421E-01
 -0.314354498292E+00
 -0.325834736662E+00
  0.463548228315E+00
  0.396185128155E+00
 -0.381208358489E-01
  0.199214857758E-01
 -0.137083539946E-01
  0.147220661632E-01
  0.663929810901E-01
  0.189001455787E-01
  0.598440803381E-01
  0.214991623243E-01
  0.319239455262E-01
  0.267470973158E-01
  0.188552119999E-01
  0.250920128565E-01
  0.168420367509E-01
  0.231495946974E-01
 -0.310989326269E+00
 -0.339587036816E+00
 -0.175357355278E+00
 -0.194722093200E+00
 -0.203283906494E+00
 -0.208210845955E+00
 -0.198360162862E+00
 -0.195996815819E+00
 -0.198796505063E+00
 -0.200466125694E+00
 -0.195728817951E+00
 -0.199922743911E+00
 -0.196378099721E+00
 -0.196764496271E+00
 -0.195370494595E+00
 -0.196247254707E+00
 -0.195733795389E+00
 -0.195791147862E+00
 -0.193917852749E+00
 -0.195802333385E+00
 -0.193729354592E+00
 -0.193586696836E+00
 -0.192450465359E+00
 -0.192235378237E+00
  0.374740914960E-01
 -0.329124552428E+00
  0.168545514803E-01
  0.356156379145E+00
  0.156026063243E+00
  0.155387001225E+00
  0.157535774553E+00
  0.157765233966E+00
  0.159868934894E+00
  0.160527789300E+00
  0.161969700366E+00
  0.161553087036E+00
  0.163395998819E+00
  0.162816251121E+00
  0.166262986060E+00
  0.166964649086E+00
  0.168568000336E+00
  0.171766171238E+00
  0.171891884442E+00
  0.170082425018E+00
  0.178762726872E+00
  0.183958685815E+00
  0.141185857518E+00
  0.164740006476E+00
  0.186939069194E+00
  0.193991285227E+00
 -0.468027031239E-01
 -0.127481945409E-01
  0.184075659190E+00
  0.174291845012E+00
  0.179068407530E+00
  0.154941835183E+00
  0.168386229939E+00
  0.121318825206E+00
  0.150251235898E+00
  0.831375937713E-01
  0.179665357723E+00
  0.154889594894E+00
  0.135877777993E+00
 -0.704292114862E-01
 -0.948191931655E-01
 -0.241923148353E+00
 -0.647875169684E-01
 -0.226773638891E+00
 -0.216971318356E+00
 -0.236729757894E+00
 -0.227324555225E+00
 -0.237227513005E+00
 -0.237227539550E+00
 -0.237227547104E+00
 -0.237227375305E+00
 -0.237227424027E+00
 -0.237228298990E+00
 -0.237228101702E+00
  0.741512639941E-01
  0.741513415924E-01
  0.741510021868E-01
  0.741510373131E-01
  0.741510377454E-01
  0.741510297381E-01
  0.741510201666E-01
  0.107617747934E+00
  0.561746176736E-01
 -0.321874428011E+00
  0.138422126882E+00
  0.462005921092E+00
  0.717386769078E-01
 -0.382072446185E-01
 -0.838097740862E-01
 -0.137083722527E-01
  0.922737516618E-01
  0.671865839612E-01
  0.123497346951E+00
  0.604193878156E-01
  0.100935146982E-01
  0.319010303620E-01
  0.663772644343E-02
  0.188255517978E-01
  0.137619621492E-01
  0.168123850246E-01
 -0.350679202862E+00
 -0.369585151447E+00
 -0.198952030493E+00
 -0.223960969869E+00
 -0.209449362509E+00
 -0.213478995769E+00
 -0.196721596312E+00
 -0.205869317826E+00
 -0.200750447257E+00
 -0.202137295594E+00
 -0.200248527700E+00
 -0.202216806648E+00
 -0.197027621676E+00
 -0.199015265373E+00
 -0.196471600595E+00
 -0.199243547072E+00
 -0.195962996917E+00
 -0.197670398696E+00
 -0.195964146368E+00
 -0.196434151699E+00
 -0.193741938444E+00
 -0.195063917369E+00
 -0.192377657248E+00
 -0.193673660336E+00
 -0.325876242110E+00
 -0.857949652239E-01
  0.223471203398E+00
  0.215585620930E-01
  0.156184399841E+00
  0.155888336608E+00
  0.158421113164E+00
  0.157392250195E+00
  0.160593695042E+00
  0.159712885063E+00
  0.161306077540E+00
  0.161813147439E+00
  0.164602774549E+00
  0.163219506131E+00
  0.168204290400E+00
  0.166044657142E+00
  0.164121157038E+00
  0.168438473971E+00
  0.167538043734E+00
  0.171801422220E+00
  0.157224222919E+00
  0.178939114695E+00
  0.152611878352E+00
  0.141184421117E+00
  0.149156929853E+00
  0.186436295985E+00
 -0.570328662983E-01
 -0.493538835782E-01
  0.168858473815E+00
  0.146686803637E+00
  0.148785494175E+00
  0.982662894411E-01
  0.114383162736E+00
  0.485811604574E-01
  0.768725350657E-01
  0.533660195134E-01
  0.152528916753E+00
 -0.134750365079E+00
 -0.836867273553E-01
 -0.241248987186E+00
 -0.255188668348E+00
 -0.237651735387E+00
 -0.227862854644E+00
 -0.237226783423E+00
 -0.237213863528E+00
 -0.237227504701E+00
 -0.237227512088E+00
 -0.237227505821E+00
 -0.237227545587E+00
 -0.237227540993E+00
 -0.237227420845E+00
 -0.237227340920E+00
 -0.237228101412E+00
 -0.237228487259E+00
  0.741514081831E-01
  0.741512630634E-01
  0.741510403526E-01
  0.741510017151E-01
  0.741510592548E-01
  0.741510375559E-01
  0.741510247692E-01
  0.741510199595E-01
  0.741510527496E-01
  0.564864170544E-01
  0.747806413270E-01
  0.133172433354E+00
  0.929034589396E-01
  0.717764950417E-01
  0.172935516016E-01
 -0.837607650486E-01
  0.335923653417E-01
  0.924584935317E-01
  0.149325724230E+00
  0.123709401150E+00
  0.101209898742E-01
  0.101008855014E-01
  0.717138428183E-02
  0.662609190370E-02
  0.137082093707E-01
  0.137232676688E-01
 -0.377055605322E+00
 -0.383746316097E+00
 -0.232326753034E+00
 -0.278492225532E+00
 -0.213931951837E+00
 -0.210866260763E+00
 -0.207133265890E+00
 -0.214660990903E+00
 -0.202888554116E+00
 -0.207225327715E+00
 -0.202797420619E+00
 -0.206007367557E+00
 -0.199505075310E+00
 -0.205544126152E+00
 -0.199593373315E+00
 -0.201487054481E+00
 -0.197998921506E+00
 -0.200624224595E+00
 -0.196717297369E+00
 -0.199112682251E+00
 -0.195323569894E+00
 -0.197673794979E+00
 -0.193915606085E+00
 -0.195505501331E+00
 -0.812643067053E-01
 -0.244731008023E+00
  0.119391262358E+01
  0.223311950592E+00
  0.155831030986E+00
  0.155963503165E+00
  0.158451485096E+00
  0.158198712667E+00
  0.161359711501E+00
  0.160366506323E+00
  0.162958321188E+00
  0.161057522959E+00
  0.165150186272E+00
  0.164326285792E+00
  0.164551633398E+00
  0.168030742605E+00
  0.161327264680E+00
  0.164070131119E+00
  0.171086079153E+00
  0.167258386895E+00
  0.140107921348E+00
  0.157282803701E+00
  0.171794492965E+00
  0.152161794236E+00
  0.582639067094E-01
  0.145248133962E+00
 -0.104743652055E-01
 -0.528354996389E-01
  0.139964809904E+00
  0.777167959382E-01
  0.894500421509E-01
  0.156439627717E-01
  0.388625975492E-01
 -0.304405354594E-01
  0.390330897447E-01
 -0.206151127059E+00
 -0.140054094276E+00
 -0.237387647432E+00
 -0.240847230066E+00
 -0.237304726828E+00
 -0.238330353595E+00
 -0.237227503750E+00
 -0.237227520966E+00
 -0.237227520008E+00
 -0.237227504553E+00
 -0.237227502139E+00
 -0.237227505903E+00
 -0.237227510633E+00
 -0.237227541400E+00
 -0.237227555757E+00
 -0.237227344098E+00
 -0.237227346223E+00
 -0.237228481460E+00
 -0.237228517550E+00
  0.741514245909E-01
  0.741514090920E-01
  0.741510129339E-01
  0.741510406550E-01
  0.741510515232E-01
  0.741510593525E-01
  0.741510182987E-01
  0.741510247120E-01
  0.741510605164E-01
  0.741510527151E-01
  0.741510273184E-01
  0.746325688936E-01
  0.741477260715E-01
  0.932226931020E-01
  0.761136983995E-01
  0.175182352344E-01
  0.581025456611E-01
  0.334827077221E-01
  0.432895072571E-01
  0.147197977659E+00
  0.104820697142E+00
  0.101286175427E-01
  0.770145059414E-02
  0.717807572489E-02
  0.184772255534E-01
  0.137289862609E-01
 -0.386871764999E+00
 -0.379030134054E+00
 -0.294693221598E+00
 -0.339879196134E+00
 -0.213852863653E+00
 -0.230628408956E+00
 -0.216257020007E+00
 -0.225782783128E+00
 -0.208232281904E+00
 -0.215385808388E+00
 -0.206703333950E+00
 -0.211220951729E+00
 -0.206226571547E+00
 -0.208740820648E+00
 -0.202117262225E+00
 -0.208253130213E+00
 -0.201120381168E+00
 -0.204711049607E+00
 -0.199562653299E+00
 -0.203526454971E+00
 -0.198080725403E+00
 -0.201432736535E+00
 -0.195881094072E+00
 -0.198936488158E+00
 -0.245401512018E+00
 -0.544188861810E+00
  0.949221243859E+00
  0.122299079898E+01
  0.156714107951E+00
  0.155563237599E+00
  0.161366929290E+00
  0.158143038569E+00
  0.162010974606E+00
  0.161037393713E+00
  0.162030190623E+00
  0.162659839439E+00
  0.163803354833E+00
  0.164906939500E+00
  0.164859695679E+00
  0.164312563680E+00
  0.159349859563E+00
  0.161058906417E+00
  0.156696912475E+00
  0.171158032592E+00
  0.133571126521E+00
  0.140350374959E+00
  0.180681709524E+00
  0.171369949821E+00
 -0.914869432927E-02
  0.538628327716E-01
  0.745443670276E-01
  0.585012289634E-03
  0.709307586167E-01
 -0.191845219010E-01
  0.767690171942E-02
 -0.126072941834E+00
 -0.446293470326E-01
 -0.232915348940E+00
 -0.212500512407E+00
 -0.237621584896E+00
 -0.237003262155E+00
 -0.237227525583E+00
 -0.237227509255E+00
 -0.237227497750E+00
 -0.237227503454E+00
 -0.237227502709E+00
 -0.237227519746E+00
 -0.237227525756E+00
 -0.237227502244E+00
 -0.237227498759E+00
 -0.237227510453E+00
 -0.237227506600E+00
 -0.237227554965E+00
 -0.237227562857E+00
 -0.237227345569E+00
 -0.237227284537E+00
 -0.237228514793E+00
 -0.237228838710E+00
  0.741515452921E-01
  0.741514243917E-01
  0.741510219175E-01
  0.741510127171E-01
  0.741510617872E-01
  0.741510514588E-01
  0.741510180939E-01
  0.741510182718E-01
  0.741510605752E-01
  0.741510605289E-01
  0.741510263920E-01
  0.741510272659E-01
  0.741510194493E-01
  0.741520766052E-01
  0.741510864945E-01
  0.763118919072E-01
  0.746449260100E-01
  0.578529134891E-01
  0.789909808350E-01
  0.431974146251E-01
  0.939372457095E-02
  0.104870141353E+00
  0.110767969669E+00
  0.770213088832E-02
  0.203373796411E-01
  0.184824710727E-01
 -0.375644177613E+00
 -0.359193547944E+00
 -0.354847762978E+00
 -0.386602958146E+00
 -0.237588554038E+00
 -0.276877282992E+00
 -0.227622639317E+00
 -0.236347437494E+00
 -0.216865150001E+00
 -0.224656314881E+00
 -0.212361973187E+00
 -0.219792012363E+00
 -0.209564285020E+00
 -0.215318942462E+00
 -0.209022833652E+00
 -0.213598319785E+00
 -0.205412082479E+00
 -0.210227383850E+00
 -0.204174016160E+00
 -0.209206631421E+00
 -0.202025298771E+00
 -0.207199601267E+00
 -0.199481412824E+00
 -0.203457895236E+00
 -0.544162758309E+00
 -0.529988793493E+00
  0.270736724680E+00
  0.957127170222E+00
  0.156893694437E+00
  0.156329270192E+00
  0.159592157414E+00
  0.161008952822E+00
  0.162263626773E+00
  0.161684194060E+00
  0.163205466900E+00
  0.161689073843E+00
  0.161441248880E+00
  0.163496791426E+00
  0.161497301256E+00
  0.164611810364E+00
  0.155859802053E+00
  0.159225244264E+00
  0.152749548260E+00
  0.156646368329E+00
  0.153615364666E+00
  0.132460003655E+00
  0.127391684323E+00
  0.180927089474E+00
 -0.189173593933E-01
 -0.107909444723E-01
  0.178591256494E+00
  0.753040438360E-01
 -0.283231003140E-01
 -0.216727125846E+00
 -0.139098680257E+00
 -0.236027230905E+00
 -0.235157483508E+00
 -0.237257462567E+00
 -0.237677486631E+00
 -0.237227521893E+00
 -0.237227524707E+00
 -0.237227516280E+00
 -0.237227497109E+00
 -0.237227500306E+00
 -0.237227502311E+00
 -0.237227499544E+00
 -0.237227524866E+00
 -0.237227523180E+00
 -0.237227497956E+00
 -0.237227489412E+00
 -0.237227505560E+00
 -0.237227497171E+00
 -0.237227561387E+00
 -0.237227581325E+00
 -0.237227285008E+00
 -0.237227170250E+00
 -0.237228830601E+00
 -0.237229489973E+00
  0.741517976003E-01
  0.741515454471E-01
  0.741510251109E-01
  0.741510217384E-01
  0.741510801645E-01
  0.741510616457E-01
  0.741510182147E-01
  0.741510179078E-01
  0.741510704930E-01
  0.741510604479E-01
  0.741510392010E-01
  0.741510263544E-01
  0.741510090068E-01
  0.741510193325E-01
  0.741510491318E-01
  0.741510962887E-01
  0.741510475137E-01
  0.746642368843E-01
  0.741049077859E-01
  0.787198845025E-01
  0.786354308685E-01
  0.941298581816E-02
  0.412136462091E-01
  0.111839743301E+00
  0.867823753287E-01
  0.203182996115E-01
 -0.352994281240E+00
 -0.343926894306E+00
 -0.393080283395E+00
 -0.397678224681E+00
 -0.289187234714E+00
 -0.338056544607E+00
 -0.239801208598E+00
 -0.257142077348E+00
 -0.226767603324E+00
 -0.239127549697E+00
 -0.221334114933E+00
 -0.230079540160E+00
 -0.216577361588E+00
 -0.224933775198E+00
 -0.214615087402E+00
 -0.220734852460E+00
 -0.211149134823E+00
 -0.217909073951E+00
 -0.210038513113E+00
 -0.216020510838E+00
 -0.207982705458E+00
 -0.213073567316E+00
 -0.204205399601E+00
 -0.210213865685E+00
 -0.529658051010E+00
 -0.304236644269E+00
  0.360830642297E+00
  0.285004575850E+00
  0.158213804536E+00
  0.156526700671E+00
  0.161047634914E+00
  0.159204803010E+00
  0.161158001674E+00
  0.161866536099E+00
  0.161478173294E+00
  0.162845554373E+00
  0.161931140769E+00
  0.161094466204E+00
  0.158692651416E+00
  0.161170789851E+00
  0.154088254890E+00
  0.155499785341E+00
  0.149938677359E+00
  0.152379860172E+00
  0.150672451354E+00
  0.153212526756E+00
  0.560231273886E-01
  0.128121281910E+00
  0.504217194577E-01
 -0.169976854512E-01
  0.315321929930E+00
  0.153702896716E+00
 -0.225418592395E+00
 -0.237153293043E+00
 -0.236088467392E+00
 -0.237226588953E+00
 -0.237217159328E+00
 -0.237227507359E+00
 -0.237227522183E+00
 -0.237227523761E+00
 -0.237227517325E+00
 -0.237227513601E+00
 -0.237227500913E+00
 -0.237227492770E+00
 -0.237227499871E+00
 -0.237227488202E+00
 -0.237227522979E+00
 -0.237227523293E+00
 -0.237227489646E+00
 -0.237227472244E+00
 -0.237227497032E+00
 -0.237227483478E+00
 -0.237227580207E+00
 -0.237227609378E+00
 -0.237227172361E+00
 -0.237226987051E+00
 -0.237229477031E+00
 -0.237230480691E+00
  0.741522055225E-01
  0.741517981395E-01
  0.741510322757E-01
  0.741510250149E-01
  0.741511132568E-01
  0.741510801721E-01
  0.741510199173E-01
  0.741510181545E-01
  0.741510973359E-01
  0.741510705720E-01
  0.741510497420E-01
  0.741510392845E-01
  0.741510052716E-01
  0.741510089659E-01
  0.741510584702E-01
  0.741510492655E-01
  0.741510488920E-01
  0.741510481505E-01
  0.741510324292E-01
  0.741115676404E-01
  0.741497975223E-01
  0.786488114885E-01
  0.744668460406E-01
  0.409469240997E-01
  0.762429700717E-01
  0.872211745745E-01
 -0.339921168128E+00
 -0.326141238560E+00
 -0.398233982425E+00
 -0.387043225409E+00
 -0.351931315393E+00
 -0.387489436770E+00
 -0.264947227320E+00
 -0.309136124537E+00
 -0.241886162607E+00
 -0.254846623478E+00
 -0.232254911530E+00
 -0.245775694442E+00
 -0.226605140280E+00
 -0.236250012181E+00
 -0.222139387055E+00
 -0.231901096064E+00
 -0.219121459917E+00
 -0.227814647616E+00
 -0.217099176489E+00
 -0.224481871310E+00
 -0.214066261151E+00
 -0.221590126990E+00
 -0.211151324914E+00
 -0.218333096367E+00
 -0.297014169146E+00
 -0.344556655683E+00
  0.718189681382E-01
  0.359560498854E+00
  0.156650264267E+00
  0.157809979566E+00
  0.161936608941E+00
  0.160643830334E+00
  0.160825061574E+00
  0.160780463260E+00
  0.160602920240E+00
  0.161097915753E+00
  0.161310998770E+00
  0.161525625032E+00
  0.158101538830E+00
  0.158320227799E+00
  0.152021544091E+00
  0.153705112193E+00
  0.159312242906E+00
  0.149104724054E+00
  0.847726225421E-01
  0.151751963828E+00
  0.602896704525E-01
  0.559560077003E-01
  0.135085510196E+00
  0.507558505595E-01
  0.422792198309E+00
  0.273654091627E+00
 -0.237264491961E+00
 -0.237227509083E+00
 -0.237227504834E+00
 -0.237227502847E+00
 -0.237227507267E+00
 -0.237227508229E+00
 -0.237227523685E+00
 -0.237227524199E+00
 -0.237227513906E+00
 -0.237227521735E+00
 -0.237227494164E+00
 -0.237227483470E+00
 -0.237227489784E+00
 -0.237227514259E+00
 -0.237227525754E+00
 -0.237227539813E+00
 -0.237227475923E+00
 -0.237227519521E+00
 -0.237227489010E+00
 -0.237227531900E+00
 -0.237227615309E+00
 -0.237227609761E+00
 -0.237226996652E+00
 -0.237227273444E+00
 -0.237230478795E+00
 -0.237229078498E+00
  0.741516639523E-01
  0.741522080157E-01
  0.741509386283E-01
  0.741510335565E-01
  0.741510422676E-01
  0.741511142876E-01
  0.741509761027E-01
  0.741510206497E-01
  0.741510382104E-01
  0.741510977735E-01
  0.741510182964E-01
  0.741510498440E-01
  0.741510152805E-01
  0.741510053707E-01
  0.741510597178E-01
  0.741510586086E-01
  0.741510559653E-01
  0.741510490072E-01
  0.741510266492E-01
  0.741510324747E-01
  0.741510218498E-01
  0.741493262089E-01
  0.741510552575E-01
  0.745237830779E-01
  0.740693987046E-01
  0.758078959454E-01
 -0.322263957051E+00
 -0.320061869779E+00
 -0.380462000026E+00
 -0.360606126157E+00
 -0.393430457303E+00
 -0.394677393459E+00
 -0.322028126644E+00
 -0.366314628013E+00
 -0.261367118117E+00
 -0.302851056358E+00
 -0.248737836793E+00
 -0.263598512661E+00
 -0.238637126265E+00
 -0.254919323448E+00
 -0.233767346935E+00
 -0.246509808854E+00
 -0.229409416614E+00
 -0.239825100731E+00
 -0.225913911593E+00
 -0.235592660896E+00
 -0.222919065373E+00
 -0.232379105137E+00
 -0.219582613907E+00
 -0.228677061773E+00
 -0.345852784312E+00
 -0.167949733845E+00
  0.999689595322E+00
  0.746583126695E-01
  0.152665299135E+00
  0.156126917758E+00
  0.158709907201E+00
  0.161434536694E+00
  0.161321086562E+00
  0.160325821215E+00
  0.159100608589E+00
  0.160127096440E+00
  0.155287043288E+00
  0.160970102586E+00