# vtk DataFile Version 3.0
MachLine results file. Generated by MachLine, USU AeroLab (c) 2022.
ASCII
DATASET POLYDATA
POINTS                 410 float
  0.215534751069E-08 -0.000000000000E+00  0.000000000000E+00
  0.682783175728E-02 -0.100715403338E-24  0.686367202364E-02
  0.171884711976E-01  0.763931866958E-02  0.000000000000E+00
  0.171884713053E-01 -0.763931842719E-02  0.000000000000E+00
  0.238990869489E-01  0.758722300980E-02  0.686367316515E-02
  0.238990869250E-01 -0.758722306359E-02  0.686367318893E-02
  0.271250761563E-01 -0.133718636729E-24  0.272674704071E-01
  0.438478857945E-01  0.743235774847E-02  0.272674718958E-01
  0.438478858363E-01 -0.743235765460E-02  0.272674718543E-01
  0.621884710780E-01  0.276393189386E-01  0.000000000000E+00
  0.621884711313E-01 -0.276393188187E-01  0.000000000000E+00
  0.603380785273E-01 -0.239051981481E-24  0.606548314790E-01
  0.685922161233E-01  0.274508363864E-01  0.686367331659E-02
  0.685922161430E-01 -0.274508363420E-01  0.686367329698E-02
  0.764907165447E-01  0.717894711591E-02  0.606548330234E-01
  0.764907165138E-01 -0.717894718540E-02  0.606548330542E-01
  0.876287735484E-01  0.268905305804E-01  0.272674720793E-01
  0.876287737069E-01 -0.268905302238E-01  0.272674719216E-01
  0.105560874990E+00  0.708697819546E-24  0.106115034820E+00
  0.117811530008E+00  0.523606786186E-01  0.000000000000E+00
  0.117811530067E+00 -0.523606784858E-01  0.000000000000E+00
  0.118778875744E+00  0.259736850838E-01  0.606548332250E-01
  0.118778875798E+00 -0.259736849621E-01  0.606548331712E-01
  0.123835962070E+00  0.520036124377E-01  0.686367334421E-02
  0.123835961979E+00 -0.520036126424E-01  0.686367343472E-02
  0.129142093607E+00  0.104805380875E-01  0.106115036715E+00
  0.129142093532E+00 -0.104805382557E-01  0.106115036790E+00
  0.141744927131E+00  0.509421544606E-01  0.272674721035E-01
  0.141744927190E+00 -0.509421543284E-01  0.272674720450E-01
  0.162811529977E+00  0.723606786889E-01  0.000000000000E+00
  0.162811530019E+00 -0.723606785928E-01  0.000000000000E+00
  0.168529091294E+00  0.718672257028E-01  0.686367344641E-02
  0.168529091410E+00 -0.718672254433E-01  0.686367333167E-02
  0.161559905652E+00 -0.680993746199E-24  0.162408044484E+00
  0.171049915267E+00  0.492052585883E-01  0.606548333666E-01
  0.171049915272E+00 -0.492052585772E-01  0.606548333617E-01
  0.180000000190E+00  0.799999987472E-01  0.000000000000E+00
  0.180000000296E+00 -0.799999980490E-01  0.000000000000E+00
  0.185600347279E+00  0.794544503866E-01  0.686367370701E-02
  0.185600347230E+00 -0.794544507096E-01  0.686367377267E-02
  0.185525814953E+00  0.704003271378E-01  0.272674722185E-01
  0.185525815060E+00 -0.704003268983E-01  0.272674721126E-01
  0.190279555878E+00  0.789971151882E-01  0.000000000000E+00
  0.190279555839E+00 -0.789971147901E-01  0.000000000000E+00
  0.186072195713E+00  0.357828064843E-01  0.106115037009E+00
  0.186072195710E+00 -0.357828064903E-01  0.106115037011E+00
  0.183666801215E+00  0.982528289020E-02  0.162408046834E+00
  0.183666801073E+00 -0.982528320974E-02  0.162408046976E+00
  0.195809803021E+00  0.784584063393E-01  0.686367406274E-02
  0.195809802983E+00 -0.784584059571E-01  0.686367406278E-02
  0.202248625484E+00  0.778326877173E-01  0.272674727177E-01
  0.202248625489E+00 -0.778326876849E-01  0.272674727112E-01
  0.212249693644E+00  0.768569736035E-01  0.272674731144E-01
  0.212249693619E+00 -0.768569733502E-01  0.272674731145E-01
  0.213338074569E+00  0.679999963249E-01  0.606548334658E-01
  0.213338074599E+00 -0.679999962569E-01  0.606548334358E-01
  0.220602764010E+00  0.760387531786E-01  0.000000000000E+00
  0.220602764025E+00 -0.760387533336E-01  0.000000000000E+00
  0.225926226596E+00  0.755202180431E-01  0.686367406281E-02
  0.225926226596E+00 -0.755202180462E-01  0.686367406281E-02
  0.229490713196E+00  0.751789473805E-01  0.606548342459E-01
  0.229490713201E+00 -0.751789473373E-01  0.606548342384E-01
  0.226807662045E+00  0.915128650143E-24  0.227998334793E+00
  0.241751404270E+00  0.739787579317E-01  0.272674731144E-01
  0.241751404227E+00 -0.739787574956E-01  0.272674731145E-01
  0.240686601331E+00  0.740866651457E-01  0.606548347057E-01
  0.240686601287E+00 -0.740866646958E-01  0.606548347057E-01
  0.237037573633E+00  0.335456272061E-01  0.162408047210E+00
  0.237037573529E+00 -0.335456274420E-01  0.162408047315E+00
  0.243002297925E+00  0.610850746424E-01  0.106115037196E+00
  0.243002297977E+00 -0.610850745264E-01  0.106115037145E+00
  0.247196737698E+00  0.906180763259E-02  0.227998337270E+00
  0.247196737722E+00 -0.906180757840E-02  0.227998337246E+00
  0.269449092017E+00  0.712732575459E-01  0.000000000000E+00
  0.269449092050E+00 -0.712732578827E-01  0.000000000000E+00
  0.266583517342E+00  0.715656172826E-01  0.106115038113E+00
  0.266583517373E+00 -0.715656170077E-01  0.106115038066E+00
  0.274439454493E+00  0.707872201296E-01  0.686367406282E-02
  0.274439454503E+00 -0.707872202382E-01  0.686367406281E-02
  0.273623603177E+00  0.708732990034E-01  0.606548347057E-01
  0.273623603178E+00 -0.708732990197E-01  0.606548347057E-01
  0.277241296803E+00  0.705258332608E-01  0.106115038646E+00
  0.277241296824E+00 -0.705258334812E-01  0.106115038646E+00
  0.289274417919E+00  0.693423664996E-01  0.272674731144E-01
  0.289274417874E+00 -0.693423660430E-01  0.272674731145E-01
  0.290408346230E+00  0.572659711203E-01  0.162408047409E+00
  0.290408346155E+00 -0.572659712896E-01  0.162408047484E+00
  0.296420326653E+00  0.309389583294E-01  0.227998337288E+00
  0.296420326452E+00 -0.309389587813E-01  0.227998337488E+00
  0.308595245915E+00  0.674669118029E-01  0.106115038646E+00
  0.308595245855E+00 -0.674669111914E-01  0.106115038646E+00
  0.299524355805E+00 -0.000000000000E+00  0.301096773273E+00
  0.312515242917E+00  0.670912589981E-01  0.162408048413E+00
  0.312515242921E+00 -0.670912589627E-01  0.162408048407E+00
  0.326387539377E+00  0.657255984558E-01  0.606548347056E-01
  0.326387539365E+00 -0.657255983354E-01  0.606548347056E-01
  0.334369181005E+00  0.649395896834E-01  0.000000000000E+00
  0.334369181047E+00 -0.649395901144E-01  0.000000000000E+00
  0.324231398692E+00  0.659482187773E-01  0.162408049080E+00
  0.324231398719E+00 -0.659482190543E-01  0.162408049079E+00
  0.338916830782E+00  0.644967437568E-01  0.686367406290E-02
  0.338916830817E+00 -0.644967441141E-01  0.686367406285E-02
  0.317998972571E+00  0.821093664156E-02  0.301096775309E+00
  0.317998972557E+00 -0.821093667224E-02  0.301096775323E+00
  0.352435732239E+00  0.631802872279E-01  0.272674731144E-01
  0.352435732219E+00 -0.631802870268E-01  0.272674731144E-01
  0.345643915337E+00  0.528161096378E-01  0.227998337577E+00
  0.345643915309E+00 -0.528161096989E-01  0.227998337604E+00
  0.358823186356E+00  0.625666251382E-01  0.106115038646E+00
  0.358823186284E+00 -0.625666244017E-01  0.106115038646E+00
  0.358581431891E+00  0.625969957987E-01  0.162408049080E+00
  0.358581431870E+00 -0.625969955761E-01  0.162408049080E+00
  0.366032992052E+00  0.618779225272E-01  0.227998338771E+00
  0.366032992123E+00 -0.618779218968E-01  0.227998338662E+00
  0.362600647859E+00  0.280339034605E-01  0.301096775318E+00
  0.362600647659E+00 -0.280339039093E-01  0.301096775516E+00
  0.378878756538E+00  0.606246767945E-01  0.227998339425E+00
  0.378878756458E+00 -0.606246759746E-01  0.227998339426E+00
  0.395911961686E+00  0.589427284990E-01  0.606548347056E-01
  0.395911961673E+00 -0.589427283725E-01  0.606548347056E-01
  0.377726465840E+00 -0.158353224810E-24  0.379709424322E+00
  0.412107666638E+00  0.573553462471E-01  0.000000000000E+00
  0.412107666707E+00 -0.573553469534E-01  0.000000000000E+00
  0.416125190655E+00  0.569642204140E-01  0.686367406295E-02
  0.416125190744E+00 -0.569642213322E-01  0.686367406284E-02
  0.413224443768E+00  0.572659710477E-01  0.162408049079E+00
  0.413224443716E+00 -0.572659705140E-01  0.162408049080E+00
  0.407202322751E+00  0.478568711676E-01  0.301096775720E+00
  0.407202322813E+00 -0.478568710278E-01  0.301096775658E+00
  0.428068175141E+00  0.558015119969E-01  0.272674731144E-01
  0.428068175154E+00 -0.558015121237E-01  0.272674731144E-01
  0.425006052822E+00  0.561097603773E-01  0.106115038646E+00
  0.425006052847E+00 -0.561097606334E-01  0.106115038646E+00
  0.416375365001E+00  0.569664711993E-01  0.227998339425E+00
  0.416375364896E+00 -0.569664701239E-01  0.227998339426E+00
  0.405749887114E+00  0.124548501211E-01  0.379709426496E+00
  0.405749887311E+00 -0.124548496776E-01  0.379709426300E+00
  0.425676940237E+00  0.560678125333E-01  0.301096776776E+00
  0.425676940248E+00 -0.560678124341E-01  0.301096776759E+00
  0.439740730080E+00  0.546957360300E-01  0.301096777543E+00
  0.439740729940E+00 -0.546957345974E-01  0.301096777544E+00
  0.478156363418E+00  0.509188851646E-01  0.606548347055E-01
  0.478156363325E+00 -0.509188842105E-01  0.606548347056E-01
  0.461796733812E+00  0.373645603679E-01  0.379709426719E+00
  0.461796734072E+00 -0.373645597826E-01  0.379709426460E+00
  0.475485064421E+00  0.511996717722E-01  0.227998339425E+00
  0.475485064330E+00 -0.511996708334E-01  0.227998339426E+00
  0.459280841831E+00 -0.000000000000E+00  0.461691940359E+00
  0.484436603273E+00  0.503184441000E-01  0.162408049079E+00
  0.484436603249E+00 -0.503184438621E-01  0.162408049079E+00
  0.498766416653E+00  0.489008330037E-01  0.000000000000E+00
  0.498766416725E+00 -0.489008337375E-01  0.000000000000E+00
  0.480555440431E+00  0.507138131966E-01  0.301096777543E+00
  0.480555440297E+00 -0.507138118159E-01  0.301096777544E+00
  0.502192984489E+00  0.485673616276E-01  0.686367406305E-02
  0.502192984556E+00 -0.485673623180E-01  0.686367406297E-02
  0.503297537672E+00  0.484715669343E-01  0.106115038646E+00
  0.503297537725E+00 -0.484715674824E-01  0.106115038646E+00
  0.512379220145E+00  0.475760436059E-01  0.272674731145E-01
  0.512379220144E+00 -0.475760435983E-01  0.272674731145E-01
  0.483638874890E+00  0.108257893149E-01  0.461691942561E+00
[...]
POINT_DATA                 410
SCALARS phi float 1
LOOKUP_TABLE default
  0.000000000000E+00
  0.000000000000E+00
  0.433680868994E-18
  0.000000000000E+00
  0.000000000000E+00
  0.000000000000E+00
  0.413590306277E-24
 -0.867361737988E-18
  0.260208521397E-17
  0.173472347598E-17
  0.000000000000E+00
 -0.827180612553E-24
  0.000000000000E+00
  0.173472347598E-17
 -0.260208521397E-17
 -0.260208521397E-17
 -0.173472347598E-17
 -0.867361737988E-17
 -0.827180612553E-24
  0.000000000000E+00
  0.867361737988E-17
  0.346944695195E-17
  0.346944695195E-17
 -0.693889390391E-17
 -0.346944695195E-17
  0.000000000000E+00
  0.346944695195E-17
  0.693889390391E-17
 -0.104083408559E-16
  0.693889390391E-17
 -0.104083408559E-16
 -0.346944695195E-17
  0.104083408559E-16
  0.827180612553E-24
  0.138777878078E-16
 -0.346944695195E-17
  0.104083408559E-16
  0.000000000000E+00
  0.173472347598E-16
 -0.693889390391E-17
  0.000000000000E+00
 -0.104083408559E-16
  0.208166817117E-16
  0.346944695195E-17
  0.346944695195E-17
 -0.693889390391E-17
  0.000000000000E+00
 -0.173472347598E-17
 -0.104083408559E-16
 -0.173472347598E-16
  0.346944695195E-17
 -0.104083408559E-16
  0.693889390391E-17
 -0.693889390391E-17
  0.000000000000E+00
 -0.346944695195E-17
  0.693889390391E-17
 -0.346944695195E-17
  0.104083408559E-16
 -0.346944695195E-17
  0.000000000000E+00
  0.000000000000E+00
  0.000000000000E+00
 -0.104083408559E-16
 -0.693889390391E-17
  0.000000000000E+00
  0.346944695195E-17
 -0.104083408559E-16
  0.346944695195E-17
 -0.208166817117E-16
  0.000000000000E+00
 -0.173472347598E-17
  0.000000000000E+00
  0.693889390391E-17
  0.138777878078E-16
  0.277555756156E-16
  0.208166817117E-16
 -0.346944695195E-17
 -0.346944695195E-17
 -0.138777878078E-16
 -0.138777878078E-16
 -0.138777878078E-16
 -0.138777878078E-16
 -0.104083408559E-16
  0.000000000000E+00
 -0.138777878078E-16
  0.693889390391E-17
  0.693889390391E-17
 -0.138777878078E-16
 -0.693889390391E-17
  0.000000000000E+00
  0.000000000000E+00
 -0.693889390391E-17
  0.208166817117E-16
  0.208166817117E-16
  0.346944695195E-16
  0.138777878078E-16
 -0.346944695195E-17
  0.693889390391E-17
  0.138777878078E-16
 -0.104083408559E-16
 -0.346944695195E-16
  0.346944695195E-17
  0.000000000000E+00
  0.138777878078E-16
  0.416333634234E-16
  0.693889390391E-17
 -0.208166817117E-16
  0.693889390391E-17
 -0.138777878078E-16
 -0.208166817117E-16
  0.138777878078E-16
  0.277555756156E-16
  0.277555756156E-16
  0.138777878078E-16
  0.346944695195E-16
  0.346944695195E-16
 -0.693889390391E-17
  0.138777878078E-16
  0.693889390391E-17
  0.827180612553E-24
  0.138777878078E-16
 -0.346944695195E-17
 -0.242861286637E-16
  0.416333634234E-16
  0.693889390391E-17
  0.000000000000E+00
 -0.208166817117E-16
  0.000000000000E+00
 -0.312250225676E-16
  0.000000000000E+00
  0.000000000000E+00
 -0.693889390391E-17
  0.693889390391E-17
 -0.208166817117E-16
  0.346944695195E-17
  0.346944695195E-17
  0.277555756156E-16
  0.416333634234E-16
  0.693889390391E-17
 -0.485722573274E-16
  0.138777878078E-16
  0.346944695195E-17
  0.693889390391E-17
  0.138777878078E-16
  0.000000000000E+00
  0.208166817117E-16
  0.000000000000E+00
 -0.416333634234E-16
 -0.346944695195E-17
 -0.208166817117E-16
  0.138777878078E-16
  0.138777878078E-16
 -0.693889390391E-17
  0.000000000000E+00
 -0.346944695195E-17
  0.277555756156E-16
 -0.346944695195E-17
  0.693889390391E-17
 -0.173472347598E-16
 -0.346944695195E-17
 -0.346944695195E-17
  0.208166817117E-16
 -0.485722573274E-16
  0.277555756156E-16
  0.346944695195E-16
  0.000000000000E+00
 -0.208166817117E-16
 -0.693889390391E-17
 -0.416333634234E-16
  0.104083408559E-16
  0.277555756156E-16
  0.208166817117E-16
 -0.346944695195E-17
 -0.138777878078E-16
  0.000000000000E+00
  0.173472347598E-16
 -0.693889390391E-17
  0.000000000000E+00
  0.000000000000E+00
  0.138777878078E-16
 -0.693889390391E-17
 -0.208166817117E-16
  0.138777878078E-16
  0.346944695195E-17
  0.346944695195E-17
  0.000000000000E+00
 -0.242861286637E-16
 -0.693889390391E-17
  0.693889390391E-17
  0.208166817117E-16
  0.693889390391E-17
  0.346944695195E-17
  0.000000000000E+00
  0.138777878078E-16
  0.000000000000E+00
 -0.693889390391E-17
  0.104083408559E-16
 -0.104083408559E-16
  0.000000000000E+00
  0.277555756156E-16
 -0.693889390391E-17
  0.693889390391E-17
  0.867361737988E-17
 -0.173472347598E-17
 -0.165436122511E-23
  0.138777878078E-16
  0.693889390391E-17
 -0.867361737988E-17
  0.346944695195E-17
  0.138777878078E-16
  0.693889390391E-17
  0.346944695195E-17
  0.693889390391E-17
 -0.173472347598E-17
  0.520417042793E-17
 -0.173472347598E-17
 -0.346944695195E-17
 -0.693889390391E-17
  0.000000000000E+00
 -0.346944695195E-16
  0.346944695195E-17
  0.693889390391E-17
 -0.693889390391E-17
 -0.346944695195E-17
  0.693889390391E-17
 -0.138777878078E-16
  0.693889390391E-17
 -0.156125112838E-16
 -0.173472347598E-17
  0.827180612553E-24
  0.000000000000E+00
  0.173472347598E-17
 -0.112757025938E-16
  0.260208521397E-17
 -0.242861286637E-16
  0.000000000000E+00
 -0.693889390391E-17
 -0.138777878078E-16
  0.216840434497E-17
 -0.607153216592E-17
  0.390312782095E-17
  0.216840434497E-17
 -0.867361737988E-18
  0.173472347598E-17
 -0.433680868994E-17
 -0.216840434497E-17
 -0.346944695195E-17
 -0.346944695195E-17
  0.138777878078E-16
 -0.693889390391E-17
 -0.104083408559E-16
 -0.346944695195E-17
  0.173472347598E-16
 -0.693889390391E-17
  0.173472347598E-17
  0.260208521397E-17
 -0.827180612553E-24
 -0.433680868994E-18
  0.346944695195E-17
 -0.433680868994E-17
  0.216840434497E-17
  0.379470760370E-18
  0.173472347598E-17
 -0.208166817117E-16
  0.832667268469E-16
  0.433680868994E-18
  0.130104260698E-17
 -0.433680868994E-17
  0.563785129692E-17
 -0.433680868994E-18
  0.173472347598E-17
 -0.390312782095E-17
  0.433680868994E-18
  0.867361737988E-17
 -0.346944695195E-17
  0.624500451352E-16
  0.277555756156E-16
  0.346944695195E-17
 -0.346944695195E-17
 -0.346944695195E-17
 -0.121430643318E-16
 -0.108420217249E-18
 -0.173472347598E-17
 -0.413590306277E-24
 -0.260208521397E-17
  0.433680868994E-18
  0.867361737988E-18
  0.867361737988E-18
  0.693889390391E-17
  0.780625564190E-17
  0.260208521397E-17
 -0.433680868994E-17
 -0.104083408559E-16
 -0.867361737988E-17
  0.112757025938E-16
 -0.433680868994E-17
  0.693889390391E-17
  0.000000000000E+00
  0.433680868994E-17
  0.346944695195E-17
 -0.208166817117E-16
 -0.693889390391E-17
  0.000000000000E+00
 -0.346944695195E-17
 -0.138777878078E-16
 -0.346944695195E-17
  0.233103467084E-17
 -0.151788304148E-17
  0.520417042793E-17
  0.277555756156E-16
  0.867361737988E-17
  0.346944695195E-17
  0.000000000000E+00
 -0.520417042793E-17
 -0.346944695195E-16
 -0.867361737988E-17
 -0.693889390391E-17
 -0.693889390391E-17
  0.104083408559E-16
  0.242861286637E-16
  0.520417042793E-17
  0.242861286637E-16
 -0.104083408559E-16
  0.104083408559E-16
  0.173472347598E-17
 -0.867361737988E-18
 -0.173472347598E-17
 -0.390312782095E-17
 -0.260208521397E-17
  0.000000000000E+00
  0.000000000000E+00
  0.104083408559E-16
 -0.104083408559E-16
  0.104083408559E-16
  0.104083408559E-16
  0.173472347598E-17
  0.173472347598E-17
 -0.156125112838E-16
  0.156125112838E-16
  0.346944695195E-17
  0.346944695195E-17
  0.000000000000E+00
  0.208166817117E-16
  0.173472347598E-17
 -0.138777878078E-16
 -0.693889390391E-17
 -0.346944695195E-17
  0.867361737988E-17
 -0.693889390391E-17
  0.000000000000E+00
  0.867361737988E-17
  0.693889390391E-17
 -0.520417042793E-17
 -0.867361737988E-17
  0.104083408559E-16
  0.173472347598E-17
  0.173472347598E-16
  0.104083408559E-16
 -0.121430643318E-16
  0.121430643318E-16
  0.104083408559E-16
 -0.165436122511E-23
  0.138777878078E-16
  0.173472347598E-16
 -0.346944695195E-17
 -0.173472347598E-17
  0.000000000000E+00
  0.156125112838E-16
  0.121430643318E-16
  0.520417042793E-17
  0.000000000000E+00
 -0.390312782095E-17
  0.000000000000E+00
  0.173472347598E-16
 -0.867361737988E-18
 -0.260208521397E-17
  0.433680868994E-18
  0.303576608296E-17
 -0.156125112838E-16
 -0.173472347598E-16
  0.000000000000E+00
 -0.190819582357E-16
 -0.693889390391E-17
 -0.346944695195E-17
 -0.954097911787E-17
 -0.867361737988E-18
 -0.827180612553E-24
 -0.108420217249E-17
  0.173472347598E-17
  0.433680868994E-18
  0.867361737988E-18
 -0.260208521397E-17
 -0.104083408559E-16
  0.104083408559E-16
  0.104083408559E-16
  0.346944695195E-17
  0.000000000000E+00
  0.346944695195E-17
 -0.346944695195E-17
  0.000000000000E+00
  0.000000000000E+00
  0.000000000000E+00
  0.000000000000E+00
  0.000000000000E+00
  0.000000000000E+00
  0.260208521397E-17
  0.000000000000E+00
  0.433680868994E-18
  0.206795153138E-24
SCALARS phi_mu float 1
LOOKUP_TABLE default
  0.285722484926E-09
  0.267015332996E-08
  0.207056037934E-02
  0.207056071462E-02
  0.326695827152E-02
  0.326695827070E-02
  0.354513064781E-08
  0.549371913732E-02
  0.549371914279E-02
  0.749135155338E-02
  0.749135173692E-02
  0.422514281672E-08
  0.893204256816E-02
  0.893204257131E-02
  0.777313185401E-02
  0.777313184238E-02
  0.119935798188E-01
  0.119935798237E-01
  0.501037385717E-08
  0.141918180743E-01
  0.141918182870E-01
  0.157648050228E-01
  0.157648050263E-01
  0.157187695859E-01
  0.157187695616E-01
  0.122793278376E-01
  0.122793278032E-01
  0.190839545615E-01
  0.190839545654E-01
  0.196126093844E-01
  0.196126095422E-01
  0.211680730041E-01
  0.211680730418E-01
  0.601813842451E-08
  0.234036661819E-01
  0.234036661820E-01
  0.216831674734E-01
  0.216831684665E-01
  0.232446852964E-01
  0.232446852583E-01
  0.246379652623E-01
  0.246379652730E-01
  0.230254561327E-01
  0.230254562385E-01
  0.240579133297E-01
  0.240579133294E-01
  0.138247248134E-01
  0.138247246986E-01
  0.235946413723E-01
  0.235946414658E-01
  0.267381082725E-01
  0.267381082732E-01
  0.258964648317E-01
  0.258964648888E-01
  0.291565476207E-01
  0.291565476217E-01
  0.250797150675E-01
  0.250797150374E-01
  0.253849299433E-01
  0.253849299427E-01
  0.313038919699E-01
  0.313038919693E-01
  0.606544214280E-08
  0.266181829797E-01
  0.266181830600E-01
  0.301183941894E-01
  0.301183942844E-01
  0.281495218980E-01
  0.281495218778E-01
  0.329201987479E-01
  0.329201987500E-01
  0.133503817354E-01
  0.133503817667E-01
  0.275013851122E-01
  0.275013850543E-01
  0.363405612445E-01
  0.363405612373E-01
  0.277325913709E-01
  0.277325913523E-01
  0.291517729167E-01
  0.291517729138E-01
  0.352308525323E-01
  0.352308524892E-01
  0.285776099823E-01
  0.285776100597E-01
  0.377588038661E-01
  0.377588038595E-01
  0.315009088540E-01
  0.315009087893E-01
  0.326361834471E-01
  0.326361835604E-01
  0.559221399536E-08
  0.413392184311E-01
  0.413392184303E-01
  0.306974369203E-01
  0.306974369406E-01
  0.303968435867E-01
  0.303968435158E-01
  0.402609079961E-01
  0.402609079435E-01
  0.305944384335E-01
  0.305944383749E-01
  0.120968304383E-01
  0.120968304205E-01
  0.312615807694E-01
  0.312615808024E-01
  0.420419709946E-01
  0.420419709901E-01
  0.330781597679E-01
  0.330781598943E-01
  0.370862694283E-01
  0.370862694730E-01
  0.458272648897E-01
  0.458272648812E-01
  0.336719363134E-01
  0.336719362155E-01
  0.449124055988E-01
  0.449124057535E-01
  0.313264067757E-01
  0.313264067841E-01
  0.559765277623E-08
  0.298841269146E-01
  0.298841268793E-01
  0.296102806636E-01
  0.296102806195E-01
  0.364163059457E-01
  0.364163060399E-01
  0.453240973556E-01
  0.453240973722E-01
  0.289131551325E-01
  0.289131551270E-01
  0.312914132987E-01
  0.312914132860E-01
  0.420407642977E-01
  0.420407645122E-01
  0.183492051535E-01
  0.183492054102E-01
  0.493567859449E-01
  0.493567859452E-01
  0.487732136137E-01
  0.487732138857E-01
  0.258958460044E-01
  0.258958460331E-01
  0.438460149816E-01
  0.438460151018E-01
  0.377311813135E-01
  0.377311813022E-01
  0.528075079401E-08
  0.292944346316E-01
  0.292944346390E-01
  0.241066928967E-01
  0.241066928781E-01
  0.465551172159E-01
  0.465551174926E-01
  0.238290185219E-01
  0.238290185047E-01
  0.250399954477E-01
  0.250399954332E-01
  0.230871767740E-01
  0.230871767742E-01
  0.159491786278E-01
  0.159491788521E-01
  0.515047347667E-01
  0.515047347806E-01
  0.514838351507E-01
  0.514838355209E-01
  0.435036188181E-01
  0.435036190065E-01
  0.364998387759E-01
  0.364998387781E-01
  0.266490462949E-01
  0.266490463024E-01
  0.191018433810E-01
  0.191018433774E-01
  0.503456983651E-01
  0.503456986712E-01
  0.215165378354E-01
  0.215165378150E-01
  0.493878767275E-08
  0.518528854924E-01
  0.518528855633E-01
  0.172978724487E-01
  0.172978724317E-01
  0.170598970934E-01
  0.170598970841E-01
  0.181217834982E-01
  0.181217835043E-01
  0.164092657690E-01
  0.164092657684E-01
  0.529177820804E-01
  0.529177824280E-01
  0.270319307684E-01
  0.270319313706E-01
  0.349414688748E-01
  0.349414688792E-01
  0.235139738335E-01
  0.235139738431E-01
  0.176251692539E-01
  0.176251692519E-01
  0.499009371061E-01
  0.499009372401E-01
  0.118881579293E-01
  0.118881579367E-01
  0.137940226278E-01
  0.137940226219E-01
  0.538111309915E-08
  0.493948561350E-01
  0.493948561505E-01
  0.102638455893E-01
  0.102638455779E-01
  0.523054241651E-01
  0.523054241276E-01
  0.100731991932E-01
  0.100731991844E-01
  0.110228535810E-01
  0.110228535841E-01
  0.954728954447E-02
  0.954728953957E-02
  0.222318787635E-01
  0.222318787501E-01
  0.200294293917E-01
  0.200294294069E-01
  0.521308919032E-01
  0.521308919150E-01
  0.135042326131E-01
  0.135042326048E-01
  0.444637531326E-01
  0.444637530934E-01
  0.929356558008E-02
  0.929356557353E-02
  0.457524949873E-08
  0.480957159760E-02
  0.480957160159E-02
  0.634643893202E-02
  0.634643893487E-02
  0.245734869037E-01
  0.245734869194E-01
  0.514546298792E-01
  0.514546299027E-01
  0.349655079265E-02
  0.349655078142E-02
  0.335272657228E-02
  0.335272656315E-02
  0.415372502097E-02
  0.415372502576E-02
  0.295631655983E-02
  0.295631655539E-02
  0.176291303647E-01
  0.176291308009E-01
  0.352582577743E-01
  0.352582579660E-01
  0.312234200508E-01
  0.312234200810E-01
  0.936224083209E-02
  0.936224083161E-02
  0.485169857082E-02
  0.485169856633E-02
  0.436611884838E-08
  0.174631481490E-02
  0.174631479678E-02
 -0.167413518035E-02
 -0.167413517766E-02
 -0.466395998267E-03
 -0.466396005664E-03
  0.415421433933E-01
  0.415421433998E-01
 -0.260966131224E-02
 -0.260966132153E-02
 -0.271099886508E-02
 -0.271099887408E-02
 -0.209600399646E-02
 -0.209600399975E-02
 -0.298713989795E-02
 -0.298713990164E-02
  0.978265915484E-02
  0.978265917290E-02
  0.474823828347E-01
  0.474823828340E-01
  0.266984735021E-01
  0.266984734962E-01
  0.129580134815E-01
  0.129580134884E-01
  0.814629659982E-03
  0.814629654987E-03
  0.255221153201E-08
 -0.242046421339E-02
 -0.242046422485E-02
 -0.467833920219E-02
 -0.467833921935E-02
 -0.716611018886E-02
 -0.716611019444E-02
 -0.772388592033E-02
 -0.772388592920E-02
 -0.625839865059E-02
 -0.625839866589E-02
 -0.778962749191E-02
 -0.778962750030E-02
 -0.796374037653E-02
 -0.796374038200E-02
 -0.737117191925E-02
 -0.737117192394E-02
  0.418315924710E-01
  0.418315924690E-01
  0.190178881270E-01
  0.190178884983E-01
  0.159863004310E-01
  0.159863004140E-01
 -0.331382172883E-03
 -0.331382160205E-03
 -0.115777472076E-01
 -0.115777472164E-01
 -0.116166810368E-01
 -0.116166810456E-01
  0.418222611154E-08
 -0.113382089985E-01
 -0.113382090072E-01
 -0.117134284525E-01
 -0.117134284608E-01
 -0.113708470561E-01
 -0.113708470659E-01
 -0.106780247881E-01
 -0.106780247996E-01
 -0.960121717552E-02
 -0.960121719206E-02
 -0.798565335631E-02
 -0.798565336886E-02
 -0.563585027976E-02
 -0.563585027490E-02
  0.263583947462E-02
  0.263583946926E-02
  0.124260101123E-01
  0.124260098336E-01
 -0.139720804642E-01
 -0.139720804697E-01
  0.203818457537E-01
  0.203818457389E-01
 -0.139943560175E-01
 -0.139943560262E-01
 -0.140428904920E-01
 -0.140428904982E-01
 -0.139438202012E-01
 -0.139438202092E-01
  0.349182772161E-01
  0.349182772117E-01
 -0.138661951518E-01
 -0.138661951602E-01
 -0.147840454675E-01
 -0.147840454420E-01
 -0.134479436160E-01
 -0.134479436211E-01
 -0.148006597765E-01
 -0.148006597765E-01
 -0.148328252709E-01
 -0.148328252698E-01
 -0.126983202860E-01
 -0.126983202968E-01
 -0.148296901698E-01
 -0.148296901698E-01
 -0.147141923700E-01
 -0.147141923692E-01
 -0.114930978024E-01
 -0.114930978076E-01
  0.441887070158E-08
  0.300147505452E-01
  0.300147505437E-01
 -0.660342115721E-02
 -0.660342115109E-02
 -0.143914522235E-01
 -0.143914522235E-01
 -0.968937508769E-02
 -0.968937508755E-02
  0.303173838002E-02
  0.303173835401E-02
 -0.137555363801E-01
 -0.137555363801E-01
  0.710264662944E-02
  0.710264669479E-02
 -0.345598919603E-02
 -0.345598920425E-02
 -0.126921712310E-01
 -0.126921712310E-01
 -0.110750585678E-01
 -0.110750585678E-01
 -0.875138779192E-02
 -0.875138779192E-02
 -0.550389432932E-02
 -0.550389432865E-02
  0.396047440458E-08
 -0.943293742615E-03
 -0.943293742615E-03
  0.319300636663E-02
  0.319300647769E-02
  0.593246655950E-02
  0.593246655950E-02
  0.190819499146E-01
  0.190819499155E-01
  0.287095318403E-01
  0.287095318403E-01
  0.291066627493E-01
  0.291066627493E-01
  0.233580548546E-08
  0.814817343210E-03
  0.857665187873E-03
  0.171035526132E-01
  0.171035526132E-01
  0.768892779715E-02
  0.768892779715E-02
  0.198498704174E-02
  0.198498704216E-02
  0.113218293072E-08
SCALARS phi_sigma float 1
LOOKUP_TABLE default
 -0.285722484926E-09
 -0.267015332996E-08
 -0.207056037934E-02
 -0.207056071462E-02
 -0.326695827152E-02
 -0.326695827070E-02
 -0.354513064781E-08
 -0.549371913732E-02
 -0.549371914279E-02
 -0.749135155338E-02
 -0.749135173692E-02
 -0.422514281672E-08
 -0.893204256816E-02
 -0.893204257131E-02
 -0.777313185401E-02
 -0.777313184238E-02
 -0.119935798188E-01
 -0.119935798237E-01
 -0.501037385717E-08
 -0.141918180743E-01
 -0.141918182870E-01
 -0.157648050228E-01
 -0.157648050263E-01
 -0.157187695859E-01
 -0.157187695616E-01
 -0.122793278376E-01
 -0.122793278032E-01
 -0.190839545615E-01
 -0.190839545654E-01
 -0.196126093844E-01
 -0.196126095422E-01
 -0.211680730041E-01
 -0.211680730418E-01
 -0.601813842451E-08
 -0.234036661819E-01
 -0.234036661820E-01
 -0.216831674734E-01
 -0.216831684665E-01
 -0.232446852964E-01
 -0.232446852583E-01
 -0.246379652623E-01
 -0.246379652730E-01
 -0.230254561327E-01
 -0.230254562385E-01
 -0.240579133297E-01
 -0.240579133294E-01
 -0.138247248134E-01
 -0.138247246986E-01
 -0.235946413723E-01
 -0.235946414658E-01
 -0.267381082725E-01
 -0.267381082732E-01
 -0.258964648317E-01
 -0.258964648888E-01
 -0.291565476207E-01
 -0.291565476217E-01
 -0.250797150675E-01
 -0.250797150374E-01
 -0.253849299433E-01
 -0.253849299427E-01
 -0.313038919699E-01
 -0.313038919693E-01
 -0.606544214280E-08
 -0.266181829797E-01
 -0.266181830600E-01
 -0.301183941894E-01
 -0.301183942844E-01
 -0.281495218980E-01
 -0.281495218778E-01
 -0.329201987479E-01
 -0.329201987500E-01
 -0.133503817354E-01
 -0.133503817667E-01
 -0.275013851122E-01
 -0.275013850543E-01
 -0.363405612445E-01
 -0.363405612373E-01
 -0.277325913709E-01
 -0.277325913523E-01
 -0.291517729167E-01
 -0.291517729138E-01
 -0.352308525323E-01
 -0.352308524892E-01
 -0.285776099823E-01
 -0.285776100597E-01
 -0.377588038661E-01
 -0.377588038595E-01
 -0.315009088540E-01
 -0.315009087893E-01
 -0.326361834471E-01
 -0.326361835604E-01
 -0.559221399536E-08
 -0.413392184311E-01
 -0.413392184303E-01
 -0.306974369203E-01
 -0.306974369406E-01
 -0.303968435867E-01
 -0.303968435158E-01
 -0.402609079961E-01
 -0.402609079435E-01
 -0.305944384335E-01
 -0.305944383749E-01
 -0.120968304383E-01
 -0.120968304205E-01
 -0.312615807694E-01
 -0.312615808024E-01
 -0.420419709946E-01
 -0.420419709901E-01
 -0.330781597679E-01
 -0.330781598943E-01
 -0.370862694283E-01
 -0.370862694730E-01
 -0.458272648897E-01
 -0.458272648812E-01
 -0.336719363134E-01
 -0.336719362155E-01
 -0.449124055988E-01
 -0.449124057535E-01
 -0.313264067757E-01
 -0.313264067841E-01
 -0.559765277623E-08
 -0.298841269146E-01
 -0.298841268793E-01
 -0.296102806636E-01