# vtk DataFile Version 3.0
MachLine results file. Generated by MachLine, USU AeroLab (c) 2022.
ASCII
DATASET POLYDATA
POINTS                3023 float
  0.000000000000E+00  0.000000000000E+00  0.000000000000E+00
  0.895597194070E-03  0.000000000000E+00 -0.199021598680E-03
  0.895597194070E-03  0.000000000000E+00  0.199021598680E-03
  0.201978017340E-02  0.000000000000E+00 -0.448840038540E-03
  0.201978017340E-02  0.000000000000E+00  0.448840038540E-03
  0.342194336150E-02  0.000000000000E+00 -0.760431858110E-03
  0.342194336150E-02  0.000000000000E+00  0.760431858110E-03
  0.515701313740E-02  0.000000000000E+00 -0.114600291940E-02
  0.515701313740E-02  0.000000000000E+00  0.114600291940E-02
  0.728308852790E-02  0.000000000000E+00 -0.161846411730E-02
  0.728308852790E-02  0.000000000000E+00  0.161846411730E-02
  0.827775178670E-02  0.832120786070E-02  0.000000000000E+00
  0.827775178670E-02 -0.832120786070E-02  0.000000000000E+00
  0.914115697030E-02  0.832120786070E-02 -0.191867818590E-03
  0.914115697030E-02 -0.832120786070E-02 -0.191867818590E-03
  0.914115697030E-02  0.832120786070E-02  0.191867818590E-03
  0.914115697030E-02 -0.832120786070E-02  0.191867818590E-03
  0.985721679120E-02  0.000000000000E+00 -0.219049262030E-02
  0.102249314820E-01  0.832120786070E-02 -0.432706598980E-03
  0.102249314820E-01 -0.832120786070E-02 -0.432706598980E-03
  0.985721679120E-02  0.000000000000E+00  0.219049262030E-02
  0.102249314820E-01  0.832120786070E-02  0.432706598980E-03
  0.102249314820E-01 -0.832120786070E-02  0.432706598980E-03
  0.115766942760E-01  0.832120786070E-02 -0.733098330870E-03
  0.115766942760E-01 -0.832120786070E-02 -0.733098330870E-03
  0.115766942760E-01  0.832120786070E-02  0.733098330870E-03
  0.115766942760E-01 -0.832120786070E-02  0.733098330870E-03
  0.129289354540E-01  0.000000000000E+00 -0.287309676740E-02
  0.132493974150E-01  0.832120786070E-02 -0.110481013970E-02
  0.132493974150E-01 -0.832120786070E-02 -0.110481013970E-02
  0.132493974150E-01  0.832120786070E-02  0.110481013970E-02
  0.132493974150E-01 -0.832120786070E-02  0.110481013970E-02
  0.129289354540E-01  0.000000000000E+00  0.287309676740E-02
  0.152990515740E-01  0.832120786070E-02 -0.156028884160E-02
  0.152990515740E-01 -0.832120786070E-02 -0.156028884160E-02
  0.152990515740E-01  0.832120786070E-02  0.156028884160E-02
  0.152990515740E-01 -0.832120786070E-02  0.156028884160E-02
  0.165316099180E-01  0.000000000000E+00 -0.367369109300E-02
  0.165316099180E-01  0.000000000000E+00  0.367369109300E-02
  0.172182429130E-01  0.173086342730E-01  0.000000000000E+00
  0.172182429130E-01 -0.173086342730E-01  0.000000000000E+00
  0.177806534600E-01  0.832120786070E-02 -0.211175592730E-02
  0.177806534600E-01 -0.832120786070E-02 -0.211175592730E-02
  0.180468787060E-01  0.173086342730E-01 -0.184141287390E-03
  0.180468787060E-01 -0.173086342730E-01 -0.184141287390E-03
  0.180468787060E-01  0.173086342730E-01  0.184141287390E-03
  0.180468787060E-01 -0.173086342730E-01  0.184141287390E-03
  0.177806534600E-01  0.832120786070E-02  0.211175592730E-02
  0.177806534600E-01 -0.832120786070E-02  0.211175592730E-02
  0.190870095390E-01  0.173086342730E-01 -0.415281472340E-03
  0.190870095390E-01 -0.173086342730E-01 -0.415281472340E-03
  0.190870095390E-01  0.173086342730E-01  0.415281472340E-03
  0.190870095390E-01 -0.173086342730E-01  0.415281472340E-03
  0.206723337860E-01  0.000000000000E+00 -0.459385195240E-02
  0.207419599860E-01  0.832120786070E-02 -0.276982404430E-02
  0.207419599860E-01 -0.832120786070E-02 -0.276982404430E-02
  0.203843367450E-01  0.173086342730E-01 -0.703576407050E-03
  0.203843367450E-01 -0.173086342730E-01 -0.703576407050E-03
  0.203843367450E-01  0.173086342730E-01  0.703576407050E-03
  0.203843367450E-01 -0.173086342730E-01  0.703576407050E-03
  0.207419599860E-01  0.832120786070E-02  0.276982404430E-02
  0.207419599860E-01 -0.832120786070E-02  0.276982404430E-02
  0.206723337860E-01  0.000000000000E+00  0.459385195240E-02
  0.219896800060E-01  0.173086342730E-01 -0.106031935400E-02
  0.219896800060E-01 -0.173086342730E-01 -0.106031935400E-02
  0.219896800060E-01  0.173086342730E-01  0.106031935400E-02
  0.219896800060E-01 -0.173086342730E-01  0.106031935400E-02
  0.242151372450E-01  0.832120786070E-02 -0.354164121300E-02
  0.242151372450E-01 -0.832120786070E-02 -0.354164121300E-02
  0.239567944400E-01  0.173086342730E-01 -0.149745589490E-02
  0.239567944400E-01 -0.173086342730E-01 -0.149745589490E-02
  0.239567944400E-01  0.173086342730E-01  0.149745589490E-02
  0.239567944400E-01 -0.173086342730E-01  0.149745589490E-02
  0.253221652780E-01  0.000000000000E+00 -0.562714783960E-02
  0.242151372450E-01  0.832120786070E-02  0.354164121300E-02
  0.242151372450E-01 -0.832120786070E-02  0.354164121300E-02
  0.263384620350E-01  0.173086342730E-01 -0.202671536050E-02
  0.263384620350E-01 -0.173086342730E-01 -0.202671536050E-02
  0.253221652780E-01  0.000000000000E+00  0.562714783960E-02
  0.263384620350E-01  0.173086342730E-01  0.202671536050E-02
  0.263384620350E-01 -0.173086342730E-01  0.202671536050E-02
  0.267917395800E-01  0.269323893420E-01  0.000000000000E+00
  0.267917395800E-01 -0.269323893420E-01  0.000000000000E+00
  0.282070238600E-01  0.832120786070E-02 -0.442872712740E-02
  0.282070238600E-01 -0.832120786070E-02 -0.442872712740E-02
  0.275831442370E-01  0.269323893420E-01 -0.175867701560E-03
  0.275831442370E-01 -0.269323893420E-01 -0.175867701560E-03
  0.275831442370E-01  0.269323893420E-01  0.175867701560E-03
  0.275831442370E-01 -0.269323893420E-01  0.175867701560E-03
  0.285765413250E-01  0.269323893420E-01 -0.396622610160E-03
  0.285765413250E-01 -0.269323893420E-01 -0.396622610160E-03
  0.285765413250E-01  0.269323893420E-01  0.396622610160E-03
  0.285765413250E-01 -0.269323893420E-01  0.396622610160E-03
  0.291805165300E-01  0.173086342730E-01 -0.265828302590E-02
  0.291805165300E-01 -0.173086342730E-01 -0.265828302590E-02
  0.282070238600E-01  0.832120786070E-02  0.442872712740E-02
  0.282070238600E-01 -0.832120786070E-02  0.442872712740E-02
  0.304094174850E-01  0.000000000000E+00 -0.675764833000E-02
  0.291805165300E-01  0.173086342730E-01  0.265828302590E-02
  0.291805165300E-01 -0.173086342730E-01  0.265828302590E-02
  0.298155787900E-01  0.269323893420E-01 -0.671964269040E-03
  0.298155787900E-01 -0.269323893420E-01 -0.671964269040E-03
  0.298155787900E-01  0.269323893420E-01  0.671964269040E-03
  0.298155787900E-01 -0.269323893420E-01  0.671964269040E-03
  0.313487929520E-01  0.269323893420E-01 -0.101267852710E-02
  0.313487929520E-01 -0.269323893420E-01 -0.101267852710E-02
  0.313487929520E-01  0.269323893420E-01  0.101267852710E-02
  0.313487929520E-01 -0.269323893420E-01  0.101267852710E-02
  0.304094174850E-01  0.000000000000E+00  0.675764833000E-02
  0.326897183580E-01  0.832120786070E-02 -0.542488146020E-02
  0.326897183580E-01 -0.832120786070E-02 -0.542488146020E-02
  0.325138286850E-01  0.173086342730E-01 -0.339901906030E-02
  0.325138286850E-01 -0.173086342730E-01 -0.339901906030E-02
  0.332275236760E-01  0.269323893420E-01 -0.143017424370E-02
  0.332275236760E-01 -0.269323893420E-01 -0.143017424370E-02
  0.325138286850E-01  0.173086342730E-01  0.339901906030E-02
  0.325138286850E-01 -0.173086342730E-01  0.339901906030E-02
  0.332275236760E-01  0.269323893420E-01  0.143017424370E-02
  0.332275236760E-01 -0.269323893420E-01  0.143017424370E-02
  0.326897183580E-01  0.832120786070E-02  0.542488146020E-02
  0.326897183580E-01 -0.832120786070E-02  0.542488146020E-02
  0.358190159330E-01  0.000000000000E+00 -0.795978131850E-02
  0.355021814230E-01  0.269323893420E-01 -0.193565374290E-02
  0.355021814230E-01 -0.269323893420E-01 -0.193565374290E-02
  0.363449617310E-01  0.173086342730E-01 -0.425038195950E-02
  0.363449617310E-01 -0.173086342730E-01 -0.425038195950E-02
  0.355021814230E-01  0.269323893420E-01  0.193565374290E-02
  0.355021814230E-01 -0.269323893420E-01  0.193565374290E-02
  0.375941105940E-01  0.832120786070E-02 -0.651474640160E-02
  0.375941105940E-01 -0.832120786070E-02 -0.651474640160E-02
  0.369489973750E-01  0.371429701360E-01  0.000000000000E+00
  0.369489973750E-01 -0.371429701360E-01  0.000000000000E+00
  0.363449617310E-01  0.173086342730E-01  0.425038195950E-02
  0.363449617310E-01 -0.173086342730E-01  0.425038195950E-02
  0.358190159330E-01  0.000000000000E+00  0.795978131850E-02
  0.377009006610E-01  0.371429701360E-01 -0.167089619000E-03
  0.377009006610E-01 -0.371429701360E-01 -0.167089619000E-03
  0.377009006610E-01  0.371429701360E-01  0.167089619000E-03
  0.377009006610E-01 -0.371429701360E-01  0.167089619000E-03
  0.382165405910E-01  0.269323893420E-01 -0.253884466910E-02
  0.382165405910E-01 -0.269323893420E-01 -0.253884466910E-02
  0.386447143320E-01  0.371429701360E-01 -0.376825990390E-03
  0.386447143320E-01 -0.371429701360E-01 -0.376825990390E-03
  0.382165405910E-01  0.269323893420E-01  0.253884466910E-02
  0.382165405910E-01 -0.269323893420E-01  0.253884466910E-02
  0.386447143320E-01  0.371429701360E-01  0.376825990390E-03
  0.386447143320E-01 -0.371429701360E-01  0.376825990390E-03
  0.375941105940E-01  0.832120786070E-02  0.651474640160E-02
  0.375941105940E-01 -0.832120786070E-02  0.651474640160E-02
  0.406471377910E-01  0.173086342730E-01 -0.520642108390E-02
  0.406471377910E-01 -0.173086342730E-01 -0.520642108390E-02
  0.414000000000E-01  0.000000000000E+00 -0.920000000000E-02
  0.398219077340E-01  0.371429701360E-01 -0.638424524220E-03
  0.398219077340E-01 -0.371429701360E-01 -0.638424524220E-03
  0.398219077340E-01  0.371429701360E-01  0.638424524220E-03
  0.398219077340E-01 -0.371429701360E-01  0.638424524220E-03
  0.414000848990E-01  0.269323893420E-01 -0.324629895980E-02
  0.414000848990E-01 -0.269323893420E-01 -0.324629895980E-02
  0.412785945950E-01  0.371429701360E-01 -0.962132715490E-03
  0.412785945950E-01 -0.371429701360E-01 -0.962132715490E-03
  0.428092624200E-01  0.832120786070E-02 -0.767366902960E-02
[...]
CELL_DATA                5928
SCALARS C_p_ise float 1
LOOKUP_TABLE default
  0.242999557743E+00
  0.311197173128E+00
  0.150269657267E+00
  0.149222013775E+00
  0.151977041936E+00
  0.150984991118E+00
  0.152885158124E+00
  0.154566810398E+00
  0.156257583240E+00
  0.154627419432E+00
  0.157281803382E+00
  0.160542151683E+00
  0.160672879329E+00
  0.159861901942E+00
  0.164799343557E+00
  0.164335339005E+00
  0.169028404829E+00
  0.175184974513E+00
  0.176555680798E+00
  0.177147357088E+00
  0.179124676652E+00
  0.191929490647E+00
  0.187781065945E+00
  0.183009318034E+00
  0.746020297355E-01
  0.168357986142E+00
  0.198989311546E+00
  0.201585520710E+00
  0.200872940080E+00
  0.203362047804E+00
  0.202592299705E+00
  0.205122640517E+00
  0.204512701961E+00
  0.206565853346E+00
  0.206362700032E+00
  0.207401135865E+00
  0.207647139086E+00
  0.207890563654E+00
  0.208094949161E+00
  0.162060929947E+00
  0.211443932237E+00
  0.183067668417E+00
  0.211702216438E+00
  0.156679649974E+00
  0.210407728743E+00
  0.738254717592E-01
  0.206321064185E+00
 -0.124802168749E+00
  0.196631976702E+00
 -0.185396009801E+00
  0.184391563026E+00
 -0.203113204794E+00
  0.849714085664E-01
  0.921000736984E-01
  0.151303219851E+00
  0.834968179787E-01
  0.138956231512E+00
  0.738719137911E-01
  0.480224608943E-01
  0.599772706176E-01
 -0.313683170211E+00
  0.433827198120E-01
  0.358955473319E+00
  0.407818512703E-01
  0.262403465936E-01
  0.334401968789E-01
  0.199247068320E-01
  0.240696353435E-01
  0.242384154789E-01
  0.130975949057E-01
  0.262574882814E-01
  0.168706039572E-01
  0.309215528474E-01
  0.245569466941E-01
  0.295432222238E-01
  0.233755617874E-01
  0.275678825254E-01
  0.247960877175E-01
 -0.243274720821E+00
 -0.292469418746E+00
 -0.175167824258E+00
 -0.172437244523E+00
 -0.195582579767E+00
 -0.200199188157E+00
 -0.196252848439E+00
 -0.195907571488E+00
 -0.197694710314E+00
 -0.196098647132E+00
 -0.192535627147E+00
 -0.193198589954E+00
 -0.192369824696E+00
 -0.193878047913E+00
 -0.194585747701E+00
 -0.192884874812E+00
 -0.191047616276E+00
 -0.193177692793E+00
 -0.193090572439E+00
 -0.191324766449E+00
 -0.190473513806E+00
 -0.191495951165E+00
 -0.188747847253E+00
 -0.189872891262E+00
 -0.300919648848E+00
 -0.257978635913E+00
 -0.306529634354E-02
  0.243314666585E+00
  0.149374654304E+00
  0.150230565026E+00
  0.151986515394E+00
  0.151938682260E+00
  0.154097247496E+00
  0.152841369902E+00
  0.154951030666E+00
  0.156217006306E+00
  0.156584783324E+00
  0.157250605220E+00
  0.160649331136E+00
  0.160628927031E+00
  0.165222320232E+00
  0.164745962403E+00
  0.163744289276E+00
  0.169029660006E+00
  0.177093273931E+00
  0.176530154784E+00
  0.157984154377E+00
  0.178756244462E+00
  0.187840596350E+00
  0.187816266870E+00
 -0.636469623710E-02
  0.525155028109E-01
  0.210788731518E+00
  0.207725916585E+00
  0.210693278411E+00
  0.204917035120E+00
  0.210186110876E+00
  0.196924592527E+00
  0.209501603628E+00
  0.183400319990E+00
  0.206116734243E+00
  0.206132214083E+00
  0.205347343061E+00
  0.183517636276E+00
  0.145773865277E+00
 -0.359387565833E-01
  0.161539243853E+00
  0.856673744011E-03
  0.125237943195E+00
 -0.169449503559E+00
  0.282101801109E-01
 -0.191599626537E+00
 -0.162662422991E+00
 -0.203112637372E+00
 -0.203112585835E+00
 -0.203112460227E+00
 -0.203113188806E+00
 -0.203113399811E+00
  0.849715060433E-01
  0.849714107905E-01
  0.849711983362E-01
  0.150652201423E+00
  0.845414046589E-01
  0.136920346920E+00
  0.118335586304E+00
  0.474279601625E-01
 -0.311427646630E+00
 -0.312028894879E+00
  0.467163813822E+00
  0.390453598291E+00
 -0.277082841551E-01
  0.260228825658E-01
 -0.886709415258E-02
  0.195813865251E-01
  0.751487635885E-01
  0.242431538773E-01
  0.622976783920E-01
  0.263381339392E-01
  0.370179435910E-01
  0.309866061377E-01
  0.238485078592E-01
  0.295597254648E-01
  0.218989545409E-01
  0.275469002213E-01
 -0.307570759107E+00
 -0.336881081575E+00
 -0.173877306373E+00
 -0.192270342826E+00
 -0.200606934035E+00
 -0.205708454874E+00
 -0.196066841055E+00
 -0.193405735214E+00
 -0.196332353189E+00
 -0.198301141419E+00
 -0.193369318647E+00
 -0.197410850150E+00
 -0.193973694463E+00
 -0.194390837796E+00
 -0.192965389848E+00
 -0.193636444345E+00
 -0.193258316779E+00
 -0.193212906944E+00
 -0.191399957783E+00
 -0.193305425169E+00
 -0.191559440949E+00
 -0.192001730424E+00
 -0.189935556721E+00
 -0.189558593567E+00
 -0.257840932381E+00
 -0.660274726289E-01
  0.428697596711E-01
 -0.175759978172E-03
  0.149668586055E+00
  0.149284734718E+00
  0.151256874906E+00
  0.151897026391E+00
  0.153448993991E+00
  0.154011728740E+00
  0.155407548250E+00
  0.154866902829E+00
  0.156777423543E+00
  0.156486573863E+00
  0.159510056232E+00
  0.160556789372E+00
  0.162102911767E+00
  0.165174889776E+00
  0.165295737680E+00
  0.163675243744E+00
  0.172905477475E+00
  0.177016563889E+00
  0.134179624051E+00
  0.157573109343E+00
  0.180137775909E+00
  0.187705723986E+00
 -0.511502987457E-01
 -0.173702255365E-01
  0.205165803445E+00
  0.197840798276E+00
  0.201448343511E+00
  0.182107020597E+00
  0.191980165053E+00
  0.150141103688E+00
  0.176999460237E+00
  0.114210296170E+00
  0.195901349780E+00
  0.176438293140E+00
  0.169246106246E+00
 -0.176734503944E-01
 -0.634485342893E-01
 -0.209313525485E+00
 -0.228049755608E-01
 -0.191548056034E+00
 -0.182787179623E+00
 -0.202534407268E+00
 -0.193009820805E+00
 -0.203112607334E+00
 -0.203112635488E+00
 -0.203112643564E+00
 -0.203112463442E+00
 -0.203112512606E+00
 -0.203113398105E+00
 -0.203113199154E+00
  0.849714282341E-01
  0.849715069622E-01
  0.849711645355E-01
  0.849711985982E-01
  0.849711986881E-01
  0.849711904256E-01
  0.849711793355E-01
  0.119152101009E+00
  0.674277639100E-01
 -0.318940571514E+00
  0.147106916751E+00
  0.467037369242E+00
  0.829142893883E-01
 -0.277917804324E-01
 -0.823013007111E-01
 -0.887138709896E-02
  0.110491965533E+00
  0.761054184511E-01
  0.118598334923E+00
  0.628376696831E-01
  0.191627399376E-01
  0.369926463516E-01
  0.121996278782E-01
  0.238001191037E-01
  0.193175968314E-01
  0.218549875665E-01
 -0.348156594616E+00
 -0.367314235745E+00
 -0.196404685973E+00
 -0.221291274918E+00
 -0.206916444560E+00
 -0.211092129704E+00
 -0.194085777296E+00
 -0.203119976815E+00
 -0.198569966268E+00
 -0.199645875014E+00
 -0.197728085088E+00
 -0.199878021732E+00
 -0.194641586921E+00
 -0.196318468078E+00
 -0.193853874380E+00
 -0.196408802460E+00
 -0.193381521454E+00
 -0.195221160681E+00
 -0.193462449200E+00
 -0.194052059810E+00
 -0.192154514641E+00
 -0.192777751528E+00
 -0.189704072590E+00
 -0.191285306558E+00
 -0.631573328913E-01
 -0.102803490049E+00
 -0.817138647360E-01
  0.426665535061E-01
  0.149422280760E+00
  0.149539073934E+00
  0.152014107608E+00
  0.151121417410E+00
  0.153807811454E+00
  0.153302517697E+00
  0.154656336261E+00
  0.155262816562E+00
  0.157887104524E+00
  0.156616716981E+00
  0.161237855950E+00
  0.159310260271E+00
  0.157379397229E+00
  0.161988592610E+00
  0.161022990476E+00
  0.165218699365E+00
  0.149695277878E+00
  0.173048671167E+00
  0.145718796929E+00
  0.134165427381E+00
  0.144040896681E+00
  0.179595101766E+00
 -0.610419260426E-01
 -0.536738517372E-01
  0.191934000985E+00
  0.175054799473E+00
  0.175690695419E+00
  0.132633997297E+00
  0.143153257444E+00
  0.778124988982E-01
  0.107807348186E+00
  0.798193107023E-01
  0.172911345726E+00
 -0.729449168043E-01
 -0.301293946246E-01
 -0.210117855521E+00
 -0.224412819770E+00
 -0.203523754458E+00
 -0.192646242135E+00
 -0.203109557129E+00
 -0.203059506638E+00
 -0.203112597515E+00
 -0.203112606486E+00
 -0.203112599215E+00
 -0.203112642009E+00
 -0.203112638906E+00
 -0.203112509312E+00
 -0.203112426309E+00
 -0.203113198903E+00
 -0.203113587476E+00
  0.849715751455E-01
  0.849714271766E-01
  0.849712027607E-01
  0.849711640150E-01
  0.849712193398E-01
  0.849711984834E-01
  0.849711833337E-01
  0.849711791043E-01
  0.849712164069E-01
  0.678035184295E-01
  0.856525282114E-01
  0.141308902867E+00
  0.104961505199E+00
  0.828960847398E-01
  0.218294530449E-01
 -0.822372751925E-01
  0.477750996184E-01
  0.110677639146E+00
  0.153707222609E+00
  0.118753904852E+00
  0.174171538993E-01
  0.190810908968E-01
  0.117165684582E-01
  0.121577066651E-01
  0.189570032825E-01
  0.192559113722E-01
 -0.374759177172E+00
 -0.381672465109E+00
 -0.229455372460E+00
 -0.275475947467E+00
 -0.211520473381E+00
 -0.208249870509E+00
 -0.204348823747E+00
 -0.211773969840E+00
 -0.200366915025E+00
 -0.204702229632E+00
 -0.200438350777E+00
 -0.203248701383E+00
 -0.196797407568E+00
 -0.202871461132E+00
 -0.196744252740E+00
 -0.198746434273E+00
 -0.195535421160E+00
 -0.197898314314E+00
 -0.194328095057E+00
 -0.196450769809E+00
 -0.193028104466E+00
 -0.195261747967E+00
 -0.191521637645E+00
 -0.193388135421E+00
 -0.103215478582E+00
  0.142142331531E-01
  0.294229684621E+00
 -0.808995639666E-01
  0.149606033849E+00
  0.149220913420E+00
  0.151965228531E+00
  0.151809213774E+00
  0.154816699489E+00
  0.153594451606E+00
  0.155950491574E+00
  0.154423834861E+00
  0.158513956643E+00
  0.157624961144E+00
  0.157774090064E+00
  0.161069565561E+00
  0.154777267023E+00
  0.157319819479E+00
  0.162616216821E+00
  0.160796236453E+00
  0.133205806602E+00
  0.149753924623E+00
  0.165923302191E+00
  0.145347111083E+00
  0.534357973986E-01
  0.140167927098E+00
 -0.173556108383E-01
 -0.572278898634E-01
  0.168528001631E+00
  0.112955881453E+00
  0.123687754324E+00
  0.503770446917E-01
  0.677106901175E-01
  0.990822342441E-02
  0.666628603071E-01
 -0.161778132729E+00
 -0.783319667044E-01
 -0.203304785720E+00
 -0.209751661472E+00
 -0.203203686241E+00
 -0.204333838470E+00
 -0.203112602387E+00
 -0.203112617262E+00
 -0.203112615948E+00
 -0.203112597305E+00
 -0.203112595067E+00
 -0.203112599306E+00
 -0.203112602827E+00
 -0.203112639237E+00
 -0.203112652667E+00
 -0.203112429662E+00
 -0.203112432447E+00
 -0.203113581195E+00
 -0.203113617950E+00
  0.849715912110E-01
  0.849715761905E-01
  0.849711747990E-01
  0.849712030897E-01
  0.849712125765E-01
  0.849712194364E-01
  0.849711778819E-01
  0.849711832631E-01
  0.849712125930E-01
  0.849712162733E-01
  0.849711952675E-01
  0.854850009773E-01
  0.849698848111E-01
  0.105270516934E+00
  0.871418252975E-01
  0.221079898628E-01
  0.636588907580E-01
  0.475380277515E-01
  0.638776173348E-01
  0.151878947717E+00
  0.103253982437E+00
  0.174024358647E-01
  0.132356936578E-01
  0.117143793452E-01
  0.260209293683E-01
  0.189808596720E-01
 -0.384845598398E+00
 -0.376889714103E+00
 -0.291581402652E+00
 -0.337062932250E+00
 -0.211151030001E+00
 -0.227710310484E+00
 -0.213323435094E+00
 -0.223125935525E+00
 -0.205652644334E+00
 -0.211765337907E+00
 -0.203940410624E+00
 -0.208707609664E+00
 -0.203538313722E+00
 -0.206078165378E+00
 -0.199363216031E+00
 -0.205612742623E+00
 -0.198374425946E+00
 -0.201617206581E+00
 -0.196885296698E+00
 -0.200972524435E+00
 -0.195650274459E+00
 -0.198981882717E+00
 -0.193748637039E+00
 -0.196458256726E+00
  0.152566033145E-01
 -0.295626034269E+00
  0.336138398105E+00
  0.295110183200E+00
  0.150089003833E+00
  0.149357210042E+00
  0.154599530168E+00
  0.151685332106E+00
  0.155549161304E+00
  0.154521743296E+00
  0.155834473857E+00
  0.155668056898E+00
  0.156787507755E+00
  0.158286860241E+00
  0.157947660570E+00
  0.157556528146E+00
  0.151828855134E+00
  0.154563459960E+00
  0.149930481060E+00
  0.162685246291E+00
  0.125427821499E+00
  0.133405525923E+00
  0.176151374321E+00
  0.165473886946E+00
 -0.151999571764E-01
  0.489361252568E-01
  0.641295110437E-01
 -0.644181033187E-02
  0.106203883206E+00
  0.184312678109E-01
  0.425997087488E-01
 -0.765557155934E-01
 -0.431031038493E-02
 -0.199203184065E+00
 -0.170330733977E+00
 -0.203503773866E+00
 -0.202600324957E+00
 -0.203112610651E+00
 -0.203112597778E+00
 -0.203112597671E+00
 -0.203112602326E+00
 -0.203112593673E+00
 -0.203112615438E+00
 -0.203112621953E+00
 -0.203112594968E+00
 -0.203112588378E+00
 -0.203112602335E+00
 -0.203112594972E+00
 -0.203112651424E+00
 -0.203112662179E+00
 -0.203112431420E+00
 -0.203112340322E+00
 -0.203113613937E+00
 -0.203114077901E+00
  0.849717679932E-01
  0.849715908707E-01
  0.849711911231E-01
  0.849711744689E-01
  0.849712288974E-01
  0.849712124552E-01
  0.849711797634E-01
  0.849711778114E-01
  0.849712223286E-01
  0.849712126319E-01
  0.849711897232E-01
  0.849711952885E-01
  0.849711771000E-01
  0.849752309426E-01
  0.849713746493E-01
  0.873842922463E-01
  0.855120114456E-01
  0.633804151318E-01
  0.871845135317E-01
  0.636920122338E-01
  0.275890416324E-01
  0.103289337647E+00
  0.110227725328E+00
  0.132448970980E-01
  0.254835429903E-01
  0.260265378533E-01
 -0.373358694895E+00
 -0.356690679565E+00
 -0.351929050529E+00
 -0.383781019122E+00
 -0.234525490728E+00
 -0.273630831078E+00
 -0.224946138713E+00
 -0.233424429979E+00
 -0.213177626092E+00
 -0.221124592376E+00
 -0.209793508595E+00
 -0.216726161573E+00
 -0.206880501872E+00
 -0.212636296011E+00
 -0.206365400841E+00
 -0.210835433093E+00
 -0.202297048092E+00
 -0.207502557204E+00
 -0.201591678519E+00
 -0.206516680431E+00
 -0.199549002358E+00
 -0.204460673986E+00
 -0.196978931735E+00
 -0.200871136351E+00
 -0.296314980704E+00
 -0.323403988506E+00
 -0.131680630948E+00
  0.335355428009E+00
  0.150451909847E+00
  0.149725295119E+00
  0.153010939362E+00
  0.154255701649E+00
  0.155720252319E+00
  0.155232771185E+00
  0.156381644983E+00
  0.155517184498E+00
  0.154410754169E+00
  0.156520661162E+00
  0.154525416096E+00
  0.157730325329E+00
  0.148617907065E+00
  0.151718183395E+00
  0.146042825345E+00
  0.149858213410E+00
  0.145241779392E+00
  0.124407104074E+00
  0.122679645544E+00
  0.176385275139E+00
 -0.264841171448E-01
 -0.170489012712E-01
  0.164859500591E+00
  0.658297909249E-01
  0.947855752985E-02
 -0.175166791294E+00
 -0.909677038887E-01
 -0.201456461699E+00
 -0.202571460622E+00
 -0.203144074111E+00
 -0.203591999422E+00
 -0.203112613938E+00
 -0.203112610055E+00
 -0.203112612177E+00
 -0.203112597242E+00
 -0.203112590654E+00
 -0.203112593376E+00
 -0.203112590596E+00
 -0.203112621102E+00
 -0.203112620964E+00
 -0.203112587844E+00
 -0.203112582986E+00
 -0.203112594475E+00
 -0.203112590659E+00
 -0.203112661284E+00
 -0.203112684727E+00
 -0.203112342369E+00
 -0.203112251661E+00
 -0.203114068434E+00
 -0.203114597467E+00
  0.849719726726E-01
  0.849717686063E-01
  0.849711814156E-01
  0.849711911180E-01
  0.849712394030E-01
  0.849712288697E-01
  0.849711741113E-01
  0.849711796207E-01
  0.849712290754E-01
  0.849712222192E-01
  0.849712018022E-01
  0.849711896363E-01
  0.849711671070E-01
  0.849711769706E-01
  0.849712118190E-01
  0.849714182556E-01
  0.849712024348E-01
  0.855371173692E-01
  0.849295479314E-01
  0.868445147436E-01
  0.901517758393E-01
  0.276655806424E-01
  0.523772835025E-01
  0.111141699014E+00
  0.923324238134E-01
  0.254638743397E-01
 -0.350575409533E+00
 -0.341601286864E+00
 -0.390271576881E+00
 -0.395052541540E+00
 -0.285756377758E+00
 -0.334766787769E+00
 -0.236751101379E+00
 -0.253358229530E+00
 -0.223218063640E+00
 -0.235880757269E+00
 -0.218204514556E+00
 -0.226848171847E+00
 -0.213843287956E+00
 -0.221739498883E+00
 -0.211823281953E+00
 -0.218092024687E+00
 -0.208401870575E+00
 -0.215119296307E+00
 -0.207326223581E+00
 -0.213207083582E+00
 -0.205219998750E+00
 -0.210212048306E+00
 -0.201595802442E+00
 -0.207309146782E+00
 -0.324130489384E+00
  0.412059967848E-01
  0.151384438957E+00
 -0.126442385907E+00
  0.151744270422E+00
  0.150107882148E+00
  0.154696062709E+00
  0.152646325800E+00
  0.154554100796E+00
  0.155349935565E+00
  0.153856332089E+00
  0.156062661413E+00
  0.154667879181E+00
  0.154097722112E+00
  0.151891074340E+00
  0.154226347875E+00
  0.147340397135E+00
  0.148269559159E+00
  0.142561696755E+00
  0.145716888933E+00
  0.143694009976E+00
  0.144840113406E+00
  0.503498447526E-01
  0.123336184542E+00
  0.403574614809E-01
 -0.245330266658E-01
  0.299987160839E+00
  0.142359507186E+00
 -0.185226935648E+00
 -0.203002458394E+00
 -0.201299877856E+00
 -0.203111186755E+00
 -0.203098025858E+00
 -0.203112602382E+00
 -0.203112614346E+00
 -0.203112619558E+00
 -0.203112612799E+00
 -0.203112604604E+00
 -0.203112591203E+00
 -0.203112588400E+00
 -0.203112591181E+00
 -0.203112578531E+00
 -0.203112620852E+00
 -0.203112621515E+00
 -0.203112583191E+00
 -0.203112562433E+00
 -0.203112590177E+00
 -0.203112573039E+00
 -0.203112682987E+00
 -0.203112713794E+00
 -0.203112252845E+00
 -0.203112035325E+00
 -0.203114584374E+00
 -0.203115707005E+00
  0.849724279249E-01
  0.849719729493E-01
  0.849712015794E-01
  0.849711811440E-01
  0.849712794769E-01
  0.849712393290E-01
  0.849711777086E-01
  0.849711740061E-01
  0.849712587233E-01
  0.849712291823E-01
  0.849712127078E-01
  0.849712019393E-01
  0.849711588391E-01
  0.849711670661E-01
  0.849712231636E-01
  0.849712119958E-01
  0.849712097410E-01
  0.849712051784E-01
  0.849711911146E-01
  0.849379222778E-01
  0.849695845015E-01
  0.901126989253E-01
  0.852675499828E-01
  0.520537678599E-01
  0.866144310684E-01
  0.927226790457E-01
 -0.337493666121E+00
 -0.322760921008E+00
 -0.395732296702E+00
 -0.384865878563E+00
 -0.348604329459E+00
 -0.384488996934E+00
 -0.260971503491E+00
 -0.305144364855E+00
 -0.238554953141E+00
 -0.251028242442E+00
 -0.228983533603E+00
 -0.242706374667E+00
 -0.223340658148E+00
 -0.233007775189E+00
 -0.219436189178E+00
 -0.228654800265E+00
 -0.216296037599E+00
 -0.224599257405E+00
 -0.214262130637E+00
 -0.221757604965E+00
 -0.211177474881E+00
 -0.218820308561E+00
 -0.208213392545E+00
 -0.215417333587E+00
  0.495151373296E-01
 -0.209909866831E+00
 -0.122771357219E+00
  0.149606438865E+00
  0.149517406722E+00
  0.151374831246E+00
  0.155096401932E+00
  0.154333260851E+00
  0.153446491323E+00
  0.154233691530E+00
  0.153894680862E+00
  0.153514727168E+00
  0.153976721217E+00
  0.154286018216E+00
  0.151190999053E+00
  0.151537390991E+00
  0.144658895534E+00
  0.147002298798E+00
  0.153485652969E+00
  0.141747036641E+00
  0.776480746178E-01
  0.144686207337E+00
  0.532225269438E-01
  0.502394593766E-01
  0.120870534212E+00
  0.412562476035E-01
  0.410846658216E+00
  0.260694736354E+00
 -0.203192767204E+00
 -0.203112596853E+00
 -0.203112558459E+00
 -0.203112596900E+00
 -0.203112602595E+00
 -0.203112599600E+00
 -0.203112619153E+00
 -0.203112621109E+00
 -0.203112605054E+00
 -0.203112614061E+00
 -0.203112589729E+00
 -0.203112575881E+00
 -0.203112579932E+00
 -0.203112607641E+00
 -0.203112624000E+00
 -0.203112636236E+00
 -0.203112566279E+00
 -0.203112613681E+00
 -0.203112579111E+00
 -0.203112624110E+00
 -0.203112720308E+00
 -0.203112710674E+00
 -0.203112046360E+00
 -0.203112357984E+00
 -0.203115704345E+00
 -0.203114181586E+00
  0.849718364650E-01
  0.849724310550E-01
  0.849710979773E-01
  0.849712031448E-01
  0.849712042010E-01
  0.849712806908E-01
  0.849711346825E-01
  0.849711785496E-01
  0.849711939321E-01
  0.849712591809E-01
  0.849711836914E-01
  0.849712127752E-01
  0.849711738981E-01
  0.849711589414E-01
  0.849712207017E-01
  0.849712233192E-01
  0.849712147994E-01
  0.849712098262E-01
  0.849711902189E-01
  0.849711911301E-01
  0.849711803238E-01
  0.849691324573E-01
  0.849712234150E-01
  0.853438703045E-01
  0.848928237261E-01
  0.861321797037E-01
 -0.318585248217E+00
 -0.315257891768E+00
 -0.378286205317E+00
 -0.358315378860E+00
 -0.390460550184E+00
 -0.391986202172E+00
 -0.317897146561E+00
 -0.362388806646E+00
 -0.257381567184E+00
 -0.299013703891E+00
 -0.245559174796E+00
 -0.259733262366E+00
 -0.235347515957E+00
 -0.251770681972E+00
 -0.230449369160E+00
 -0.242889063024E+00
 -0.226127631288E+00
 -0.236634128321E+00
 -0.223125337909E+00
 -0.232452879658E+00
 -0.220099039011E+00
 -0.229663219949E+00
 -0.216616339391E+00
 -0.225444793037E+00
 -0.213091144365E+00
  0.159472352700E-01
  0.888956262738E+00
 -0.120512014031E+00
  0.146325632148E+00
  0.149050831869E+00
  0.150942543133E+00
  0.154655740145E+00
  0.154258187115E+00
  0.152996717834E+00
  0.153056832383E+00
  0.153438265740E+00
  0.148418109135E+00
  0.153659210055E+00