# vtk DataFile Version 3.0
TriPan results file. Generated by TriPan, USU AeroLab (c) 2021.
ASCII
DATASET POLYDATA
POINTS                  40 float
  0.197579002380E+02  0.757896304131E+00  0.000000000000E+00
  0.997325075033E+04  0.757896304131E+00  0.730938824324E+03
  0.190000000000E+02  0.000000000000E+00  0.000000000000E+00
  0.997324668508E+04  0.000000000000E+00  0.730994182505E+03
  0.207889842987E+02  0.178897356987E+01  0.000000000000E+00
  0.997325628090E+04  0.178897356987E+01  0.730863512383E+03
  0.221728172302E+02  0.317279767990E+01  0.000000000000E+00
  0.997326370354E+04  0.317279767990E+01  0.730762435130E+03
  0.239966468811E+02  0.499661636353E+01  0.000000000000E+00
  0.997327348626E+04  0.499661636353E+01  0.730629219850E+03
  0.263436698914E+02  0.734362459183E+01  0.000000000000E+00
  0.997328607530E+04  0.734362459183E+01  0.730457789736E+03
  0.292729015350E+02  0.102728376389E+02  0.000000000000E+00
  0.997330178722E+04  0.102728376389E+02  0.730243834221E+03
  0.327922058105E+02  0.137921218872E+02  0.000000000000E+00
  0.997332066418E+04  0.137921218872E+02  0.729986778907E+03
  0.368321151733E+02  0.178320064545E+02  0.000000000000E+00
  0.997334233358E+04  0.178320064545E+02  0.729691697810E+03
  0.412340698242E+02  0.222339305878E+02  0.000000000000E+00
  0.997336594493E+04  0.222339305878E+02  0.729370172376E+03
  0.457662315369E+02  0.267660694122E+02  0.000000000000E+00
  0.997339025469E+04  0.267660694122E+02  0.729039136422E+03
  0.501681861877E+02  0.311679935455E+02  0.000000000000E+00
  0.997341386604E+04  0.311679935455E+02  0.728717610988E+03
  0.542080955505E+02  0.352078781128E+02  0.000000000000E+00
  0.997343553544E+04  0.352078781128E+02  0.728422529891E+03
  0.577274017334E+02  0.387271614075E+02  0.000000000000E+00
  0.997345441242E+04  0.387271614075E+02  0.728165474438E+03
  0.606566314697E+02  0.416563758850E+02  0.000000000000E+00
  0.997347012432E+04  0.416563758850E+02  0.727951519063E+03
  0.630036544800E+02  0.440033836365E+02  0.000000000000E+00
  0.997348271336E+04  0.440033836365E+02  0.727780088948E+03
  0.648274841309E+02  0.458272018433E+02  0.000000000000E+00
  0.997349249608E+04  0.458272018433E+02  0.727646873668E+03
  0.662113189697E+02  0.472110252380E+02  0.000000000000E+00
  0.997349991874E+04  0.472110252380E+02  0.727545796276E+03
  0.672424011230E+02  0.482421035767E+02  0.000000000000E+00
  0.997350544929E+04  0.482421035767E+02  0.727470484474E+03
  0.680002975464E+02  0.490000000000E+02  0.000000000000E+00
  0.997350951452E+04  0.490000000000E+02  0.727415126572E+03
POLYGONS                  38                 152
3                   0                   1                   3
3                   0                   3                   2
3                   4                   5                   1
3                   4                   1                   0
3                   6                   7                   5
3                   6                   5                   4
3                   8                   9                   7
3                   8                   7                   6
3                  10                  11                   9
3                  10                   9                   8
3                  12                  13                  11
3                  12                  11                  10
3                  14                  15                  13
3                  14                  13                  12
3                  16                  17                  15
3                  16                  15                  14
3                  18                  19                  17
3                  18                  17                  16
3                  20                  21                  19
3                  20                  19                  18
3                  22                  23                  21
3                  22                  21                  20
3                  24                  25                  23
3                  24                  23                  22
3                  26                  27                  25
3                  26                  25                  24
3                  28                  29                  27
3                  28                  27                  26
3                  30                  31                  29
3                  30                  29                  28
3                  32                  33                  31
3                  32                  31                  30
3                  34                  35                  33
3                  34                  33                  32
3                  36                  37                  35
3                  36                  35                  34
3                  38                  39                  37
3                  38                  37                  36
CELL_DATA                  38
NORMALS normals float
  0.730425630093E-01 -0.730429421374E-01 -0.994650447440E+00
  0.730425630093E-01 -0.730429421375E-01 -0.994650447440E+00
  0.730425624638E-01 -0.730430438258E-01 -0.994650440013E+00
  0.730425624638E-01 -0.730430438258E-01 -0.994650440013E+00
  0.730425625478E-01 -0.730430281724E-01 -0.994650441156E+00
  0.730425625478E-01 -0.730430281725E-01 -0.994650441156E+00
  0.730425626886E-01 -0.730430019195E-01 -0.994650443074E+00
  0.730425626886E-01 -0.730430019195E-01 -0.994650443074E+00
  0.730425625776E-01 -0.730430226165E-01 -0.994650441562E+00
  0.730425625776E-01 -0.730430226165E-01 -0.994650441562E+00
  0.730425625579E-01 -0.730430262792E-01 -0.994650441294E+00
  0.730425625579E-01 -0.730430262791E-01 -0.994650441294E+00
  0.730425628143E-01 -0.730429784778E-01 -0.994650444786E+00
  0.730425628143E-01 -0.730429784778E-01 -0.994650444786E+00
  0.730425626401E-01 -0.730430109517E-01 -0.994650442414E+00
  0.730425626401E-01 -0.730430109517E-01 -0.994650442414E+00
  0.730425623303E-01 -0.730430687188E-01 -0.994650438194E+00
  0.730425623303E-01 -0.730430687188E-01 -0.994650438194E+00
  0.730425630639E-01 -0.730429319449E-01 -0.994650448185E+00
  0.730425630639E-01 -0.730429319450E-01 -0.994650448185E+00
  0.730425623303E-01 -0.730430687172E-01 -0.994650438195E+00
  0.730425623303E-01 -0.730430687171E-01 -0.994650438195E+00
  0.730425626401E-01 -0.730430109517E-01 -0.994650442414E+00
  0.730425626401E-01 -0.730430109517E-01 -0.994650442414E+00
  0.730425624975E-01 -0.730430375411E-01 -0.994650440472E+00
  0.730425624975E-01 -0.730430375411E-01 -0.994650440472E+00
  0.730425630020E-01 -0.730429434936E-01 -0.994650447341E+00
  0.730425630020E-01 -0.730429434937E-01 -0.994650447341E+00
  0.730425624984E-01 -0.730430373763E-01 -0.994650440484E+00
  0.730425624984E-01 -0.730430373762E-01 -0.994650440484E+00
  0.730425625867E-01 -0.730430209143E-01 -0.994650441686E+00
  0.730425625867E-01 -0.730430209144E-01 -0.994650441686E+00
  0.730425618092E-01 -0.730431658648E-01 -0.994650431099E+00
  0.730425618092E-01 -0.730431658649E-01 -0.994650431099E+00
  0.730425635903E-01 -0.730428338203E-01 -0.994650455352E+00
  0.730425635903E-01 -0.730428338201E-01 -0.994650455352E+00
  0.730425650319E-01 -0.730425650415E-01 -0.994650474984E+00
  0.730425650319E-01 -0.730425650416E-01 -0.994650474984E+00
POINT_DATA                  40
SCALARS mu float 1
LOOKUP_TABLE default
 -0.226175775362E+01
 -0.226175775362E+01
 -0.224676199586E+01
 -0.224676199586E+01
 -0.228651246107E+01
 -0.228651246107E+01
 -0.232156748611E+01
 -0.232156748611E+01
 -0.236598186295E+01
 -0.236598186295E+01
 -0.241725922539E+01
 -0.241725922539E+01
 -0.247115617534E+01
 -0.247115617534E+01
 -0.252235620590E+01
 -0.252235620590E+01
 -0.256383523866E+01
 -0.256383523866E+01
 -0.258770580950E+01
 -0.258770580950E+01
 -0.258527040545E+01
 -0.258527040545E+01
 -0.254599272151E+01
 -0.254599272151E+01
 -0.245916990071E+01
 -0.245916990071E+01
 -0.231537163179E+01
 -0.231537163179E+01
 -0.211129085939E+01
 -0.211129085939E+01
 -0.184997342777E+01
 -0.184997342777E+01
 -0.153470183329E+01
 -0.153470183329E+01
 -0.115850955475E+01
 -0.115850955475E+01
 -0.681378464738E+00
 -0.681378464738E+00
  0.000000000000E+00
  0.000000000000E+00
