# vtk DataFile Version 3.0
TriPan results file. Generated by TriPan, USU AeroLab (c) 2021.
ASCII
DATASET POLYDATA
POINTS                 144 float
  0.000000000000E+00  0.000000000000E+00  0.000000000000E+00
  0.113538098335E+01  0.000000000000E+00 -0.658124566078E+00
  0.113538098335E+01  0.000000000000E+00  0.658124566078E+00
  0.192375373840E+01  0.192375373840E+01  0.000000000000E+00
  0.305913543701E+01  0.192375373840E+01 -0.658124983311E+00
  0.305913543701E+01  0.192375373840E+01  0.658124983311E+00
  0.423028087616E+01  0.000000000000E+00 -0.108747220039E+01
  0.423028087616E+01  0.000000000000E+00  0.108747220039E+01
  0.547033166885E+01  0.547033166885E+01  0.000000000000E+00
  0.615403699875E+01  0.192375373840E+01 -0.108747279644E+01
  0.615403699875E+01  0.192375373840E+01  0.108747279644E+01
  0.660571479797E+01  0.547033166885E+01 -0.658125698566E+00
  0.660571479797E+01  0.547033166885E+01  0.658125698566E+00
  0.939508819580E+01  0.000000000000E+00 -0.980745851994E+00
  0.939508819580E+01  0.000000000000E+00  0.980745851994E+00
  0.970061969757E+01  0.547033166885E+01 -0.108747410774E+01
  0.970061969757E+01  0.547033166885E+01  0.108747410774E+01
  0.113188476562E+02  0.192375373840E+01 -0.980746448040E+00
  0.113188476562E+02  0.192375373840E+01  0.980746448040E+00
  0.113820018768E+02  0.113820018768E+02  0.000000000000E+00
  0.125173873901E+02  0.113820018768E+02 -0.658127009869E+00
  0.125173873901E+02  0.113820018768E+02  0.658127009869E+00
  0.145402030945E+02  0.000000000000E+00 -0.479613035917E+00
  0.145402030945E+02  0.000000000000E+00  0.479613035917E+00
  0.148654365540E+02  0.547033166885E+01 -0.980747580528E+00
  0.148654365540E+02  0.547033166885E+01  0.980747580528E+00
  0.156122989655E+02  0.113820018768E+02 -0.108747613430E+01
  0.156122989655E+02  0.113820018768E+02  0.108747613430E+01
  0.164639663696E+02  0.192375373840E+01 -0.479613333941E+00
  0.164639663696E+02  0.192375373840E+01  0.479613333941E+00
  0.176505107880E+02  0.000000000000E+00 -0.144198849797E+00
  0.176505107880E+02  0.000000000000E+00  0.144198849797E+00
  0.190000000000E+02  0.000000000000E+00  0.000000000000E+00
  0.195742740631E+02  0.192375373840E+01 -0.144198939204E+00
  0.195742740631E+02  0.192375373840E+01  0.144198939204E+00
  0.197561950684E+02  0.197561950684E+02  0.000000000000E+00
  0.200105609894E+02  0.547033166885E+01 -0.479613870382E+00
  0.200105609894E+02  0.547033166885E+01  0.479613870382E+00
  0.207771244049E+02  0.113820018768E+02 -0.980749428272E+00
  0.207771244049E+02  0.113820018768E+02  0.980749428272E+00
  0.208915824890E+02  0.197561950684E+02 -0.658128738403E+00
  0.208915824890E+02  0.197561950684E+02  0.658128738403E+00
  0.209237651825E+02  0.192375373840E+01  0.000000000000E+00
  0.231208724976E+02  0.547033166885E+01 -0.144199103117E+00
  0.231208724976E+02  0.547033166885E+01  0.144199103117E+00
  0.239865016937E+02  0.197561950684E+02 -0.108747911453E+01
  0.239865016937E+02  0.197561950684E+02  0.108747911453E+01
  0.244703655243E+02  0.547033166885E+01  0.000000000000E+00
  0.259222583771E+02  0.113820018768E+02 -0.479614794254E+00
  0.259222583771E+02  0.113820018768E+02  0.479614794254E+00
  0.290325775146E+02  0.113820018768E+02 -0.144199386239E+00
  0.290325775146E+02  0.113820018768E+02  0.144199386239E+00
  0.291513423920E+02  0.197561950684E+02 -0.980752110481E+00
  0.291513423920E+02  0.197561950684E+02  0.980752110481E+00
  0.292438049316E+02  0.292438049316E+02  0.000000000000E+00
  0.303791980743E+02  0.292438049316E+02 -0.658130764961E+00
  0.303791980743E+02  0.292438049316E+02  0.658130764961E+00
  0.303820724487E+02  0.113820018768E+02  0.000000000000E+00
  0.334741249084E+02  0.292438049316E+02 -0.108748245239E+01
  0.334741249084E+02  0.292438049316E+02  0.108748245239E+01
  0.342964897156E+02  0.197561950684E+02 -0.479616105556E+00
  0.342964897156E+02  0.197561950684E+02  0.479616105556E+00
  0.374068183899E+02  0.197561950684E+02 -0.144199773669E+00
  0.374068183899E+02  0.197561950684E+02  0.144199773669E+00
  0.376179962158E+02  0.376179962158E+02  0.000000000000E+00
  0.386389808655E+02  0.292438049316E+02 -0.980755090714E+00
  0.386389808655E+02  0.292438049316E+02  0.980755090714E+00
  0.387533912659E+02  0.376179962158E+02 -0.658132553101E+00
  0.387533912659E+02  0.376179962158E+02  0.658132553101E+00
  0.387563171387E+02  0.197561950684E+02  0.000000000000E+00
  0.418483314514E+02  0.376179962158E+02 -0.108748543262E+01
  0.418483314514E+02  0.376179962158E+02  0.108748543262E+01
  0.435296669006E+02  0.435296669006E+02  0.000000000000E+00
  0.437841453552E+02  0.292438049316E+02 -0.479617565870E+00
  0.437841453552E+02  0.292438049316E+02  0.479617565870E+00
  0.446650657654E+02  0.435296669006E+02 -0.658133804798E+00
  0.446650657654E+02  0.435296669006E+02  0.658133804798E+00
  0.468944816589E+02  0.292438049316E+02 -0.144200220704E+00
  0.468944816589E+02  0.292438049316E+02  0.144200220704E+00
  0.470131988525E+02  0.376179962158E+02 -0.980757772923E+00
  0.470131988525E+02  0.376179962158E+02  0.980757772923E+00
  0.470762481689E+02  0.470762481689E+02  0.000000000000E+00
  0.477600097656E+02  0.435296669006E+02 -0.108748745918E+01
  0.477600097656E+02  0.435296669006E+02  0.108748745918E+01
  0.482116432190E+02  0.470762481689E+02 -0.658134579659E+00
  0.482116432190E+02  0.470762481689E+02  0.658134579659E+00
  0.482439842224E+02  0.292438049316E+02  0.000000000000E+00
  0.490000000000E+02  0.490000000000E+02  0.000000000000E+00
  0.501353988647E+02  0.490000000000E+02 -0.658134996891E+00
  0.501353988647E+02  0.490000000000E+02  0.658134996891E+00
  0.506007728577E+02  0.494653701782E+02 -0.465371757746E+00
  0.506007728577E+02  0.494653701782E+02  0.465371757746E+00
  0.507935333252E+02  0.496581344604E+02 -0.771266485397E-15
  0.513065910339E+02  0.470762481689E+02 -0.108748877048E+01
  0.513065910339E+02  0.470762481689E+02  0.108748877048E+01
  0.521583786011E+02  0.376179962158E+02 -0.479618877172E+00
  0.521583786011E+02  0.376179962158E+02  0.479618877172E+00
  0.529248886108E+02  0.435296669006E+02 -0.980759620667E+00
  0.529248886108E+02  0.435296669006E+02  0.980759620667E+00
  0.532303466797E+02  0.490000000000E+02 -0.108748936653E+01
  0.532303466797E+02  0.490000000000E+02  0.108748936653E+01
  0.539993209839E+02  0.497689704895E+02 -0.768971264362E+00
  0.539993209839E+02  0.497689704895E+02  0.768971264362E+00
  0.543178405762E+02  0.500874900818E+02 -0.157378642191E-15
  0.552687225342E+02  0.376179962158E+02 -0.144200608134E+00
  0.552687225342E+02  0.376179962158E+02  0.144200608134E+00
  0.564714775085E+02  0.470762481689E+02 -0.980760753155E+00
  0.564714775085E+02  0.470762481689E+02  0.980760753155E+00
  0.566182289124E+02  0.376179962158E+02  0.000000000000E+00
  0.580700759888E+02  0.435296669006E+02 -0.479619771242E+00
  0.580700759888E+02  0.435296669006E+02  0.479619771242E+00
  0.583952369690E+02  0.490000000000E+02 -0.980761349201E+00
  0.583952369690E+02  0.490000000000E+02  0.980761349201E+00
  0.590887413025E+02  0.496935043335E+02 -0.693503141403E+00
  0.590887413025E+02  0.496935043335E+02  0.693503141403E+00
  0.593759994507E+02  0.499807624817E+02  0.000000000000E+00
  0.611804275513E+02  0.435296669006E+02 -0.144200876355E+00
  0.611804275513E+02  0.435296669006E+02  0.144200876355E+00
  0.616166725159E+02  0.470762481689E+02 -0.479620337486E+00
  0.616166725159E+02  0.470762481689E+02  0.479620337486E+00
  0.625299339294E+02  0.435296669006E+02  0.000000000000E+00
  0.635404319763E+02  0.490000000000E+02 -0.479620635509E+00
  0.635404319763E+02  0.490000000000E+02  0.479620635509E+00
  0.638795776367E+02  0.493391418457E+02 -0.339143037796E+00
  0.638795776367E+02  0.493391418457E+02  0.339143037796E+00
  0.640200576782E+02  0.494796218872E+02  0.296956834055E-15
  0.647270278931E+02  0.470762481689E+02 -0.144201040268E+00
  0.647270278931E+02  0.470762481689E+02  0.144201040268E+00
  0.660765380859E+02  0.470762481689E+02  0.000000000000E+00
  0.666507873535E+02  0.490000000000E+02 -0.144201144576E+00
  0.666507873535E+02  0.490000000000E+02  0.144201144576E+00
  0.667527542114E+02  0.491019668579E+02 -0.101965606213E+00
  0.667527542114E+02  0.491019668579E+02  0.101965606213E+00
  0.667949905396E+02  0.491441993713E+02 -0.260488604752E-16
  0.680002975464E+02  0.490000000000E+02  0.000000000000E+00
  0.209237651825E+02  0.192375373840E+01  0.000000000000E+00
  0.190000000000E+02  0.000000000000E+00  0.000000000000E+00
  0.244703655243E+02  0.547033166885E+01  0.000000000000E+00
  0.303820724487E+02  0.113820018768E+02  0.000000000000E+00
  0.387563171387E+02  0.197561950684E+02  0.000000000000E+00
  0.482439842224E+02  0.292438049316E+02  0.000000000000E+00
  0.566182289124E+02  0.376179962158E+02  0.000000000000E+00
  0.625299339294E+02  0.435296669006E+02  0.000000000000E+00
  0.660765380859E+02  0.470762481689E+02  0.000000000000E+00
POLYGONS                 256                1024
3                  32                  33                  42
3                  32                  30                  33
3                  30                  28                  33
3                  30                  22                  28
3                  22                  17                  28
3                  22                  13                  17
3                  13                   6                  17
3                  17                   6                   9
3                   6                   1                   9
3                   9                   1                   4
3                   1                   0                   4
3                   4                   0                   3
3                   0                   5                   3
3                   0                   2                   5
3                   2                  10                   5
3                   2                   7                  10
[...]
CELL_DATA                 256
SCALARS sigma float 1
LOOKUP_TABLE default
 -0.329549975551E-01
 -0.329550807772E-01
 -0.339196165809E-01
 -0.339195505447E-01
 -0.236763951477E-01
 -0.236764092888E-01
  0.526070828906E-01
  0.526070962707E-01
  0.207634848143E+00
  0.207634833180E+00
  0.503716072974E+00
  0.503716073713E+00
  0.390436717982E+00
  0.390436717007E+00
  0.638985658311E-01
  0.638985819740E-01
 -0.938067906304E-01
 -0.938068038213E-01
 -0.168782682704E+00
 -0.168782668430E+00
 -0.178721656496E+00
 -0.178721722140E+00
 -0.177787128423E+00
 -0.177787046867E+00
 -0.329549684734E-01
 -0.329549974576E-01
 -0.339196040394E-01
 -0.339196163033E-01
 -0.236764026136E-01
 -0.236763951867E-01
  0.526070962188E-01
  0.526070863931E-01
  0.207634833677E+00
  0.207634872308E+00
  0.503716068103E+00
  0.503716031361E+00
  0.390436667748E+00
  0.390436713634E+00
  0.638986069845E-01
  0.638985659840E-01
 -0.938068002610E-01
 -0.938067905379E-01
 -0.168782668708E+00
 -0.168782676077E+00
 -0.178721720677E+00
 -0.178721708627E+00
 -0.177787046341E+00
 -0.177787018081E+00
 -0.329550260615E-01
 -0.329549684670E-01
 -0.339195467228E-01
 -0.339196041022E-01
 -0.236764016685E-01
 -0.236764026280E-01
  0.526070864184E-01
  0.526070861364E-01
  0.207634871877E+00
  0.207634809969E+00
  0.503716029272E+00
  0.503716005085E+00
  0.390436636582E+00
  0.390436666129E+00
  0.638985416425E-01
  0.638986068520E-01
 -0.938068005856E-01
 -0.938068003061E-01
 -0.168782676180E+00
 -0.168782675236E+00
 -0.178721708958E+00
 -0.178721652895E+00
 -0.177787018047E+00
 -0.177787074066E+00
 -0.329550114356E-01
 -0.329550260923E-01
 -0.339195138964E-01
 -0.339195468480E-01
 -0.236764151497E-01
 -0.236764016581E-01
  0.526070861288E-01
  0.526070894758E-01
  0.207634810857E+00
  0.207634867877E+00
  0.503716018076E+00
  0.503716236643E+00
  0.390436911236E+00
  0.390436646652E+00
  0.638986017777E-01
  0.638985419159E-01
 -0.938067972516E-01
 -0.938068005721E-01
 -0.168782675161E+00
 -0.168782688390E+00
 -0.178721653555E+00
 -0.178721621439E+00
 -0.177787074232E+00
 -0.177787059991E+00
 -0.329550400818E-01
 -0.329550114649E-01
 -0.339195738742E-01
 -0.339195138467E-01
 -0.236763860323E-01
 -0.236764151326E-01
  0.526070894790E-01
  0.526070812886E-01
  0.207634867372E+00
  0.207634942068E+00
  0.503716212894E+00
  0.503715757051E+00
  0.390436342386E+00
  0.390436892828E+00
  0.638986799683E-01
  0.638986016221E-01
 -0.938068053848E-01
 -0.938067972574E-01
 -0.168782688268E+00
 -0.168782659765E+00
 -0.178721621177E+00
 -0.178721679641E+00
 -0.177787060150E+00
 -0.177787087945E+00
 -0.329550253060E-01
 -0.329550399627E-01
 -0.339196055850E-01
 -0.339195737211E-01
 -0.236763639455E-01
 -0.236763860164E-01
  0.526070812828E-01
  0.526070693708E-01
  0.207634941324E+00
  0.207634746605E+00
  0.503715771284E+00
  0.503716010742E+00
  0.390436643292E+00
  0.390436353418E+00
  0.638984753163E-01
  0.638986797393E-01
 -0.938068171923E-01
 -0.938068053745E-01
 -0.168782659652E+00
 -0.168782638012E+00
 -0.178721678835E+00
 -0.178721709891E+00
 -0.177787087303E+00
 -0.177787073062E+00
 -0.329552201508E-01
 -0.329550253595E-01
 -0.339195436710E-01
 -0.339196057514E-01
 -0.236764043157E-01
 -0.236763639859E-01
  0.526070693864E-01
  0.526070805517E-01
  0.207634746102E+00
  0.207634818226E+00
  0.503715982399E+00
  0.503715654099E+00
  0.390436220273E+00
  0.390436621323E+00
  0.638985511320E-01
  0.638984751612E-01
 -0.938068061517E-01
 -0.938068172200E-01
 -0.168782638299E+00
 -0.168782677988E+00
 -0.178721710767E+00
 -0.178721650111E+00
 -0.177787073351E+00
 -0.177787262814E+00
 -0.329550430756E-01
 -0.329552201497E-01
 -0.339195409875E-01
 -0.339195438427E-01
 -0.236763705392E-01
 -0.236764044568E-01
  0.526070805579E-01
  0.526070764589E-01
  0.207634825092E+00
  0.207634827193E+00
  0.503715801128E+00
  0.503716764012E+00
  0.390437536755E+00
  0.390436334237E+00
  0.638985554754E-01
  0.638985532448E-01
 -0.938068102189E-01
 -0.938068061627E-01
 -0.168782678994E+00
 -0.168782645338E+00
 -0.178721651015E+00
 -0.178721648210E+00
 -0.177787262808E+00
 -0.177787090159E+00
 -0.329551196711E-01
 -0.329550438042E-01
 -0.339196024614E-01
 -0.339195411433E-01
 -0.236764275905E-01
 -0.236763702735E-01
  0.526070764350E-01
  0.526070917266E-01
  0.207634817958E+00
  0.207634868715E+00
  0.503716601168E+00
  0.503716097220E+00
  0.390436745864E+00
  0.390437410532E+00
  0.638986073936E-01
  0.638985526334E-01
 -0.938067951007E-01
 -0.938068101761E-01
 -0.168782643444E+00
 -0.168782701303E+00
 -0.178721649031E+00
 -0.178721709985E+00
 -0.177787094089E+00
 -0.177787168438E+00
 -0.316935579333E-01
 -0.326331268065E-01
 -0.326336182753E-01
 -0.226864705583E-01
 -0.226863223739E-01
  0.489644513401E-01
  0.489645594138E-01
  0.183821064888E+00
  0.183821249877E+00
  0.427273335323E+00
  0.331184990034E+00
  0.565703238856E-01
  0.565700266463E-01
 -0.873112275464E-01
 -0.873113890796E-01
 -0.161724515164E+00
 -0.161724619544E+00
 -0.171945884914E+00
 -0.171945579028E+00
 -0.170981261149E+00
 -0.769793304014E-01
 -0.780351928931E-01
 -0.780305482749E-01
 -0.669436276770E-01
 -0.669448970212E-01
  0.914683499000E-02
  0.914668774611E-02
  0.138312804956E+00
  0.138312669944E+00
  0.351109702643E+00
  0.316096568384E+00
  0.885660355508E-01
  0.885663526076E-01
 -0.479016718461E-01
 -0.479012742386E-01
 -0.127746819538E+00
 -0.127746429613E+00
 -0.139346415721E+00
 -0.139347122756E+00
 -0.138242769986E+00
SCALARS C_p_inc float 1
LOOKUP_TABLE default
  0.112149468218E+00
  0.721914794166E-01
  0.233714904432E-01
 -0.100173470172E-01
 -0.655469404130E-01
 -0.901999438899E-01
 -0.881229515739E-01
 -0.104837467003E+00
  0.799011163813E-01
 -0.144749444638E-01
  0.497577675709E+00
  0.470966390903E+00
 -0.954764959313E-01
  0.206999761953E+00
 -0.434626701670E+00
 -0.275123142451E+00
 -0.352614008544E+00
 -0.352756725255E+00
 -0.263325497586E+00
 -0.214532969570E+00
 -0.113227072575E+00
 -0.496872381234E-01
  0.244905707981E-01
  0.949078140863E-01
  0.113739590084E+00
  0.110413469097E+00
  0.374104455867E-01
  0.233324699443E-01
 -0.462041826109E-01
 -0.654588275919E-01
 -0.105684380218E+00
 -0.108775471306E+00
 -0.111077851750E-01
 -0.304873813957E-01
  0.410597226356E+00
  0.416354559010E+00
 -0.249659272265E+00
 -0.106784794679E+00
 -0.518225433738E+00
 -0.426029456504E+00
 -0.360926738164E+00
 -0.362659969932E+00
 -0.214843804565E+00
 -0.172294467585E+00
 -0.495450827154E-01
 -0.139373827038E-01
  0.922839343327E-01
  0.105324161801E+00
  0.114986010693E+00
  0.113068514391E+00
  0.402978763031E-01
  0.372414232262E-01
 -0.377031869867E-01
 -0.460218589445E-01
 -0.109621321216E+00
 -0.981591001099E-01
 -0.304122398596E-01
 -0.195071296205E-01
  0.414061342336E+00
  0.425657121633E+00
 -0.329366171126E+00
 -0.250692409025E+00
 -0.556778536109E+00
 -0.519575566729E+00
 -0.356614312755E+00
 -0.369789461079E+00
 -0.172879805955E+00
 -0.152661097921E+00
 -0.139669569201E-01
 -0.262230782263E-02
  0.105085856020E+00
  0.110700178531E+00
  0.114298309768E+00
  0.114447763698E+00
  0.399859488246E-01
  0.401336523580E-01
 -0.359782818104E-01
 -0.375468085473E-01
 -0.985470236549E-01
 -0.925567220414E-01
 -0.195091240750E-01
 -0.626896138711E-02
  0.431046434228E+00
  0.439604594106E+00
 -0.363426741122E+00
 -0.329330304023E+00
 -0.570854092734E+00
 -0.560570284629E+00
 -0.356659812346E+00
 -0.361424223010E+00
 -0.153203303924E+00
 -0.147020725689E+00
 -0.256127034390E-02
  0.258545630411E-02
  0.111184323567E+00
  0.115007684404E+00
  0.109502281218E+00
  0.113521476122E+00
  0.346364374731E-01
  0.397382462638E-01
 -0.399179464027E-01
 -0.358494624388E-01
 -0.923687192405E-01
 -0.943543180655E-01
 -0.625895471632E-02
 -0.402939269213E-02
  0.441870905941E+00
  0.444233903642E+00
 -0.371532518470E+00
 -0.363454217180E+00
 -0.572121876711E+00
 -0.572722872409E+00
 -0.352813205236E+00
 -0.358711484489E+00
 -0.147512987618E+00
 -0.140241912925E+00
  0.265046292369E-02
  0.110131393941E-01
  0.115766984110E+00
  0.123186244897E+00
  0.100794765471E+00
  0.107945473569E+00
  0.229718207898E-01
  0.340990550226E-01
 -0.520210469971E-01
 -0.397759301080E-01
 -0.936839662690E-01
 -0.106723331323E+00
 -0.409902824988E-02
 -0.147070279519E-01
  0.443206690901E+00
  0.439795475811E+00
 -0.355665777479E+00
 -0.371549083070E+00
 -0.557998665667E+00
 -0.573495717331E+00
 -0.337907332117E+00
 -0.354937147387E+00
 -0.140741935286E+00
 -0.122022718476E+00
  0.110653755485E-01
  0.327361394271E-01
  0.124547812916E+00
  0.144368189927E+00
  0.898516589786E-01
  0.978487465519E-01
  0.122224448396E-01
  0.217412061438E-01
 -0.631182062613E-01
 -0.519290788399E-01
 -0.105183351179E+00
 -0.129845921101E+00
 -0.149716993479E-01
 -0.417246693125E-01
  0.434416206879E+00
  0.425853203518E+00
 -0.321126771157E+00
 -0.355665792970E+00
 -0.530029441942E+00
 -0.559740282465E+00
 -0.304905838536E+00
 -0.342145625040E+00
 -0.122614204850E+00
 -0.793629874148E-01
  0.326330373831E-01
  0.768899741537E-01
  0.147214892099E+00
  0.187570279309E+00
  0.353330767096E-01
  0.851043885021E-01
 -0.690602289185E-03
  0.100385096157E-01
 -0.628323356727E-01
 -0.637927999290E-01
 -0.127713196292E+00
 -0.134350195716E+00
 -0.430620780171E-01
 -0.922384267959E-01
  0.409060621797E+00
  0.395512465603E+00
 -0.279487027875E+00
 -0.321207499637E+00
 -0.488950474496E+00
 -0.531754084305E+00
 -0.231834675450E+00
 -0.318227224442E+00
 -0.811476072991E-01
 -0.237497857130E-01
  0.749396073308E-01
  0.134395134644E+00
  0.190307656514E+00
  0.233752939278E+00
 -0.265273611580E+03
 -0.245109436179E+00
 -0.661108615245E+00
 -0.459186738673E-02
 -0.610097303901E-01
 -0.660242561824E-01
 -0.134624508027E+00
 -0.112890742260E+00
 -0.994004155873E-01
 -0.975758156857E-01
  0.311994063986E+00
  0.291338097896E+00
 -0.242992893635E+00
 -0.283017816819E+00
 -0.335201784285E+00
 -0.505766942817E+00
 -0.145219038774E+00
 -0.278839414293E+00
 -0.350261870000E-01
  0.782761114415E-02
  0.115882933451E+00
 -0.333430573605E+00
  0.157775167662E+00
 -0.269004480730E+03
 -0.598679773872E+03
 -0.591293704353E+01
 -0.598341748564E+00
 -0.996675508801E-01
 -0.808706888404E-01
 -0.131292541091E+00
 -0.133255559205E+00
 -0.149351318252E+00
 -0.159588070299E+00
  0.201985577357E-01
 -0.267489895593E+00
 -0.252433330693E+00
 -0.374127830876E+00
 -0.140608109119E+00
 -0.261671274820E+00
 -0.486246887888E-01
 -0.129349497331E+00
 -0.803777242041E+00
 -0.235053306060E+01
 -0.571661411105E+03
 -0.400401783666E+03
 -0.821014637037E+01
 -0.882351189658E+00
 -0.195858180589E+00
 -0.112687960093E+00
 -0.183294502671E+00
 -0.176904609925E+00
 -0.214935027092E+00
 -0.224073881398E+00
 -0.125795396671E+00
 -0.225301984227E+00
 -0.254398006455E+00
 -0.285179355119E+00
 -0.169309222459E+00
 -0.241957287446E+00
 -0.111705725984E+00
 -0.217572191377E+00
 -0.114753249014E+01
 -0.278473307820E+01
 -0.377780241493E+03
SCALARS inclination float 1
LOOKUP_TABLE default
  0.100000000000E+01
  0.100000000000E+01
  0.100000000000E+01
  0.100000000000E+01
  0.100000000000E+01
  0.100000000000E+01
  0.100000000000E+01
  0.100000000000E+01
  0.100000000000E+01
  0.100000000000E+01
  0.100000000000E+01
  0.100000000000E+01
  0.100000000000E+01
  0.100000000000E+01
  0.100000000000E+01
  0.100000000000E+01
  0.100000000000E+01
  0.100000000000E+01
  0.100000000000E+01
  0.100000000000E+01
  0.100000000000E+01
  0.100000000000E+01
  0.100000000000E+01
  0.100000000000E+01
  0.100000000000E+01
  0.100000000000E+01
  0.100000000000E+01
  0.100000000000E+01
  0.100000000000E+01
  0.100000000000E+01
  0.100000000000E+01
  0.100000000000E+01
  0.100000000000E+01
  0.100000000000E+01
  0.100000000000E+01
  0.100000000000E+01
  0.100000000000E+01
  0.100000000000E+01
  0.100000000000E+01
  0.100000000000E+01
  0.100000000000E+01
  0.100000000000E+01
  0.100000000000E+01
  0.100000000000E+01
  0.100000000000E+01
  0.100000000000E+01
  0.100000000000E+01
  0.100000000000E+01
  0.100000000000E+01
  0.100000000000E+01
  0.100000000000E+01
  0.100000000000E+01
  0.100000000000E+01
  0.100000000000E+01
  0.100000000000E+01
  0.100000000000E+01
  0.100000000000E+01
  0.100000000000E+01
  0.100000000000E+01
  0.100000000000E+01
  0.100000000000E+01
  0.100000000000E+01
  0.100000000000E+01
  0.100000000000E+01
  0.100000000000E+01
  0.100000000000E+01
  0.100000000000E+01
  0.100000000000E+01
  0.100000000000E+01
  0.100000000000E+01
  0.100000000000E+01
  0.100000000000E+01
  0.100000000000E+01
  0.100000000000E+01
  0.100000000000E+01
  0.100000000000E+01
  0.100000000000E+01
  0.100000000000E+01
  0.100000000000E+01
  0.100000000000E+01
  0.100000000000E+01
  0.100000000000E+01
  0.100000000000E+01
  0.100000000000E+01
  0.100000000000E+01
  0.100000000000E+01
  0.100000000000E+01
  0.100000000000E+01
  0.100000000000E+01
  0.100000000000E+01
  0.100000000000E+01
  0.100000000000E+01
  0.100000000000E+01
  0.100000000000E+01
  0.100000000000E+01
  0.100000000000E+01
  0.100000000000E+01
  0.100000000000E+01
  0.100000000000E+01
  0.100000000000E+01
  0.100000000000E+01
  0.100000000000E+01
  0.100000000000E+01
  0.100000000000E+01
  0.100000000000E+01
  0.100000000000E+01
  0.100000000000E+01
  0.100000000000E+01
  0.100000000000E+01
  0.100000000000E+01
  0.100000000000E+01
  0.100000000000E+01
  0.100000000000E+01
  0.100000000000E+01
  0.100000000000E+01
  0.100000000000E+01
  0.100000000000E+01
  0.100000000000E+01
  0.100000000000E+01
  0.100000000000E+01
  0.100000000000E+01
  0.100000000000E+01
  0.100000000000E+01
  0.100000000000E+01
  0.100000000000E+01
  0.100000000000E+01
  0.100000000000E+01
  0.100000000000E+01
  0.100000000000E+01
  0.100000000000E+01
  0.100000000000E+01
  0.100000000000E+01
  0.100000000000E+01
  0.100000000000E+01
  0.100000000000E+01
  0.100000000000E+01
  0.100000000000E+01
  0.100000000000E+01
  0.100000000000E+01
  0.100000000000E+01
  0.100000000000E+01
  0.100000000000E+01
  0.100000000000E+01
  0.100000000000E+01
  0.100000000000E+01
  0.100000000000E+01
  0.100000000000E+01
  0.100000000000E+01
  0.100000000000E+01
  0.100000000000E+01
  0.100000000000E+01
  0.100000000000E+01
  0.100000000000E+01
  0.100000000000E+01
  0.100000000000E+01
  0.100000000000E+01
  0.100000000000E+01
  0.100000000000E+01
  0.100000000000E+01
  0.100000000000E+01
  0.100000000000E+01
  0.100000000000E+01
  0.100000000000E+01
  0.100000000000E+01
  0.100000000000E+01
  0.100000000000E+01
  0.100000000000E+01
  0.100000000000E+01
  0.100000000000E+01
  0.100000000000E+01
  0.100000000000E+01
  0.100000000000E+01
  0.100000000000E+01
  0.100000000000E+01
  0.100000000000E+01
  0.100000000000E+01
  0.100000000000E+01
  0.100000000000E+01
  0.100000000000E+01
  0.100000000000E+01
  0.100000000000E+01
  0.100000000000E+01
  0.100000000000E+01
  0.100000000000E+01
  0.100000000000E+01
  0.100000000000E+01
  0.100000000000E+01
  0.100000000000E+01
  0.100000000000E+01
  0.100000000000E+01
  0.100000000000E+01
  0.100000000000E+01
  0.100000000000E+01
  0.100000000000E+01
  0.100000000000E+01
  0.100000000000E+01
  0.100000000000E+01
  0.100000000000E+01
  0.100000000000E+01
  0.100000000000E+01
  0.100000000000E+01
  0.100000000000E+01
  0.100000000000E+01
  0.100000000000E+01
  0.100000000000E+01
  0.100000000000E+01
  0.100000000000E+01
  0.100000000000E+01
  0.100000000000E+01
  0.100000000000E+01
  0.100000000000E+01
  0.100000000000E+01
  0.100000000000E+01
  0.100000000000E+01
  0.100000000000E+01
  0.100000000000E+01
  0.100000000000E+01
  0.100000000000E+01
  0.100000000000E+01
  0.100000000000E+01
  0.100000000000E+01
  0.100000000000E+01
  0.100000000000E+01
  0.100000000000E+01
  0.100000000000E+01
  0.100000000000E+01
  0.100000000000E+01
  0.100000000000E+01
  0.100000000000E+01
  0.100000000000E+01
  0.100000000000E+01
  0.100000000000E+01
  0.100000000000E+01
  0.100000000000E+01
  0.100000000000E+01
  0.100000000000E+01
  0.100000000000E+01
  0.100000000000E+01
  0.100000000000E+01
  0.100000000000E+01
  0.100000000000E+01
  0.100000000000E+01
  0.100000000000E+01
  0.100000000000E+01
  0.100000000000E+01
  0.100000000000E+01
  0.100000000000E+01
  0.100000000000E+01
  0.100000000000E+01
  0.100000000000E+01
  0.100000000000E+01
  0.100000000000E+01
  0.100000000000E+01
  0.100000000000E+01
  0.100000000000E+01
  0.100000000000E+01
VECTORS v float
  0.152711978888E+03  0.396583417268E+01  0.158941637839E+02
  0.156122637138E+03  0.298288473492E+01  0.163636534764E+02
  0.160140163800E+03 -0.103466179634E+01  0.173810322874E+02
  0.162876420484E+03  0.672372730452E+00  0.174920112677E+02
  0.167384835847E+03 -0.383606510881E+01  0.166768699931E+02
  0.169385338998E+03 -0.519581108639E+00  0.165486941220E+02
  0.169989917846E+03 -0.112416578689E+01  0.353592735041E+01
  0.171201035158E+03 -0.559335173153E+01  0.365330508171E+01
  0.154690352473E+03  0.109173441041E+02 -0.199452673168E+02
  0.162165336827E+03 -0.944515822165E+01 -0.238070854459E+02
  0.988217812217E+02  0.538984204507E+02 -0.260398648837E+02
  0.105041207872E+03  0.400236397315E+02 -0.376874895901E+02
  0.147080340353E+03 -0.201549274946E+01  0.864235285738E+02
  0.129678400414E+03  0.368061084266E+02  0.538335041880E+02
  0.191313873995E+03 -0.248293828981E+02  0.299849995599E+02
  0.182309854573E+03 -0.301657242500E+00  0.253332331199E+02
  0.189384935231E+03 -0.737673756007E+01 -0.406591238579E+01
  0.189393669553E+03 -0.740896854662E+01 -0.406676180296E+01
  0.182341746116E+03 -0.357019881002E+00 -0.177948111951E+02
  0.178608060181E+03 -0.654681702965E+01 -0.180340370861E+02
  0.170998151992E+03  0.106312892972E+01 -0.183257159068E+02
  0.166001433751E+03 -0.205411317086E+01 -0.181230472417E+02
  0.160077259241E+03  0.387009064137E+01 -0.166914198591E+02
  0.154156533772E+03  0.557644047789E+01 -0.158764194505E+02
  0.152461873338E+03  0.801169538464E+01  0.154351140713E+02
  0.152755621588E+03  0.783177620957E+01  0.154857319555E+02
  0.159010431811E+03  0.157692989449E+01  0.169775657458E+02
  0.160168699023E+03  0.144757658227E+01  0.171164243206E+02
  0.165844275028E+03 -0.422802621450E+01  0.165649981154E+02
  0.167387798474E+03 -0.352081266214E+01  0.166464527908E+02
  0.171200292477E+03 -0.733332259225E+01  0.368924566287E+01
  0.171416129068E+03 -0.786394260509E+01  0.370467261966E+01
  0.162366075389E+03  0.118611360453E+01 -0.223600859040E+02
  0.163856206725E+03 -0.167749364388E+01 -0.229640756233E+02
  0.108480332758E+03  0.536984008858E+02 -0.317543924519E+02
  0.107340579745E+03  0.555217516617E+02 -0.300368233033E+02
  0.158651580450E+03  0.421075095623E+01  0.895217448550E+02
  0.151516781199E+03  0.156248318048E+02  0.787698854638E+02
  0.196247799579E+03 -0.291061950367E+02  0.312627912979E+02
  0.191408709073E+03 -0.198068453615E+02  0.293013924207E+02
  0.189281783043E+03 -0.176799040571E+02 -0.427669345168E+01
  0.189380433983E+03 -0.179224307863E+02 -0.428374140121E+01
  0.178602444307E+03 -0.714440337168E+01 -0.180916951009E+02
  0.175359818253E+03 -0.863011411750E+01 -0.179205742571E+02
  0.166033056342E+03  0.696691669664E+00 -0.178298100130E+02
  0.163194339075E+03  0.101371505045E+01 -0.174894939002E+02
  0.154206489677E+03  0.100016163136E+02 -0.154089052580E+02
  0.153051018027E+03  0.107093368141E+02 -0.152098103528E+02
  0.152301761982E+03  0.917710919620E+01  0.152934837671E+02
  0.152473542081E+03  0.904533236960E+01  0.153259116780E+02
  0.158769272438E+03  0.274956501369E+01  0.168250927544E+02
  0.159022558461E+03  0.263181016748E+01  0.168651149459E+02
  0.165191244856E+03 -0.353690465696E+01  0.164340775002E+02
  0.165850024417E+03 -0.361623397517E+01  0.165059693119E+02
  0.171415566569E+03 -0.918179672931E+01  0.373189363555E+01
  0.170601338471E+03 -0.765533073862E+01  0.368352467313E+01
  0.163870426242E+03 -0.924417294210E+00 -0.228615759887E+02
  0.163027686554E+03  0.381164751371E+00 -0.225635337947E+02
  0.107450410146E+03  0.559584619580E+02 -0.298473464531E+02
  0.105168968246E+03  0.590230571893E+02 -0.267485097404E+02