# vtk DataFile Version 3.0
TriPan results file. Generated by TriPan, USU AeroLab (c) 2021.
ASCII
DATASET POLYDATA
POINTS                 144 float
  0.000000000000E+00  0.000000000000E+00  0.000000000000E+00
  0.113538098335E+01  0.000000000000E+00 -0.658124566078E+00
  0.113538098335E+01  0.000000000000E+00  0.658124566078E+00
  0.192375373840E+01  0.192375373840E+01  0.000000000000E+00
  0.305913543701E+01  0.192375373840E+01 -0.658124983311E+00
  0.305913543701E+01  0.192375373840E+01  0.658124983311E+00
  0.423028087616E+01  0.000000000000E+00 -0.108747220039E+01
  0.423028087616E+01  0.000000000000E+00  0.108747220039E+01
  0.547033166885E+01  0.547033166885E+01  0.000000000000E+00
  0.615403699875E+01  0.192375373840E+01 -0.108747279644E+01
  0.615403699875E+01  0.192375373840E+01  0.108747279644E+01
  0.660571479797E+01  0.547033166885E+01 -0.658125698566E+00
  0.660571479797E+01  0.547033166885E+01  0.658125698566E+00
  0.939508819580E+01  0.000000000000E+00 -0.980745851994E+00
  0.939508819580E+01  0.000000000000E+00  0.980745851994E+00
  0.970061969757E+01  0.547033166885E+01 -0.108747410774E+01
  0.970061969757E+01  0.547033166885E+01  0.108747410774E+01
  0.113188476562E+02  0.192375373840E+01 -0.980746448040E+00
  0.113188476562E+02  0.192375373840E+01  0.980746448040E+00
  0.113820018768E+02  0.113820018768E+02  0.000000000000E+00
  0.125173873901E+02  0.113820018768E+02 -0.658127009869E+00
  0.125173873901E+02  0.113820018768E+02  0.658127009869E+00
  0.145402030945E+02  0.000000000000E+00 -0.479613035917E+00
  0.145402030945E+02  0.000000000000E+00  0.479613035917E+00
  0.148654365540E+02  0.547033166885E+01 -0.980747580528E+00
  0.148654365540E+02  0.547033166885E+01  0.980747580528E+00
  0.156122989655E+02  0.113820018768E+02 -0.108747613430E+01
  0.156122989655E+02  0.113820018768E+02  0.108747613430E+01
  0.164639663696E+02  0.192375373840E+01 -0.479613333941E+00
  0.164639663696E+02  0.192375373840E+01  0.479613333941E+00
  0.176505107880E+02  0.000000000000E+00 -0.144198849797E+00
  0.176505107880E+02  0.000000000000E+00  0.144198849797E+00
  0.190000000000E+02  0.000000000000E+00  0.000000000000E+00
  0.195742740631E+02  0.192375373840E+01 -0.144198939204E+00
  0.195742740631E+02  0.192375373840E+01  0.144198939204E+00
  0.197561950684E+02  0.197561950684E+02  0.000000000000E+00
  0.200105609894E+02  0.547033166885E+01 -0.479613870382E+00
  0.200105609894E+02  0.547033166885E+01  0.479613870382E+00
  0.207771244049E+02  0.113820018768E+02 -0.980749428272E+00
  0.207771244049E+02  0.113820018768E+02  0.980749428272E+00
  0.208915824890E+02  0.197561950684E+02 -0.658128738403E+00
  0.208915824890E+02  0.197561950684E+02  0.658128738403E+00
  0.209237651825E+02  0.192375373840E+01  0.000000000000E+00
  0.231208724976E+02  0.547033166885E+01 -0.144199103117E+00
  0.231208724976E+02  0.547033166885E+01  0.144199103117E+00
  0.239865016937E+02  0.197561950684E+02 -0.108747911453E+01
  0.239865016937E+02  0.197561950684E+02  0.108747911453E+01
  0.244703655243E+02  0.547033166885E+01  0.000000000000E+00
  0.259222583771E+02  0.113820018768E+02 -0.479614794254E+00
  0.259222583771E+02  0.113820018768E+02  0.479614794254E+00
  0.290325775146E+02  0.113820018768E+02 -0.144199386239E+00
  0.290325775146E+02  0.113820018768E+02  0.144199386239E+00
  0.291513423920E+02  0.197561950684E+02 -0.980752110481E+00
  0.291513423920E+02  0.197561950684E+02  0.980752110481E+00
  0.292438049316E+02  0.292438049316E+02  0.000000000000E+00
  0.303791980743E+02  0.292438049316E+02 -0.658130764961E+00
  0.303791980743E+02  0.292438049316E+02  0.658130764961E+00
  0.303820724487E+02  0.113820018768E+02  0.000000000000E+00
  0.334741249084E+02  0.292438049316E+02 -0.108748245239E+01
  0.334741249084E+02  0.292438049316E+02  0.108748245239E+01
  0.342964897156E+02  0.197561950684E+02 -0.479616105556E+00
  0.342964897156E+02  0.197561950684E+02  0.479616105556E+00
  0.374068183899E+02  0.197561950684E+02 -0.144199773669E+00
  0.374068183899E+02  0.197561950684E+02  0.144199773669E+00
  0.376179962158E+02  0.376179962158E+02  0.000000000000E+00
  0.386389808655E+02  0.292438049316E+02 -0.980755090714E+00
  0.386389808655E+02  0.292438049316E+02  0.980755090714E+00
  0.387533912659E+02  0.376179962158E+02 -0.658132553101E+00
  0.387533912659E+02  0.376179962158E+02  0.658132553101E+00
  0.387563171387E+02  0.197561950684E+02  0.000000000000E+00
  0.418483314514E+02  0.376179962158E+02 -0.108748543262E+01
  0.418483314514E+02  0.376179962158E+02  0.108748543262E+01
  0.435296669006E+02  0.435296669006E+02  0.000000000000E+00
  0.437841453552E+02  0.292438049316E+02 -0.479617565870E+00
  0.437841453552E+02  0.292438049316E+02  0.479617565870E+00
  0.446650657654E+02  0.435296669006E+02 -0.658133804798E+00
  0.446650657654E+02  0.435296669006E+02  0.658133804798E+00
  0.468944816589E+02  0.292438049316E+02 -0.144200220704E+00
  0.468944816589E+02  0.292438049316E+02  0.144200220704E+00
  0.470131988525E+02  0.376179962158E+02 -0.980757772923E+00
  0.470131988525E+02  0.376179962158E+02  0.980757772923E+00
  0.470762481689E+02  0.470762481689E+02  0.000000000000E+00
  0.477600097656E+02  0.435296669006E+02 -0.108748745918E+01
  0.477600097656E+02  0.435296669006E+02  0.108748745918E+01
  0.482116432190E+02  0.470762481689E+02 -0.658134579659E+00
  0.482116432190E+02  0.470762481689E+02  0.658134579659E+00
  0.482439842224E+02  0.292438049316E+02  0.000000000000E+00
  0.490000000000E+02  0.490000000000E+02  0.000000000000E+00
  0.501353988647E+02  0.490000000000E+02 -0.658134996891E+00
  0.501353988647E+02  0.490000000000E+02  0.658134996891E+00
  0.506007728577E+02  0.494653701782E+02 -0.465371757746E+00
  0.506007728577E+02  0.494653701782E+02  0.465371757746E+00
  0.507935333252E+02  0.496581344604E+02 -0.771266485397E-15
  0.513065910339E+02  0.470762481689E+02 -0.108748877048E+01
  0.513065910339E+02  0.470762481689E+02  0.108748877048E+01
  0.521583786011E+02  0.376179962158E+02 -0.479618877172E+00
  0.521583786011E+02  0.376179962158E+02  0.479618877172E+00
  0.529248886108E+02  0.435296669006E+02 -0.980759620667E+00
  0.529248886108E+02  0.435296669006E+02  0.980759620667E+00
  0.532303466797E+02  0.490000000000E+02 -0.108748936653E+01
  0.532303466797E+02  0.490000000000E+02  0.108748936653E+01
  0.539993209839E+02  0.497689704895E+02 -0.768971264362E+00
  0.539993209839E+02  0.497689704895E+02  0.768971264362E+00
  0.543178405762E+02  0.500874900818E+02 -0.157378642191E-15
  0.552687225342E+02  0.376179962158E+02 -0.144200608134E+00
  0.552687225342E+02  0.376179962158E+02  0.144200608134E+00
  0.564714775085E+02  0.470762481689E+02 -0.980760753155E+00
  0.564714775085E+02  0.470762481689E+02  0.980760753155E+00
  0.566182289124E+02  0.376179962158E+02  0.000000000000E+00
  0.580700759888E+02  0.435296669006E+02 -0.479619771242E+00
  0.580700759888E+02  0.435296669006E+02  0.479619771242E+00
  0.583952369690E+02  0.490000000000E+02 -0.980761349201E+00
  0.583952369690E+02  0.490000000000E+02  0.980761349201E+00
  0.590887413025E+02  0.496935043335E+02 -0.693503141403E+00
  0.590887413025E+02  0.496935043335E+02  0.693503141403E+00
  0.593759994507E+02  0.499807624817E+02  0.000000000000E+00
  0.611804275513E+02  0.435296669006E+02 -0.144200876355E+00
  0.611804275513E+02  0.435296669006E+02  0.144200876355E+00
  0.616166725159E+02  0.470762481689E+02 -0.479620337486E+00
  0.616166725159E+02  0.470762481689E+02  0.479620337486E+00
  0.625299339294E+02  0.435296669006E+02  0.000000000000E+00
  0.635404319763E+02  0.490000000000E+02 -0.479620635509E+00
  0.635404319763E+02  0.490000000000E+02  0.479620635509E+00
  0.638795776367E+02  0.493391418457E+02 -0.339143037796E+00
  0.638795776367E+02  0.493391418457E+02  0.339143037796E+00
  0.640200576782E+02  0.494796218872E+02  0.296956834055E-15
  0.647270278931E+02  0.470762481689E+02 -0.144201040268E+00
  0.647270278931E+02  0.470762481689E+02  0.144201040268E+00
  0.660765380859E+02  0.470762481689E+02  0.000000000000E+00
  0.666507873535E+02  0.490000000000E+02 -0.144201144576E+00
  0.666507873535E+02  0.490000000000E+02  0.144201144576E+00
  0.667527542114E+02  0.491019668579E+02 -0.101965606213E+00
  0.667527542114E+02  0.491019668579E+02  0.101965606213E+00
  0.667949905396E+02  0.491441993713E+02 -0.260488604752E-16
  0.680002975464E+02  0.490000000000E+02  0.000000000000E+00
  0.209237651825E+02  0.192375373840E+01  0.000000000000E+00
  0.190000000000E+02  0.000000000000E+00  0.000000000000E+00
  0.244703655243E+02  0.547033166885E+01  0.000000000000E+00
  0.303820724487E+02  0.113820018768E+02  0.000000000000E+00
  0.387563171387E+02  0.197561950684E+02  0.000000000000E+00
  0.482439842224E+02  0.292438049316E+02  0.000000000000E+00
  0.566182289124E+02  0.376179962158E+02  0.000000000000E+00
  0.625299339294E+02  0.435296669006E+02  0.000000000000E+00
  0.660765380859E+02  0.470762481689E+02  0.000000000000E+00
POLYGONS                 256                1024
3                  32                  33                  42
3                  32                  30                  33
3                  30                  28                  33
3                  30                  22                  28
3                  22                  17                  28
3                  22                  13                  17
3                  13                   6                  17
3                  17                   6                   9
3                   6                   1                   9
3                   9                   1                   4
3                   1                   0                   4
3                   4                   0                   3
3                   0                   5                   3
3                   0                   2                   5
3                   2                  10                   5
3                   2                   7                  10
[...]
CELL_DATA                 256
SCALARS sigma float 1
LOOKUP_TABLE default
  0.000000000000E+00
  0.000000000000E+00
  0.000000000000E+00
  0.000000000000E+00
  0.000000000000E+00
  0.000000000000E+00
  0.000000000000E+00
  0.000000000000E+00
  0.000000000000E+00
  0.000000000000E+00
  0.000000000000E+00
  0.000000000000E+00
  0.000000000000E+00
  0.000000000000E+00
  0.000000000000E+00
  0.000000000000E+00
  0.000000000000E+00
  0.000000000000E+00
  0.000000000000E+00
  0.000000000000E+00
  0.000000000000E+00
  0.000000000000E+00
  0.000000000000E+00
  0.000000000000E+00
  0.000000000000E+00
  0.000000000000E+00
  0.000000000000E+00
  0.000000000000E+00
  0.000000000000E+00
  0.000000000000E+00
  0.000000000000E+00
  0.000000000000E+00
  0.000000000000E+00
  0.000000000000E+00
  0.000000000000E+00
  0.000000000000E+00
  0.000000000000E+00
  0.000000000000E+00
  0.000000000000E+00
  0.000000000000E+00
  0.000000000000E+00
  0.000000000000E+00
  0.000000000000E+00
  0.000000000000E+00
  0.000000000000E+00
  0.000000000000E+00
  0.000000000000E+00
  0.000000000000E+00
  0.000000000000E+00
  0.000000000000E+00
  0.000000000000E+00
  0.000000000000E+00
  0.000000000000E+00
  0.000000000000E+00
  0.000000000000E+00
  0.000000000000E+00
  0.000000000000E+00
  0.000000000000E+00
  0.000000000000E+00
  0.000000000000E+00
  0.000000000000E+00
  0.000000000000E+00
  0.000000000000E+00
  0.000000000000E+00
  0.000000000000E+00
  0.000000000000E+00
  0.000000000000E+00
  0.000000000000E+00
  0.000000000000E+00
  0.000000000000E+00
  0.000000000000E+00
  0.000000000000E+00
  0.000000000000E+00
  0.000000000000E+00
  0.000000000000E+00
  0.000000000000E+00
  0.000000000000E+00
  0.000000000000E+00
  0.000000000000E+00
  0.000000000000E+00
  0.000000000000E+00
  0.000000000000E+00
  0.000000000000E+00
  0.000000000000E+00
  0.000000000000E+00
  0.000000000000E+00
  0.000000000000E+00
  0.000000000000E+00
  0.000000000000E+00
  0.000000000000E+00
  0.000000000000E+00
  0.000000000000E+00
  0.000000000000E+00
  0.000000000000E+00
  0.000000000000E+00
  0.000000000000E+00
  0.000000000000E+00
  0.000000000000E+00
  0.000000000000E+00
  0.000000000000E+00
  0.000000000000E+00
  0.000000000000E+00
  0.000000000000E+00
  0.000000000000E+00
  0.000000000000E+00
  0.000000000000E+00
  0.000000000000E+00
  0.000000000000E+00
  0.000000000000E+00
  0.000000000000E+00
  0.000000000000E+00
  0.000000000000E+00
  0.000000000000E+00
  0.000000000000E+00
  0.000000000000E+00
  0.000000000000E+00
  0.000000000000E+00
  0.000000000000E+00
  0.000000000000E+00
  0.000000000000E+00
  0.000000000000E+00
  0.000000000000E+00
  0.000000000000E+00
  0.000000000000E+00
  0.000000000000E+00
  0.000000000000E+00
  0.000000000000E+00
  0.000000000000E+00
  0.000000000000E+00
  0.000000000000E+00
  0.000000000000E+00
  0.000000000000E+00
  0.000000000000E+00
  0.000000000000E+00
  0.000000000000E+00
  0.000000000000E+00
  0.000000000000E+00
  0.000000000000E+00
  0.000000000000E+00
  0.000000000000E+00
  0.000000000000E+00
  0.000000000000E+00
  0.000000000000E+00
  0.000000000000E+00
  0.000000000000E+00
  0.000000000000E+00
  0.000000000000E+00
  0.000000000000E+00
  0.000000000000E+00
  0.000000000000E+00
  0.000000000000E+00
  0.000000000000E+00
  0.000000000000E+00
  0.000000000000E+00
  0.000000000000E+00
  0.000000000000E+00
  0.000000000000E+00
  0.000000000000E+00
  0.000000000000E+00
  0.000000000000E+00
  0.000000000000E+00
  0.000000000000E+00
  0.000000000000E+00
  0.000000000000E+00
  0.000000000000E+00
  0.000000000000E+00
  0.000000000000E+00
  0.000000000000E+00
  0.000000000000E+00
  0.000000000000E+00
  0.000000000000E+00
  0.000000000000E+00
  0.000000000000E+00
  0.000000000000E+00
  0.000000000000E+00
  0.000000000000E+00
  0.000000000000E+00
  0.000000000000E+00
  0.000000000000E+00
  0.000000000000E+00
  0.000000000000E+00
  0.000000000000E+00
  0.000000000000E+00
  0.000000000000E+00
  0.000000000000E+00
  0.000000000000E+00
  0.000000000000E+00
  0.000000000000E+00
  0.000000000000E+00
  0.000000000000E+00
  0.000000000000E+00
  0.000000000000E+00
  0.000000000000E+00
  0.000000000000E+00
  0.000000000000E+00
  0.000000000000E+00
  0.000000000000E+00
  0.000000000000E+00
  0.000000000000E+00
  0.000000000000E+00
  0.000000000000E+00
  0.000000000000E+00
  0.000000000000E+00
  0.000000000000E+00
  0.000000000000E+00
  0.000000000000E+00
  0.000000000000E+00
  0.000000000000E+00
  0.000000000000E+00
  0.000000000000E+00
  0.000000000000E+00
  0.000000000000E+00
  0.000000000000E+00
  0.000000000000E+00
  0.000000000000E+00
  0.000000000000E+00
  0.000000000000E+00
  0.000000000000E+00
  0.000000000000E+00
  0.000000000000E+00
  0.000000000000E+00
  0.000000000000E+00
  0.000000000000E+00
  0.000000000000E+00
  0.000000000000E+00
  0.000000000000E+00
  0.000000000000E+00
  0.000000000000E+00
  0.000000000000E+00
  0.000000000000E+00
  0.000000000000E+00
  0.000000000000E+00
  0.000000000000E+00
  0.000000000000E+00
  0.000000000000E+00
  0.000000000000E+00
  0.000000000000E+00
  0.000000000000E+00
  0.000000000000E+00
  0.000000000000E+00
  0.000000000000E+00
  0.000000000000E+00
  0.000000000000E+00
  0.000000000000E+00
  0.000000000000E+00
  0.000000000000E+00
  0.000000000000E+00
  0.000000000000E+00
  0.000000000000E+00
  0.000000000000E+00
  0.000000000000E+00
  0.000000000000E+00
  0.000000000000E+00
  0.000000000000E+00
  0.000000000000E+00
  0.000000000000E+00
SCALARS C_p_inc float 1
LOOKUP_TABLE default
  0.112558809668E+00
  0.725816779977E-01
  0.237657858241E-01
 -0.965947785290E-02
 -0.652319771242E-01
 -0.899259420946E-01
 -0.879686371925E-01
 -0.104636208910E+00
  0.799713731501E-01
 -0.143647423739E-01
  0.497598659307E+00
  0.470995823259E+00
 -0.954202378660E-01
  0.207027016410E+00
 -0.434491524063E+00
 -0.275042193327E+00
 -0.352391860318E+00
 -0.352587556181E+00
 -0.263032587867E+00
 -0.214199468994E+00
 -0.112856526176E+00
 -0.492841773306E-01
  0.248659738914E-01
  0.953149896782E-01
  0.114228060907E+00
  0.110819955916E+00
  0.378888281461E-01
  0.237256189471E-01
 -0.458049354602E-01
 -0.651405388579E-01
 -0.105485210601E+00
 -0.108494388296E+00
 -0.110019904806E-01
 -0.303191156814E-01
  0.410620123967E+00
  0.416385562933E+00
 -0.249559856992E+00
 -0.106732805810E+00
 -0.517998561679E+00
 -0.425899169688E+00
 -0.360606798033E+00
 -0.362439091071E+00
 -0.214503690283E+00
 -0.171871817624E+00
 -0.491426753101E-01
 -0.134487597916E-01
  0.926875383956E-01
  0.105807196377E+00
  0.115603884881E+00
  0.113548837820E+00
  0.409296549412E-01
  0.377160028235E-01
 -0.371592319904E-01
 -0.456180435041E-01
 -0.109338414370E+00
 -0.977559239045E-01
 -0.302444375223E-01
 -0.192491762320E-01
  0.414064079268E+00
  0.425668591757E+00
 -0.329198312328E+00
 -0.250597272140E+00
 -0.556395336076E+00
 -0.519339579069E+00
 -0.356135856779E+00
 -0.369462091265E+00
 -0.172443578768E+00
 -0.152076872991E+00
 -0.134801106704E-01
 -0.197183367705E-02
  0.105559940644E+00
  0.111322632977E+00
  0.115225537974E+00
  0.115043713464E+00
  0.409300190701E-01
  0.407547785988E-01
 -0.352054235942E-01
 -0.369960407977E-01
 -0.981294965975E-01
 -0.920075948360E-01
 -0.192487383671E-01
 -0.592663847333E-02
  0.430953041404E+00
  0.439511329668E+00
 -0.363204754180E+00
 -0.329163717448E+00
 -0.570268325740E+00
 -0.560125998600E+00
 -0.355968915816E+00
 -0.360901017290E+00
 -0.152588759704E+00
 -0.146170039308E+00
 -0.191286690118E-02
  0.356202950290E-02
  0.111785644681E+00
  0.115929522548E+00
  0.111683233481E+00
  0.114380477948E+00
  0.366285619149E-01
  0.406438285187E-01
 -0.387490281843E-01
 -0.350639072388E-01
 -0.917732755825E-01
 -0.938241808312E-01
 -0.592200838810E-02
 -0.384180438731E-02
  0.441420945515E+00
  0.443734425686E+00
 -0.371501148560E+00
 -0.363224140534E+00
 -0.571532981437E+00
 -0.571909858557E+00
 -0.352038907594E+00
 -0.357844959165E+00
 -0.146575650653E+00
 -0.138905821764E+00
  0.362538728636E-02
  0.130812654981E-01
  0.116636629834E+00
  0.125337907687E+00
  0.110761347301E+00
  0.109768994980E+00
  0.297009961781E-01
  0.358514592988E-01
 -0.514975421292E-01
 -0.385946941467E-01
 -0.929945538215E-01
 -0.108193415966E+00
 -0.396309140007E-02
 -0.162747284613E-01
  0.441562854821E+00
  0.437847240240E+00
 -0.357161389826E+00
 -0.371486212408E+00
 -0.559277332044E+00
 -0.572092152274E+00
 -0.339166185053E+00
 -0.353386488974E+00
 -0.139073137416E+00
 -0.121099469964E+00
  0.131424492287E-01
  0.397270824151E-01
  0.126500010795E+00
  0.154216327186E+00
  0.219234750274E+00
  0.102660316972E+00
  0.155189021716E-01
  0.255872027356E-01
 -0.845089593807E-01
 -0.517873831725E-01
 -0.106269298502E+00
 -0.146938511988E+00
 -0.168377505249E-01
 -0.515310950583E-01
  0.429304214068E+00
  0.419624623210E+00
 -0.328415179731E+00
 -0.357138361379E+00
 -0.541120361518E+00
 -0.558347197066E+00
 -0.323080555084E+00
 -0.339561470518E+00
 -0.120316056032E+00
 -0.989935121239E-01
  0.396398799604E-01
  0.824563830886E-01
  0.155045644454E+00
  0.314549735352E+00
 -0.227097413124E+02
 -0.139420045696E+00
  0.710328560679E+00
 -0.945057481357E-01
 -0.434365064846E+00
 -0.895123329181E-01
 -0.146325374612E+00
 -0.203890611338E+00
 -0.544232962952E-01
 -0.121370752082E+00
  0.396425566012E+00
  0.380894935402E+00
 -0.298292905972E+00
 -0.328791850541E+00
 -0.522435654589E+00
 -0.536589886198E+00
 -0.305734132223E+00
 -0.321295993790E+00
 -0.972794105065E-01
 -0.360985842583E+00
  0.298312598394E-01
  0.760081726136E+00
 -0.223234011044E+00
 -0.223602890805E+02
 -0.410187894363E+08
 -0.213975567542E+05
 -0.120331475063E+05
  0.906487776035E+00
 -0.492287993427E-01
 -0.421210260088E+00
 -0.231743101181E+00
 -0.288212198776E+00
 -0.134416895860E+00
 -0.151157015031E+00
  0.285481707484E+00
  0.263700036741E+00
 -0.277871155512E+00
 -0.303894256881E+00
 -0.394435871605E+00
 -0.526922268852E+00
 -0.335490699979E+00
 -0.301129911346E+00
 -0.375055577795E+00
 -0.419574774316E+00
  0.896402942725E+00
 -0.119830864134E+05
 -0.213200981602E+05
 -0.410203120703E+08
 -0.854332966819E+08
 -0.484536760652E+06
 -0.181707943925E+05
 -0.279335875175E+02
 -0.113984107756E+00
 -0.431604302923E+00
 -0.377241082830E+00
 -0.221225723836E+00
 -0.229688277111E+00
 -0.273265508406E-01
 -0.308438726467E+00
 -0.325452629880E+00
 -0.419488435022E+00
 -0.424151716688E+00
 -0.332915289856E+00
  0.472768717073E+00
 -0.354934031589E+02
 -0.182753460809E+05
 -0.483218286436E+06
 -0.854233262735E+08
 -0.583897762934E+08
 -0.579601508697E+06
 -0.217233705331E+05
 -0.426027466451E+02
  0.269980812952E+00
 -0.535234818315E+00
 -0.474239429214E+00
 -0.294844027579E+00
 -0.301298002224E+00
 -0.174901128838E+00
 -0.270037066159E+00
 -0.332407747692E+00
 -0.351120838584E+00
 -0.496715060077E+00
 -0.426266282314E+00
  0.961302158595E+00
 -0.556049299372E+02
 -0.218255464285E+05
 -0.577594238652E+06
 -0.583813948094E+08
SCALARS inclination float 1
LOOKUP_TABLE default
  0.100000000000E+01
  0.100000000000E+01
  0.100000000000E+01
  0.100000000000E+01
  0.100000000000E+01
  0.100000000000E+01
  0.100000000000E+01
  0.100000000000E+01
  0.100000000000E+01
  0.100000000000E+01
  0.100000000000E+01
  0.100000000000E+01
  0.100000000000E+01
  0.100000000000E+01
  0.100000000000E+01
  0.100000000000E+01
  0.100000000000E+01
  0.100000000000E+01
  0.100000000000E+01
  0.100000000000E+01
  0.100000000000E+01
  0.100000000000E+01
  0.100000000000E+01
  0.100000000000E+01
  0.100000000000E+01
  0.100000000000E+01
  0.100000000000E+01
  0.100000000000E+01
  0.100000000000E+01
  0.100000000000E+01
  0.100000000000E+01
  0.100000000000E+01
  0.100000000000E+01
  0.100000000000E+01
  0.100000000000E+01
  0.100000000000E+01
  0.100000000000E+01
  0.100000000000E+01
  0.100000000000E+01
  0.100000000000E+01
  0.100000000000E+01
  0.100000000000E+01
  0.100000000000E+01
  0.100000000000E+01
  0.100000000000E+01
  0.100000000000E+01
  0.100000000000E+01
  0.100000000000E+01
  0.100000000000E+01
  0.100000000000E+01
  0.100000000000E+01
  0.100000000000E+01
  0.100000000000E+01
  0.100000000000E+01
  0.100000000000E+01
  0.100000000000E+01
  0.100000000000E+01
  0.100000000000E+01
  0.100000000000E+01
  0.100000000000E+01
  0.100000000000E+01
  0.100000000000E+01
  0.100000000000E+01
  0.100000000000E+01
  0.100000000000E+01
  0.100000000000E+01
  0.100000000000E+01
  0.100000000000E+01
  0.100000000000E+01
  0.100000000000E+01
  0.100000000000E+01
  0.100000000000E+01
  0.100000000000E+01
  0.100000000000E+01
  0.100000000000E+01
  0.100000000000E+01
  0.100000000000E+01
  0.100000000000E+01
  0.100000000000E+01
  0.100000000000E+01
  0.100000000000E+01
  0.100000000000E+01
  0.100000000000E+01
  0.100000000000E+01
  0.100000000000E+01
  0.100000000000E+01
  0.100000000000E+01
  0.100000000000E+01
  0.100000000000E+01
  0.100000000000E+01
  0.100000000000E+01
  0.100000000000E+01
  0.100000000000E+01
  0.100000000000E+01
  0.100000000000E+01
  0.100000000000E+01
  0.100000000000E+01
  0.100000000000E+01
  0.100000000000E+01
  0.100000000000E+01
  0.100000000000E+01
  0.100000000000E+01
  0.100000000000E+01
  0.100000000000E+01
  0.100000000000E+01
  0.100000000000E+01
  0.100000000000E+01
  0.100000000000E+01
  0.100000000000E+01
  0.100000000000E+01
  0.100000000000E+01
  0.100000000000E+01
  0.100000000000E+01
  0.100000000000E+01
  0.100000000000E+01
  0.100000000000E+01
  0.100000000000E+01
  0.100000000000E+01
  0.100000000000E+01
  0.100000000000E+01
  0.100000000000E+01
  0.100000000000E+01
  0.100000000000E+01
  0.100000000000E+01
  0.100000000000E+01
  0.100000000000E+01
  0.100000000000E+01
  0.100000000000E+01
  0.100000000000E+01
  0.100000000000E+01
  0.100000000000E+01
  0.100000000000E+01
  0.100000000000E+01
  0.100000000000E+01
  0.100000000000E+01
  0.100000000000E+01
  0.100000000000E+01
  0.100000000000E+01
  0.100000000000E+01
  0.100000000000E+01
  0.100000000000E+01
  0.100000000000E+01
  0.100000000000E+01
  0.100000000000E+01
  0.100000000000E+01
  0.100000000000E+01
  0.100000000000E+01
  0.100000000000E+01
  0.100000000000E+01
  0.100000000000E+01
  0.100000000000E+01
  0.100000000000E+01
  0.100000000000E+01
  0.100000000000E+01
  0.100000000000E+01
  0.100000000000E+01
  0.100000000000E+01
  0.100000000000E+01
  0.100000000000E+01
  0.100000000000E+01
  0.100000000000E+01
  0.100000000000E+01
  0.100000000000E+01
  0.100000000000E+01
  0.100000000000E+01
  0.100000000000E+01
  0.100000000000E+01
  0.100000000000E+01
  0.100000000000E+01
  0.100000000000E+01
  0.100000000000E+01
  0.100000000000E+01
  0.100000000000E+01
  0.100000000000E+01
  0.100000000000E+01
  0.100000000000E+01
  0.100000000000E+01
  0.100000000000E+01
  0.100000000000E+01
  0.100000000000E+01
  0.100000000000E+01
  0.100000000000E+01
  0.100000000000E+01
  0.100000000000E+01
  0.100000000000E+01
  0.100000000000E+01
  0.100000000000E+01
  0.100000000000E+01
  0.100000000000E+01
  0.100000000000E+01
  0.100000000000E+01
  0.100000000000E+01
  0.100000000000E+01
  0.100000000000E+01
  0.100000000000E+01
  0.100000000000E+01
  0.100000000000E+01
  0.100000000000E+01
  0.100000000000E+01
  0.100000000000E+01
  0.100000000000E+01
  0.100000000000E+01
  0.100000000000E+01
  0.100000000000E+01
  0.100000000000E+01
  0.100000000000E+01
  0.100000000000E+01
  0.100000000000E+01
  0.100000000000E+01
  0.100000000000E+01
  0.100000000000E+01
  0.100000000000E+01
  0.100000000000E+01
  0.100000000000E+01
  0.100000000000E+01
  0.100000000000E+01
  0.100000000000E+01
  0.100000000000E+01
  0.100000000000E+01
  0.100000000000E+01
  0.100000000000E+01
  0.100000000000E+01
  0.100000000000E+01
  0.100000000000E+01
  0.100000000000E+01
  0.100000000000E+01
  0.100000000000E+01
  0.100000000000E+01
  0.100000000000E+01
  0.100000000000E+01
  0.100000000000E+01
  0.100000000000E+01
  0.100000000000E+01
  0.100000000000E+01
  0.100000000000E+01
  0.100000000000E+01
  0.100000000000E+01
  0.100000000000E+01
  0.100000000000E+01
  0.100000000000E+01
  0.100000000000E+01
  0.100000000000E+01
  0.100000000000E+01
  0.100000000000E+01
  0.100000000000E+01
  0.100000000000E+01
  0.100000000000E+01
  0.100000000000E+01
  0.100000000000E+01
  0.100000000000E+01
  0.100000000000E+01
  0.100000000000E+01
  0.100000000000E+01
  0.100000000000E+01
  0.100000000000E+01
  0.100000000000E+01
VECTORS v float
  0.152676721593E+03  0.396828699694E+01  0.158901342937E+02
  0.156089785586E+03  0.298464422491E+01  0.163599551335E+02
  0.160107851897E+03 -0.103344195822E+01  0.173774162364E+02
  0.162847588579E+03  0.675763594839E+00  0.174885363764E+02
  0.167360055833E+03 -0.383672615454E+01  0.166745208127E+02
  0.169364116081E+03 -0.514345110871E+00  0.165461170276E+02
  0.169977835588E+03 -0.112807047472E+01  0.353575836933E+01
  0.171185693238E+03 -0.558522782749E+01  0.365282017801E+01
  0.154684495313E+03  0.109159832373E+02 -0.199446435571E+02
  0.162156921112E+03 -0.943954936471E+01 -0.238051398536E+02
  0.988195200305E+02  0.538978747813E+02 -0.260388704800E+02
  0.105037855895E+03  0.400255274710E+02 -0.376844523841E+02
  0.147077036228E+03 -0.201365286158E+01  0.864205468423E+02
  0.129676169205E+03  0.368055547696E+02  0.538325317937E+02
  0.191305513810E+03 -0.248238075764E+02  0.299830663235E+02
  0.182304039569E+03 -0.303015214962E+00  0.253326148071E+02
  0.189369677030E+03 -0.736865232400E+01 -0.406543001114E+01
  0.189381654903E+03 -0.741285244817E+01 -0.406659378939E+01
  0.182320664679E+03 -0.351836969992E+00 -0.177922530515E+02
  0.178583465436E+03 -0.654745856833E+01 -0.180317040509E+02
  0.170969708414E+03  0.106633624208E+01 -0.183223026868E+02
  0.165969576228E+03 -0.205303567701E+01 -0.181194955414E+02
  0.160046445150E+03  0.387012469722E+01 -0.166881235992E+02
  0.154121794259E+03  0.557760583915E+01 -0.158725828593E+02
  0.152419326225E+03  0.802221326402E+01  0.154294438428E+02
  0.152720404655E+03  0.783780438951E+01  0.154813247336E+02
  0.158970931366E+03  0.158724161131E+01  0.169721940150E+02
  0.160136482286E+03  0.145707486569E+01  0.171119257825E+02
  0.165812901276E+03 -0.421937091908E+01  0.165610992918E+02
  0.167363134904E+03 -0.350908288624E+01  0.166429080818E+02
  0.171184948118E+03 -0.733091205589E+01  0.368887877238E+01
  0.171395110691E+03 -0.784758287106E+01  0.370390022643E+01
  0.162357625356E+03  0.118990497849E+01 -0.223583876855E+02
  0.163843189778E+03 -0.166492596641E+01 -0.229605263342E+02
  0.108477184743E+03  0.537010996268E+02 -0.317510033750E+02
  0.107335518155E+03  0.555275116955E+02 -0.300305505409E+02
  0.158646594740E+03  0.421643511044E+01  0.895155600599E+02
  0.151513684051E+03  0.156274946817E+02  0.787665466604E+02
  0.196234858507E+03 -0.290936882317E+02  0.312592609794E+02
  0.191400314784E+03 -0.198030761751E+02  0.292997050135E+02
  0.189260865746E+03 -0.176636118458E+02 -0.427592454250E+01
  0.189365173349E+03 -0.179200451083E+02 -0.428337675453E+01
  0.178577964647E+03 -0.713279863988E+01 -0.180881804841E+02
  0.175328611979E+03 -0.862159139546E+01 -0.179167046585E+02
  0.166001290836E+03  0.705773625450E+00 -0.178254050324E+02
  0.163155065536E+03  0.102363549181E+01 -0.174841888342E+02
  0.154171797284E+03  0.100069555833E+02 -0.154046276988E+02
  0.153008947068E+03  0.107191954192E+02 -0.152042614501E+02
  0.152246925217E+03  0.920775834791E+01  0.152843492058E+02
  0.152431114763E+03  0.906646193780E+01  0.153191203386E+02
  0.158716814401E+03  0.278072536003E+01  0.168160753645E+02
  0.158983227529E+03  0.265686758281E+01  0.168581713156E+02
  0.165148780801E+03 -0.350871410370E+01  0.164271957437E+02
  0.165818821506E+03 -0.358939947348E+01  0.165003164676E+02
  0.171394548316E+03 -0.916514691451E+01  0.373111525088E+01
  0.170571458584E+03 -0.762206766461E+01  0.368221986533E+01
  0.163857480318E+03 -0.908088206704E+00 -0.228575147417E+02
  0.163007514635E+03  0.408688425510E+00 -0.225569171123E+02
  0.107446685572E+03  0.559695382811E+02 -0.298387671017E+02
  0.105162267721E+03  0.590381310222E+02 -0.267358882183E+02