# vtk DataFile Version 3.0
PyPan mesh file. Generated by PyPan, USU AeroLab (c) 2020.
ASCII
DATASET POLYDATA
POINTS 1733 float
0.0                 0.0                 0.0                 
0.155437603593      0.0                 -0.24728487432      
0.155437603593      0.0                 0.24728487432       
0.339639574289      0.339639574289      0.0                 
0.495077162981      0.339639574289      -0.24728487432      
0.495077162981      0.339639574289      0.24728487432       
0.498385250568      0.0                 -0.459256708622     
0.498385250568      0.0                 0.459256708622      
0.73536491394       0.73536491394       0.0                 
0.838024795055      0.339639574289      -0.459256708622     
0.838024795055      0.339639574289      0.459256708622      
0.890802502632      0.73536491394       -0.24728487432      
0.890802502632      0.73536491394       0.24728487432       
0.99375218153       0.0                 -0.636098384857     
0.99375218153       0.0                 0.636098384857      
1.19528055191       1.19528055191       0.0                 
1.2337501049        0.73536491394       -0.459256708622     
1.2337501049        0.73536491394       0.459256708622      
1.33339166641       0.339639574289      -0.636098384857     
1.33339166641       0.339639574289      0.636098384857      
1.3507181406        1.19528055191       -0.24728487432      
1.3507181406        1.19528055191       0.24728487432       
1.65938913822       0.0                 -0.800547778606     
1.65938913822       0.0                 0.800547778606      
1.69366574287       1.19528055191       -0.459256708622     
1.69366574287       1.19528055191       0.459256708622      
1.72824025154       1.72824025154       0.0                 
1.72911703587       0.73536491394       -0.636098384857     
1.72911703587       0.73536491394       0.636098384857      
1.88367784023       1.72824025154       -0.24728487432      
1.88367784023       1.72824025154       0.24728487432       
1.99902868271       0.339639574289      -0.800547778606     
1.99902868271       0.339639574289      0.800547778606      
2.18903279305       1.19528055191       -0.636098384857     
2.18903279305       1.19528055191       0.636098384857      
2.2266254425        1.72824025154       -0.459256708622     
2.2266254425        1.72824025154       0.459256708622      
2.34375929832       2.34375929832       0.0                 
2.39475417137       0.73536491394       -0.800547778606     
2.39475417137       0.73536491394       0.800547778606      
2.49919700623       2.34375929832       -0.24728487432      
2.49919700623       2.34375929832       0.24728487432       
2.52247929573       0.0                 -0.949537932873     
2.52247929573       0.0                 0.949537932873      
2.72199249268       1.72824025154       -0.636098384857     
2.72199249268       1.72824025154       0.636098384857      
2.84214448929       2.34375929832       -0.459256708622     
2.84214448929       2.34375929832       0.459256708622      
2.85466957092       1.19528055191       -0.800547778606     
2.85466957092       1.19528055191       0.800547778606      
2.86211872101       0.339639574289      -0.949537932873     
2.86211872101       0.339639574289      0.949537932873      
3.05185556412       3.05185556412       0.0                 
3.20729327202       3.05185556412       -0.24728487432      
3.20729327202       3.05185556412       0.24728487432       
3.25784420967       0.73536491394       -0.949537932873     
3.25784420967       0.73536491394       0.949537932873      
3.33751153946       2.34375929832       -0.636098384857     
3.33751153946       2.34375929832       0.636098384857      
3.38762950897       1.72824025154       -0.800547778606     
3.38762950897       1.72824025154       0.800547778606      
3.55024075508       3.05185556412       -0.459256708622     
3.55024075508       3.05185556412       0.459256708622      
3.60488843918       0.0                 -1.07735693455      
3.60488843918       0.0                 1.07735693455       
3.71775984764       1.19528055191       -0.949537932873     
3.71775984764       1.19528055191       0.949537932873      
3.86280250549       3.86280250549       0.0                 
3.94452810287       0.339639574289      -1.07735693455      
3.94452810287       0.339639574289      1.07735693455       
4.00314855576       2.34375929832       -0.800547778606     
4.00314855576       2.34375929832       0.800547778606      
4.01823997498       3.86280250549       -0.24728487432      
4.01823997498       3.86280250549       0.24728487432       
4.04560756683       3.05185556412       -0.636098384857     
4.04560756683       3.05185556412       0.636098384857      
4.25071954727       1.72824025154       -0.949537932873     
4.25071954727       1.72824025154       0.949537932873      
4.34025335312       0.73536491394       -1.07735693455      
4.34025335312       0.73536491394       1.07735693455       
4.36118745804       3.86280250549       -0.459256708622     
4.36118745804       3.86280250549       0.459256708622      
4.71124458313       3.05185556412       -0.800547778606     
4.71124458313       3.05185556412       0.800547778606      
4.78677463531       4.78677463531       0.0                 
4.80016899109       1.19528055191       -1.07735693455      
4.80016899109       1.19528055191       1.07735693455       
4.85655450821       3.86280250549       -0.636098384857     
4.85655450821       3.86280250549       0.636098384857      
4.86623859406       2.34375929832       -0.949537932873     
4.86623859406       2.34375929832       0.949537932873      
4.9144449234        0.0                 -1.16996514797      
4.9144449234        0.0                 1.16996514797       
4.9422121048        4.78677463531       -0.24728487432      
4.9422121048        4.78677463531       0.24728487432       
5.25408411026       0.339639574289      -1.16996514797      
5.25408411026       0.339639574289      1.16996514797       
5.2851600647        4.78677463531       -0.459256708622     
5.2851600647        4.78677463531       0.459256708622      
5.33312892914       1.72824025154       -1.07735693455      
5.33312892914       1.72824025154       1.07735693455       
5.52219152451       3.86280250549       -0.800547778606     
5.52219152451       3.86280250549       0.800547778606      
5.57433462143       3.05185556412       -0.949537932873     
5.57433462143       3.05185556412       0.949537932873      
5.64980983734       0.73536491394       -1.16996514797      
5.64980983734       0.73536491394       1.16996514797       
5.78052663803       4.78677463531       -0.636098384857     
5.78052663803       4.78677463531       0.636098384857      
5.83337688446       5.83337688446       0.0                 
5.94864797592       2.34375929832       -1.07735693455      
5.94864797592       2.34375929832       1.07735693455       
5.98881483078       5.83337688446       -0.24728487432      
5.98881483078       5.83337688446       0.24728487432       
6.10972547531       1.19528055191       -1.16996514797      
6.10972547531       1.19528055191       1.16996514797       
6.33176231384       5.83337688446       -0.459256708622     
6.33176231384       5.83337688446       0.459256708622      
6.38528156281       3.86280250549       -0.949537932873     
6.38528156281       3.86280250549       0.949537932873      
6.43481731415       0.0                 -1.20008552074      
6.43481731415       0.0                 1.20008552074       
6.44616365433       4.78677463531       -0.800547778606     
6.44616365433       4.78677463531       0.800547778606      
6.64268493652       1.72824025154       -1.16996514797      
6.64268493652       1.72824025154       1.16996514797       
6.6567440033        3.05185556412       -1.07735693455      
6.6567440033        3.05185556412       1.07735693455       
6.77445697784       0.339639574289      -1.20008552074      
6.77445697784       0.339639574289      1.20008552074       
6.82712936401       5.83337688446       -0.636098384857     
6.82712936401       5.83337688446       0.636098384857      
7.01104879379       7.01104879379       0.0                 
7.16648626328       7.01104879379       -0.24728487432      
7.16648626328       7.01104879379       0.24728487432       
7.17018222809       0.73536491394       -1.20008552074      
7.17018222809       0.73536491394       1.20008552074       
7.25820398331       2.34375929832       -1.16996514797      
7.25820398331       2.34375929832       1.16996514797       
7.30925369263       4.78677463531       -0.949537932873     
7.30925369263       4.78677463531       0.949537932873      
7.46769094467       3.86280250549       -1.07735693455      
7.46769094467       3.86280250549       1.07735693455       
7.49276638031       5.83337688446       -0.800547778606     
7.49276638031       5.83337688446       0.800547778606      
7.50943374634       7.01104879379       -0.459256708622     
7.50943374634       7.01104879379       0.459256708622      
7.63009786606       1.19528055191       -1.20008552074      
7.63009786606       1.19528055191       1.20008552074       
7.96630048752       3.05185556412       -1.16996514797      
7.96630048752       3.05185556412       1.16996514797       
8.00480079651       7.01104879379       -0.636098384857     
8.00480079651       7.01104879379       0.636098384857      
8.11846923828       0.0                 -1.14658665657      
8.11846923828       0.0                 1.14658665657       
8.16305732727       1.72824025154       -1.20008552074      
8.16305732727       1.72824025154       1.20008552074       
8.32635498047       8.32635498047       0.0                 
8.35585594177       5.83337688446       -0.949537932873     
8.35585594177       5.83337688446       0.949537932873      
8.39166355133       4.78677463531       -1.07735693455      
[...]
CELL_DATA 3424
SCALARS panel_area float 1
LOOKUP_TABLE default
0.0505892749056     
0.0505892749056     
0.0678143705282     
0.0678143705282     
0.0898261736064     
0.0898261736064     
0.117117037         
0.117117037         
0.149599109802      
0.149599109802      
0.186145241501      
0.186144909378      
0.224205081422      
0.224205415906      
0.259675365939      
0.259675365939      
0.287408774615      
0.287408774615      
0.302486204749      
0.302486204749      
0.302015736062      
0.302015736062      
0.286205951454      
0.286205951454      
0.258290630816      
0.258290711619      
0.223497984313      
0.223497905292      
0.186360094892      
0.186360133053      
0.150874223297      
0.150874205119      
0.119739179222      
0.119739187634      
0.0942361101988     
0.0942361028425     
0.0773523440725     
0.0773523429022     
0.0649902924346     
0.0649902925973     
0.0649902925973     
0.0649902924346     
0.0773523429022     
0.0773523440725     
0.0942361028425     
0.0942361101988     
0.119739187634      
0.119739179222      
0.150874205119      
0.150874223297      
0.186360133053      
0.186360094892      
0.223497905292      
0.223497984313      
0.258290711619      
0.258290630816      
0.286205951454      
0.286205951454      
0.302015736062      
0.302015736062      
0.302486204749      
0.302486204749      
0.287408774615      
0.287408774615      
0.259675365939      
0.259675365939      
0.224205415906      
0.224205081422      
0.186144909378      
0.186145241501      
0.149599109802      
0.149599109802      
0.117117037         
0.117117037         
0.0898261736064     
0.0898261736064     
0.0678143705282     
0.0678143705282     
0.0505892749056     
0.0505892749056     
0.0589432427828     
0.0589432427828     
0.0790127732329     
0.0790127732329     
0.104659455365      
0.104659455365      
0.13645694583       
0.13645694583       
0.174302886619      
0.174302886619      
0.21688362422       
0.216884009217      
0.261229183618      
0.261228796257      
0.302556385114      
0.302556385114      
0.334869499976      
0.334869499976      
0.352436714532      
0.352436714532      
0.351888556397      
0.351888556397      
0.333468052215      
0.333468052215      
0.30094308013       
0.300942985961      
0.260404827622      
0.260404919948      
0.217134376396      
0.217134331641      
0.175788545755      
0.175788545755      
0.139512106162      
0.139512126143      
0.109797612661      
0.10979762151       
0.0901257812003     
0.0901257782305     
0.0757223467433     
0.0757223467433     
0.0757223467433     
0.0757223467433     
0.0901257782305     
0.0901257812003     
0.10979762151       
0.109797612661      
0.139512126143      
0.139512106162      
0.175788545755      
0.175788545755      
0.217134331641      
0.217134376396      
0.260404919948      
0.260404827622      
0.300942985961      
0.30094308013       
0.333468052215      
0.333468052215      
0.351888556397      
0.351888556397      
0.352436714532      
0.352436714532      
0.334869499976      
0.334869499976      
0.302556385114      
0.302556385114      
0.261228796257      
0.261229183618      
0.216884009217      
0.21688362422       
0.174302886619      
0.174302886619      
0.13645694583       
0.13645694583       
0.104659455365      
0.104659455365      
0.0790127732329     
0.0790127732329     
0.0589432427828     
0.0589432427828     
0.068503945837      
0.0685043827034     
0.0918298105861     
0.0918293726475     
0.121635749111      
0.12163618843       
0.158591960053      
0.158591519006      
0.202576419874      
0.202576419874      
0.252064145204      
0.252064145204      
0.303602729316      
0.303602953256      
0.351633824903      
0.351633824903      
0.389188641995      
0.389188417006      
0.409605196356      
0.409605196356      
0.408968122969      
0.408967908069      
0.387559645049      
0.387559754186      
0.34975871257       
0.34975871257       
0.302644998999      
0.302644998999      
0.252355520724      
0.252355520724      
0.204303066323      
0.204303116607      
0.162142273942      
0.162142203164      
0.127607812288      
0.1276078334        
0.104745010337      
0.104745010337      
0.0880052094761     
0.0880052094761     
0.0880052094761     
0.0880052094761     
0.104745010337      
0.104745010337      
0.1276078334        
0.127607812288      
0.162142203164      
0.162142273942      
0.204303116607      
0.204303066323      
0.252355520724      
0.252355520724      
0.302644998999      
0.302644998999      
0.34975871257       
0.34975871257       
0.387559754186      
0.387559645049      
0.408967908069      
0.408968122969      
0.409605196356      
0.409605196356      
0.389188417006      
0.389188641995      
0.351633824903      
0.351633824903      
0.303602953256      
0.303602729316      
0.252064145204      
0.252064145204      
0.202576419874      
0.202576419874      
0.158591519006      
0.158591960053      
0.12163618843       
0.121635749111      
0.0918293726475     
0.0918298105861     
0.0685043827034     
0.068503945837      
0.0793842867269     
0.0793837809782     
0.106414267746      
0.106414267746      
0.140954007077      
0.140954007077      
0.183779615612      
0.183779615612      
0.234749218144      
0.234749730155      
0.292097628615      
0.292097114245      
0.351821085227      
0.351821085227      
0.407480245891      
0.407480505177      
0.45099979959       
0.45099979959       
0.474658930365      
0.474658930365      
0.473920421308      
0.473920670895      
0.449112212866      
0.449112086332      
0.405307588984      
0.405307588984      
0.35071124808       
0.350711123197      
0.292434768984      
0.292434829875      
0.236750656551      
0.236750597809      
0.187893721469      
0.187893776875      
0.147874581651      
0.147874581651      
0.121380672102      
0.121380672102      
0.101982246604      
0.101982246604      
0.101982246604      
0.101982246604      
0.121380672102      
0.121380672102      
0.147874581651      
0.147874581651      
0.187893776875      
0.187893721469      
0.236750597809      
0.236750656551      
0.292434829875      
0.292434768984      
0.350711123197      
0.35071124808       
0.405307588984      
0.405307588984      
0.449112086332      
0.449112212866      
0.473920670895      
0.473920421308      
0.474658930365      
0.474658930365      
0.45099979959       
0.45099979959       
0.407480505177      
0.407480245891      
0.351821085227      
0.351821085227      
0.292097114245      
0.292097628615      
0.234749730155      
0.234749218144      
0.183779615612      
0.183779615612      
0.140954007077      
0.140954007077      
0.106414267746      
0.106414267746      
0.0793837809782     
0.0793842867269     
0.0916814890421     
0.0916814890421     
0.122898615236      
0.122898615236      
0.162788812526      
0.162788812526      
0.212248420697      
0.212248420697      
0.271113587046      
0.271113587046      
0.337345671492      
0.337345671492      
0.406320741624      
0.406320741624      
0.470601912781      
0.470601912781      
0.520862663249      
0.520862961714      
0.548187355527      
0.548187057984      
0.547334442895      
0.547334154104      
0.518682826881      
0.518682826881      
0.468092692784      
0.468092839335      
0.405038834865      
0.405038834865      
0.337735119289      
0.337735119289      
0.273424989838      
0.273424989838      
0.216999894211      
0.216999894211      
0.170781433576      
0.170781433576      
0.140183424079      
0.140183402336      
0.11778005042       
0.117780055797      
0.117780055797      
0.11778005042       
0.140183402336      
0.140183424079      
0.170781433576      
0.170781433576      
0.216999894211      
0.216999894211      
0.273424989838      
0.273424989838      
0.337735119289      
0.337735119289      
0.405038834865      
0.405038834865      
0.468092839335      
0.468092692784      
0.518682826881      
0.518682826881      
0.547334154104      
0.547334442895      
0.548187057984      
0.548187355527      
0.520862961714      
0.520862663249      
0.470601912781      
0.470601912781      
0.406320741624      
0.406320741624      
0.337345671492      
0.337345671492      
0.271113587046      
0.271113587046      
0.212248420697      
0.212248420697      
0.162788812526      
0.162788812526      
0.122898615236      
0.122898615236      
0.0916814890421     
0.0916814890421     
0.10547018681       
0.105470857717      
0.141383200662      
0.141383200662      
0.18727308933       
0.18727308933       
0.244171677639      
0.244171677639      
0.311891136211      
0.311890459088      
0.388083520712      
0.388084200186      
0.467433476475      
0.467433476475      
0.541383200602      
0.541382858718      
0.599203417898      
0.599203075719      
0.630637199738      
0.630637541103      
0.629656014687      
0.629656014687      
0.596695381894      
0.596695381894      
0.538496401295      
0.538496401295      
0.465958752123      
0.465958918554      
0.388532210258      
0.388532210258      
0.314549506562      
0.314549506562      
0.249637785796      
0.249637785796      
0.196467829677      
0.196467761043      
0.161267697686      
0.161267697686      
0.135494779781      
0.135494779781      
0.135494779781      
0.135494779781      
0.161267697686      
0.161267697686      
0.196467761043      
0.196467829677      
0.249637785796      
0.249637785796      
0.314549506562      
0.314549506562      
0.388532210258      
0.388532210258      
0.465958918554      
0.465958752123      
0.538496401295      
0.538496401295      
0.596695381894      
0.596695381894      
0.629656014687      
0.629656014687      
0.630637541103      
0.630637199738      
0.599203075719      
0.599203417898      
0.541382858718      
0.541383200602      
0.467433476475      
0.467433476475      
0.388084200186      
0.388083520712      
0.311890459088      
0.311891136211      
0.244171677639      
0.244171677639      
0.18727308933       
0.18727308933       
0.141383200662      
0.141383200662      
0.105470857717      
0.10547018681       
0.1207904526        
0.120789684702      
0.161918278322      
0.16191904728       
0.214475186405      
0.214474416084      
0.279637497101      
0.279637497101      
0.357192409976      
0.357193184063      
0.444453256434      
0.444452479999      
0.535327965341      
0.535327965341      
0.620018087583      
0.620018868364      
0.68623745621       
0.68623745621       
0.722236987969      
0.722236987969      
0.721113278555      
0.721113660148      
0.683365126756      
0.683365126756      
0.616712769872      
0.616712576746      
0.533639250329      
0.533639250329      
0.444966347367      
0.444966347367      
0.360237689415      
0.360237689415      
0.285897571178      
0.285897571178      
0.225004618148      
0.225004697727      
0.184691749092      
0.184691749092      
0.155175318747      
0.15517529853       
0.15517529853       
0.155175318747      
0.184691749092      
0.184691749092      
0.225004697727      
0.225004618148      
0.285897571178      
0.285897571178      
0.360237689415      
0.360237689415      
0.444966347367      
0.444966347367      
0.533639250329      
0.533639250329      
0.616712576746      
0.616712769872      
0.683365126756      
0.683365126756      
0.721113660148      
0.721113278555      
0.722236987969      
0.722236987969      
0.68623745621       
0.68623745621       
0.620018868364      
0.620018087583      
0.535327965341      
0.535327965341      
0.444452479999      
0.444453256434      
0.357193184063      
0.357192409976      
0.279637497101      
0.279637497101      
0.214474416084      
0.214475186405      
0.16191904728       
0.161918278322      
0.120789684702      
0.1207904526        
0.137625541952      
0.137625541952      
0.184486407286      
0.184485531747      
0.244366646611      
0.244367523509      
0.318611796554      
0.318611796554      
0.406975876542      
0.406975876542      
0.506398634835      
0.506398634835      
0.609938962376      
0.609938962376      
0.706433587539      
0.706432700146      
0.781880894866      
0.78188133898       
0.82289828237       
0.82289828237       
0.821618397002      
0.821618397002      
0.778608685444      
0.778608685444      
0.702666480321      
0.702666480321      
0.608014864507      
0.608014646862      
0.506983238456      
0.506983452189      
0.41044557683       
0.41044557683       
0.325744354254      
0.325744354254      
0.256364584881      
0.256364401666      
0.210433075211      
0.210433217552      
0.176802752145      
0.176802752145      
0.176802752145      
0.176802752145      
0.210433217552      
0.210433075211      
0.256364401666      
0.256364584881      
0.325744354254      
0.325744354254      
0.41044557683       
0.41044557683       
0.506983452189      
0.506983238456      
0.608014646862      
0.608014864507      
0.702666480321      
0.702666480321      
0.778608685444      
0.778608685444      
0.821618397002      
0.821618397002      
0.82289828237       
0.82289828237       
0.78188133898       
0.781880894866      
0.706432700146      
0.706433587539      
0.609938962376      
0.609938962376      
0.506398634835      
0.506398634835      
0.406975876542      
0.406975876542      
0.318611796554      
0.318611796554      
0.244367523509      
0.244366646611      
0.184485531747      
0.184486407286      
0.137625541952      
0.137625541952      
0.155891282266      
0.155891282266      
0.20897154833       
0.20897154833       
0.2767991335        
0.2767991335        
0.360898135607      
0.360898135607      
0.460989946547      
0.460989946547      
0.573608149888      
0.573608149888      
0.690890408696      
0.690890408696      
0.800191855823      
0.800191855823      
0.885652591571      
0.885652591571      
0.932113821781      
0.932113821781      
0.93066406928       
0.93066406928       
0.881946083749      
0.881946083749      
0.795924784923      
0.795924784923      
0.688710703228      
0.688710703228      
0.574270591304      
0.574270591304      
0.464920152889      
0.464919916436      
0.368977343855      
0.368977343855      
0.290389232615      
0.29038944193       
0.238362036772      
0.238361872418      
0.2002681545        
0.200268217753      
0.200268217753      
0.2002681545        
0.238361872418      
0.238362036772      
0.29038944193       
0.290389232615      
0.368977343855      
0.368977343855      
0.464919916436      
0.464920152889      
0.574270591304      
0.574270591304      
0.688710703228      
0.688710703228      
0.795924784923      
0.795924784923      
0.881946083749      
0.881946083749      
0.93066406928       
0.93066406928       
0.932113821781      
0.932113821781      
0.885652591571      
0.885652591571      
0.800191855823      
0.800191855823      
0.690890408696      
0.690890408696      
0.573608149888      
0.573608149888      
0.460989946547      
0.460989946547      
0.360898135607      
0.360898135607      
0.2767991335        
0.2767991335        
0.20897154833       
0.20897154833       
0.155891282266      
0.155891282266      
0.17541409199       
0.17541409199       
0.235141785151      
0.235141785151      
0.311463655691      
0.311463655691      
0.406094669533      
0.406094669533      
0.518721327493      
0.518721327493      
0.645443101727      
0.645443101727      
0.777413027421      
0.777413027421      
0.90040267666       
0.90040267666       
0.996565959302      
0.996565959302      
1.04884625014       
1.0488456865        
1.04721438046       
1.04721326898       
0.992395276858      
0.992395837039      
0.89560122937       
0.89560122937       
0.774960351829      
0.774960351829      
0.646188502434      
0.646187955645      
0.523143462898      
0.52314399652       
0.415185647702      
0.415185647702      
0.326755913954      
0.326755913954      
0.268212713397      
0.268212713397      
0.225348469012      
0.225348393066      
0.225348393066      
0.225348469012      
0.268212713397      
0.268212713397      
0.326755913954      
0.326755913954      
0.415185647702      
0.415185647702      
0.52314399652       
0.523143462898      
0.646187955645      
0.646188502434      
0.774960351829      
0.774960351829      
0.89560122937       
0.89560122937       
0.992395837039      
0.992395276858      
1.04721326898       
1.04721438046       
1.0488456865        
1.04884625014       
0.996565959302      
0.996565959302      
0.90040267666       
0.90040267666       
0.777413027421      
0.777413027421      
0.645443101727      
0.645443101727      
0.518721327493      
0.518721327493      
0.406094669533      
0.406094669533      
0.311463655691      
0.311463655691      
0.235141785151      
0.235141785151      
0.17541409199       
0.17541409199       
0.195913461094      
0.195914704614      
0.262622762288      
0.262622762288      
0.347864355811      
0.347864355811      
0.453554878865      
0.453554878865      
0.579345433758      
0.579344184177      
0.720874666586      
0.72087591849       
0.868269145051      
0.868269145051      
1.0056325713        
1.0056325713        
1.11303443707       
1.11303443707       
1.17142471154       
1.17142471154       
1.16960087476       
1.16960211696       
1.10837693741       
1.10837631167       
1.00026996382       
1.00026996382       
0.865529814361      
0.865529814361      
0.721707810632      
0.721708422153      
0.584283730055      
0.584283132676      
0.463708329554      
0.463708329554      
0.364943839831      
0.364943839831      
0.299558728634      
0.299558941223      
0.251684814089      
0.251684814089      
0.251684814089      
0.251684814089      
0.299558941223      
0.299558728634      
0.364943839831      
0.364943839831      
0.463708329554      
0.463708329554      
0.584283132676      
0.584283730055      
0.721708422153      
0.721707810632      
0.865529814361      
0.865529814361      
1.00026996382       
1.00026996382       
1.10837631167       
1.10837693741       
1.16960211696       
1.16960087476       
1.17142471154       
1.17142471154       
1.11303443707       
1.11303443707       
1.0056325713        
1.0056325713        
0.868269145051      
0.868269145051      
0.72087591849       
0.720874666586      
0.579344184177      
0.579345433758      
0.453554878865      
0.453554878865      
0.347864355811      
0.347864355811      
0.262622762288      
0.262622762288      
0.195914704614      
0.195913461094      
0.216996792071      
0.216995415078      
0.290881825715      
0.290883203747      
0.385298890972      
0.385297511605      
0.502361231492      
0.502361231492      
0.641686543563      
0.641687926581      
0.798448294367      
0.798446909032      
0.961702270687      
0.961702270687      
1.11384579394       
1.11384718396       
1.23280778082       
1.23280638936       
1.29747858123       
1.2974799728        
1.29546126374       
1.29546126374       
1.22764703819       
1.22764773136       
1.10790752699       
1.10790683287       
0.958668189098      
0.95866887722       
0.799370389261      
0.799369711172      
0.647156965276      
0.64715762822       
0.513607265041      
0.513607265041      
0.404214862084      
0.404214268828      
0.331794033505      
0.331794033505      
0.278768242729      
0.278768242729      
0.278768242729      
0.278768242729      
0.331794033505      
0.331794033505      
0.404214268828      
0.404214862084      
0.513607265041      
0.513607265041      
0.64715762822       
0.647156965276      
0.799369711172      
0.799370389261      
0.95866887722       
0.958668189098      
1.10790683287       
1.10790752699       
1.22764773136       
1.22764703819       
1.29546126374       
1.29546126374       
1.2974799728        
1.29747858123       
1.23280638936       
1.23280778082       
1.11384718396       
1.11384579394       
0.961702270687      
0.961702270687      
0.798446909032      