# vtk DataFile Version 3.0
PyPan mesh file. Generated by PyPan, USU AeroLab (c) 2020.
ASCII
DATASET POLYDATA
POINTS 685 float
0.0                 0.0                 0.0                 
0.327008455992      0.0                 -0.377908974886     
0.327008455992      0.0                 0.377908974886      
0.574952304363      0.995846629143      0.0                 
0.901960790157      0.995846629143      -0.377908974886     
0.901960790157      0.995846629143      0.377908974886      
1.4189363718        0.0                 -0.747395038605     
1.4189363718        0.0                 0.747395038605      
1.83373653889       3.17612481117       0.0                 
1.99388861656       0.995846629143      -0.747395038605     
1.99388861656       0.995846629143      0.747395038605      
2.16074514389       3.17612481117       -0.377908974886     
2.16074514389       3.17612481117       0.377908974886      
3.25267291069       3.17612481117       -0.747395038605     
3.25267291069       3.17612481117       0.747395038605      
3.75130796432       0.0                 -1.09082520008      
3.75130796432       0.0                 1.09082520008       
4.32626008987       0.995846629143      -1.09082520008      
4.32626008987       0.995846629143      1.09082520008       
4.37648582458       7.58029556274       0.0                 
4.70349407196       7.58029556274       -0.377908974886     
4.70349407196       7.58029556274       0.377908974886      
5.585044384         3.17612481117       -1.09082520008      
5.585044384         3.17612481117       1.09082520008       
5.79542207718       7.58029556274       -0.747395038605     
5.79542207718       7.58029556274       0.747395038605      
7.64637804031       0.0                 -1.16701817513      
7.64637804031       0.0                 1.16701817513       
8.12779331207       7.58029556274       -1.09082520008      
8.12779331207       7.58029556274       1.09082520008       
8.2213306427        0.995846629143      -1.16701817513      
8.2213306427        0.995846629143      1.16701817513       
8.76891231537       15.1882019043       0.0                 
9.09592056274       15.1882019043       -0.377908974886     
9.09592056274       15.1882019043       0.377908974886      
9.48011493683       3.17612481117       -1.16701817513      
9.48011493683       3.17612481117       1.16701817513       
10.1878490448       15.1882019043       -0.747395038605     
10.1878490448       15.1882019043       0.747395038605      
12.0228633881       7.58029556274       -1.16701817513      
12.0228633881       7.58029556274       1.16701817513       
12.2584857941       0.0                 -0.823081254959     
12.2584857941       0.0                 0.823081254959      
12.5202207565       15.1882019043       -1.09082520008      
12.5202207565       15.1882019043       1.09082520008       
12.8334379196       0.995846629143      -0.823081254959     
12.8334379196       0.995846629143      0.823081254959      
14.0922222137       3.17612481117       -0.823081254959     
14.0922222137       3.17612481117       0.823081254959      
14.6390867233       25.3556423187       0.0                 
14.9660959244       25.3556423187       -0.377908974886     
14.9660959244       25.3556423187       0.377908974886      
15.9819765091       0.0                 -0.43195143342      
15.9819765091       0.0                 0.43195143342       
16.0580234528       25.3556423187       -0.747395038605     
16.0580234528       25.3556423187       0.747395038605      
16.4152908325       15.1882019043       -1.16701817513      
16.4152908325       15.1882019043       1.16701817513       
16.5569286346       0.995846629143      -0.43195143342      
16.5569286346       0.995846629143      0.43195143342       
16.6349716187       7.58029556274       -0.823081254959     
16.6349716187       7.58029556274       0.823081254959      
17.8157119751       3.17612481117       -0.43195143342      
17.8157119751       3.17612481117       0.43195143342       
18.1698722839       0.0                 -0.195744499564     
18.1698722839       0.0                 0.195744499564      
18.3903942108       25.3556423187       -1.09082520008      
18.3903942108       25.3556423187       1.09082520008       
18.7448234558       0.995846629143      -0.195744499564     
18.7448234558       0.995846629143      0.195744499564      
19.222618103        0.0                 -0.0829422771931    
19.222618103        0.0                 0.0829422771931     
19.6803283691       0.0                 -0.0340704917908    
19.6803283691       0.0                 0.0340704917908     
19.7975711823       0.995846629143      -0.0829422771931    
19.7975711823       0.995846629143      0.0829422771931     
19.8705101013       0.0                 -0.0137948961928    
19.8705101013       0.0                 0.0137948961928     
19.9480361938       0.0                 -0.00553481793031   
19.9480361938       0.0                 0.00553481793031    
19.9793930054       0.0                 -0.0021947347559    
19.9793930054       0.0                 0.0021947347559     
19.9920349121       0.0                 -0.00084819708718   
19.9920349121       0.0                 0.00084819708718    
19.997127533        0.0                 -0.000306008587359  
19.997127533        0.0                 0.000306008587359   
19.9991760254       0.0                 -8.78014543559e-05  
19.9991760254       0.0                 8.78014543559e-05   
20.0                0.0                 0.0                 
20.0036087036       3.17612481117       -0.195744499564     
20.0036087036       3.17612481117       0.195744499564      
20.2552814484       0.995846629143      -0.0340704917908    
20.2552814484       0.995846629143      0.0340704917908     
20.2789669037       35.1242027283       0.0                 
20.35846138         7.58029556274       -0.43195143342      
20.35846138         7.58029556274       0.43195143342       
20.4454612732       0.995846629143      -0.0137948961928    
20.4454612732       0.995846629143      0.0137948961928     
20.5229892731       0.995846629143      -0.00553481793031   
20.5229892731       0.995846629143      0.00553481793031    
20.5543460846       0.995846629143      -0.0021947347559    
20.5543460846       0.995846629143      0.0021947347559     
20.5669879913       0.995846629143      -0.00084819708718   
20.5669879913       0.995846629143      0.00084819708718    
20.5720787048       0.995846629143      -0.000306008587359  
20.5720787048       0.995846629143      0.000306008587359   
20.5741271973       0.995846629143      -8.78014543559e-05  
20.5741271973       0.995846629143      8.78014543559e-05   
20.5749530792       0.995846629143      0.0                 
20.6059761047       35.1242027283       -0.377908974886     
20.6059761047       35.1242027283       0.377908974886      
21.0273971558       15.1882019043       -0.823081254959     
21.0273971558       15.1882019043       0.823081254959      
21.0563545227       3.17612481117       -0.0829422771931    
21.0563545227       3.17612481117       0.0829422771931     
21.5140666962       3.17612481117       -0.0340704917908    
21.5140666962       3.17612481117       0.0340704917908     
21.6979045868       35.1242027283       -0.747395038605     
21.6979045868       35.1242027283       0.747395038605      
21.704246521        3.17612481117       -0.0137948961928    
21.704246521        3.17612481117       0.0137948961928     
21.7817726135       3.17612481117       -0.00553481793031   
21.7817726135       3.17612481117       0.00553481793031    
21.813129425        3.17612481117       -0.0021947347559    
21.813129425        3.17612481117       0.0021947347559     
21.8257732391       3.17612481117       -0.00084819708718   
21.8257732391       3.17612481117       0.00084819708718    
21.8308639526       3.17612481117       -0.000306008587359  
21.8308639526       3.17612481117       0.000306008587359   
21.8329124451       3.17612481117       -8.78014543559e-05  
21.8329124451       3.17612481117       8.78014543559e-05   
21.8337364197       3.17612481117       0.0                 
22.2854652405       25.3556423187       -1.16701817513      
22.2854652405       25.3556423187       1.16701817513       
22.5463581085       7.58029556274       -0.195744499564     
22.5463581085       7.58029556274       0.195744499564      
23.5991039276       7.58029556274       -0.0829422771931    
23.5991039276       7.58029556274       0.0829422771931     
24.0302753448       35.1242027283       -1.09082520008      
24.0302753448       35.1242027283       1.09082520008       
24.0568141937       7.58029556274       -0.0340704917908    
24.0568141937       7.58029556274       0.0340704917908     
24.2178859711       41.9466094971       0.0                 
24.2469959259       7.58029556274       -0.0137948961928    
24.2469959259       7.58029556274       0.0137948961928     
24.3245220184       7.58029556274       -0.00553481793031   
24.3245220184       7.58029556274       0.00553481793031    
24.35587883         7.58029556274       -0.0021947347559    
24.35587883         7.58029556274       0.0021947347559     
24.3685207367       7.58029556274       -0.00084819708718   
24.3685207367       7.58029556274       0.00084819708718    
24.3736114502       7.58029556274       -0.000306008587359  
24.3736114502       7.58029556274       0.000306008587359   
24.37566185         7.58029556274       -8.78014543559e-05  
24.37566185         7.58029556274       8.78014543559e-05   
24.3764858246       7.58029556274       0.0                 
24.5448951721       41.9466094971       -0.377908974886     
24.5448951721       41.9466094971       0.377908974886      
24.7508888245       15.1882019043       -0.43195143342      
24.7508888245       15.1882019043       0.43195143342       
25.6368217468       41.9466094971       -0.747395038605     
[...]
CELL_DATA 1336
SCALARS panel_area float 1
LOOKUP_TABLE default
0.000414312834293   
0.000413370208126   
0.00102767885918    
0.00102767885918    
0.00255388170605    
0.00255482435205    
0.00634213115959    
0.00634213115959    
0.0157309453666     
0.0157309453666     
0.0388940349928     
0.0388930919052     
0.0954098228311     
0.0954107666102     
0.229630276427      
0.229630276427      
0.528184598055      
0.528183648923      
1.09783625784       
1.09783673602       
1.86760141906       
1.86760141906       
2.30497393385       
2.30497417392       
1.93994088974       
1.93994112691       
1.1780087201        
1.17800866329       
0.583725243699      
0.583725205239      
0.271518816355      
0.271518823001      
0.271518823001      
0.271518816355      
0.583725205239      
0.583725243699      
1.17800866329       
1.1780087201        
1.93994112691       
1.93994088974       
2.30497417392       
2.30497393385       
1.86760141906       
1.86760141906       
1.09783673602       
1.09783625784       
0.528183648923      
0.528184598055      
0.229630276427      
0.229630276427      
0.0954107666102     
0.0954098228311     
0.0388930919052     
0.0388940349928     
0.0157309453666     
0.0157309453666     
0.00634213115959    
0.00634213115959    
0.00255482435205    
0.00255388170605    
0.00102767885918    
0.00102767885918    
0.000413370208126   
0.000414312834293   
0.000905020937891   
0.000907084690637   
0.00224997078151    
0.00224997078151    
0.00559139576212    
0.00559139576212    
0.0138873446181     
0.0138852808124     
0.0344408824673     
0.0344408824673     
0.0851514255781     
0.0851534897752     
0.208887544709      
0.208887544709      
0.502748034832      
0.502745968331      
1.15639020896       
1.15639227911       
2.40357345302       
2.40357137578       
4.08887219649       
4.08887323979       
5.04644413597       
5.04644413597       
4.24725172518       
4.24725172518       
2.57909854331       
2.57909854331       
1.27799130335       
1.27799124483       
0.594455574667      
0.594455643586      
0.594455643586      
0.594455574667      
1.27799124483       
1.27799130335       
2.57909854331       
2.57909854331       
4.24725172518       
4.24725172518       
5.04644413597       
5.04644413597       
4.08887323979       
4.08887219649       
2.40357137578       
2.40357345302       
1.15639227911       
1.15639020896       
0.502745968331      
0.502748034832      
0.208887544709      
0.208887544709      
0.0851534897752     
0.0851514255781     
0.0344408824673     
0.0344408824673     
0.0138852808124     
0.0138873446181     
0.00559139576212    
0.00559139576212    
0.00224997078151    
0.00224997078151    
0.000907084690637   
0.000905020937891   
0.00182814596254    
0.00182814596254    
0.00454911882961    
0.00454495005929    
0.0112946420058     
0.0112946420058     
0.0280483234389     
0.0280524922548     
0.0695707221708     
0.0695707221708     
0.172006224782      
0.172006224782      
0.421957853213      
0.421953683356      
1.01554889079       
1.01555306222       
2.33591290896       
2.33591290896       
4.85522808887       
4.85522808887       
8.25953840822       
8.25953840822       
10.1938396709       
10.1938375715       
8.57946567365       
8.57946462408       
5.20978948909       
5.20978897493       
2.58154747591       
2.58154795691       
1.20080278168       
1.20080233645       
1.20080233645       
1.20080278168       
2.58154795691       
2.58154747591       
5.20978897493       
5.20978948909       
8.57946462408       
8.57946567365       
10.1938375715       
10.1938396709       
8.25953840822       
8.25953840822       
4.85522808887       
4.85522808887       
2.33591290896       
2.33591290896       
1.01555306222       
1.01554889079       
0.421953683356      
0.421957853213      
0.172006224782      
0.172006224782      
0.0695707221708     
0.0695707221708     
0.0280524922548     
0.0280483234389     
0.0112946420058     
0.0112946420058     
0.00454495005929    
0.00454911882961    
0.00182814596254    
0.00182814596254    
0.00316519947298    
0.00315799818554    
0.00785109306085    
0.00785829431968    
0.0195107282727     
0.0195107282727     
0.0484515770259     
0.0484515770259     
0.120178705224      
0.120178705224      
0.297136291394      
0.297129089741      
0.728896377781      
0.728903580066      
1.75429185325       
1.75429185325       
4.03513836142       
4.03513115426       
8.38707009533       
8.387077309         
14.2677997549       
14.2677925297       
17.6091595811       
17.6091668239       
14.8204433944       
14.8204433944       
8.9995572059        
8.99955898724       
4.45944907009       
4.45945074355       
2.07430457724       
2.07430457724       
2.07430457724       
2.07430457724       
4.45945074355       
4.45944907009       
8.99955898724       
8.9995572059        
14.8204433944       
14.8204433944       
17.6091668239       
17.6091595811       
14.2677925297       
14.2677997549       
8.387077309         
8.38707009533       
4.03513115426       
4.03513836142       
1.75429185325       
1.75429185325       
0.728903580066      
0.728896377781      
0.297129089741      
0.297136291394      
0.120178705224      
0.120178705224      
0.0484515770259     
0.0484515770259     
0.0195107282727     
0.0195107282727     
0.00785829431968    
0.00785109306085    
0.00315799818554    
0.00316519947298    
0.00422044606906    
0.00423007008973    
0.0104924426614     
0.0104924426614     
0.0260843623018     
0.0260747383222     
0.064752180164      
0.064752180164      
0.160610523954      
0.160610523954      
0.397092469699      
0.397102094048      
0.974129200596      
0.974119575638      
2.34448967639       
2.34448967639       
5.39267359187       
5.39268322152       
11.2087485065       
11.2087388707       
19.0679271346       
19.0679271346       
23.5334233679       
23.5334233679       
19.8064971307       
19.8065019772       
12.0272878651       
12.0272830992       
5.9597473686        
5.95974288491       
2.77216463768       
2.77216747297       
2.77216747297       
2.77216463768       
5.95974288491       
5.9597473686        
12.0272830992       
12.0272878651       
19.8065019772       
19.8064971307       
23.5334233679       
23.5334233679       
19.0679271346       
19.0679271346       
11.2087388707       
11.2087485065       
5.39268322152       
5.39267359187       
2.34448967639       
2.34448967639       
0.974119575638      
0.974129200596      
0.397102094048      
0.397092469699      
0.160610523954      
0.160610523954      
0.064752180164      
0.064752180164      
0.0260747383222     
0.0260843623018     
0.0104924426614     
0.0104924426614     
0.00423007008973    
0.00422044606906    
0.00405487327252    
0.00405487327252    
0.0100993053902     
0.0100808124204     
0.0250425509158     
0.0250610437071     
0.0622118800686     
0.0622118800686     
0.154309594344      
0.154309594344      
0.381514090158      
0.381514090158      
0.935913026739      
0.935913026739      
2.25251273702       
2.25251273702       
5.18111300495       
5.18111300495       
10.7690168142       
10.7690168142       
18.3198711309       
18.3198711309       
22.6101809755       
22.6101809755       
19.0294708585       
19.0294708585       
11.5554393985       
11.5554393985       
5.72593551371       
5.72593982024       
2.66341220048       
2.66341220048       
2.66341220048       
2.66341220048       
5.72593982024       
5.72593551371       
11.5554393985       
11.5554393985       
19.0294708585       
19.0294708585       
22.6101809755       
22.6101809755       
18.3198711309       
18.3198711309       
10.7690168142       
10.7690168142       
5.18111300495       
5.18111300495       
2.25251273702       
2.25251273702       
0.935913026739      
0.935913026739      
0.381514090158      
0.381514090158      
0.154309594344      
0.154309594344      
0.0622118800686     
0.0622118800686     
0.0250610437071     
0.0250425509158     
0.0100808124204     
0.0100993053902     
0.00405487327252    
0.00405487327252    
0.00284485758642    
0.0028319418232     
0.0070404849815     
0.00705340056291    
0.0174898308693     
0.0174898308693     
0.0434490584197     
0.0434490584197     
0.107770518621      
0.107770518621      
0.266464081464      
0.266451165165      
0.653632973369      
0.653645890943      
1.57317799841       
1.57316507779       
3.61851274327       
3.61851274327       
7.52111711001       
7.52113005064       
12.7946808571       
12.7946808571       
15.7910591355       
15.7910526391       
13.2902685086       
13.2902620048       
8.07037114422       
8.07037753108       
3.99902224395       
3.99901624789       
1.86013922018       
1.86013922018       
1.86013922018       
1.86013922018       
3.99901624789       
3.99902224395       
8.07037753108       
8.07037114422       
13.2902620048       
13.2902685086       
15.7910526391       
15.7910591355       
12.7946808571       
12.7946808571       
7.52113005064       
7.52111711001       
3.61851274327       
3.61851274327       
1.57316507779       
1.57317799841       
0.653645890943      
0.653632973369      
0.266451165165      
0.266464081464      
0.107770518621      
0.107770518621      
0.0434490584197     
0.0434490584197     
0.0174898308693     
0.0174898308693     
0.00705340056291    
0.0070404849815     
0.0028319418232     
0.00284485758642    
0.00156677558026    
0.00157392124798    
0.0038951577055     
0.0038951577055     
0.00968341768368    
0.00967627215559    
0.0240382492727     
0.0240382492727     
0.0596241825501     
0.0596241825501     
0.147414461517      
0.147421607906      
0.361630459591      
0.36162331187       
0.870355671653      
0.870362822552      
2.00194700119       
2.00194700119       
4.16107521642       
4.16106804456       
7.0786741765        
7.0786741765        
8.73642086315       
8.7364244636        
7.35285512371       
7.35285872162       
4.46494709155       
4.46494357028       
2.21246106792       
2.2124643566        
1.02912437959       
1.02912236515       
1.02912236515       
1.02912437959       
2.2124643566        
2.21246106792       
4.46494357028       
4.46494709155       
7.35285872162       
7.35285512371       
8.7364244636        
8.73642086315       
7.0786741765        
7.0786741765        
4.16106804456       
4.16107521642       
2.00194700119       
2.00194700119       
0.870362822552      
0.870355671653      
0.36162331187       
0.361630459591      
0.147421607906      
0.147414461517      
0.0596241825501     
0.0596241825501     
0.0240382492727     
0.0240382492727     
0.00967627215559    
0.00968341768368    
0.0038951577055     
0.0038951577055     
0.00157392124798    
0.00156677558026    
0.000756947194281   
0.000756947194281   
0.00188184492685    
0.00188184492685    
0.00467829336331    
0.00467829336331    
0.01161345988       
0.01161345988       
0.0288058853234     
0.0288058853234     
0.071219493364      
0.071219493364      
0.174712424303      
0.174712424303      
0.420489885078      
0.420489885078      
0.967189031256      
0.967189031256      
2.01031610969       
2.01031610969       
3.41987877808       
3.41987877808       
4.22077631262       
4.22077631262       
3.55234396226       
3.55234222445       
2.15712229407       
2.1571239811        
1.06889507614       
1.06889352044       
0.497194016179      
0.497194914869      
0.497194914869      
0.497194016179      
1.06889352044       
1.06889507614       
2.1571239811        
2.15712229407       
3.55234222445       
3.55234396226       
4.22077631262       
4.22077631262       
3.41987877808       
3.41987877808       
2.01031610969       
2.01031610969       
0.967189031256      
0.967189031256      
0.420489885078      
0.420489885078      
0.174712424303      
0.174712424303      
0.071219493364      
0.071219493364      
0.0288058853234     
0.0288058853234     
0.01161345988       
0.01161345988       
0.00467829336331    
0.00467829336331    
0.00188184492685    
0.00188184492685    
0.000756947194281   
0.000756947194281   
0.000341734185444   
0.000341734185444   
0.000849584684459   
0.000849584684459   
0.00211207965872    
0.00211207965872    
0.00524305563485    
0.00524305563485    
0.0130048117376     
0.0130048117376     
0.032153016401      
0.032153016401      
0.0788763185296     
0.0788763185296     
0.189835921783      
0.189835921783      
0.436650744309      
0.436650744309      
0.907584760886      
0.907584760886      
1.54395114639       
1.54395114639       
1.90552731041       
1.90552731041       
1.60375357638       
1.60375357638       
0.973863191016      
0.973863191016      
0.482566621189      
0.482566621189      
0.224465508954      
0.224465508954      
0.224465508954      
0.224465508954      
0.482566621189      
0.482566621189      
0.973863191016      
0.973863191016      
1.60375357638       
1.60375357638       
1.90552731041       
1.90552731041       
1.54395114639       
1.54395114639       
0.907584760886      
0.907584760886      
0.436650744309      
0.436650744309      
0.189835921783      
0.189835921783      
0.0788763185296     
0.0788763185296     
0.032153016401      
0.032153016401      
0.0130048117376     
0.0130048117376     
0.00524305563485    
0.00524305563485    
0.00211207965872    
0.00211207965872    
0.000849584684459   
0.000849584684459   
0.000341734185444   
0.000341734185444   
0.000149546612656   
0.000149546612656   
0.000372469571706   
0.000371787513377   
0.000923587042905   
0.000924269130994   
0.00229441842094    
0.00229441842094    
0.00569104768092    
0.00569104768092    
0.0140705112167     
0.0140705112167     
0.0345171386343     
0.0345171386343     
0.0830742731461     
0.0830742731461     
0.191083135719      
0.191083135719      
0.397169005994      
0.397169005994      
0.675649887478      
0.675649887478      
0.833879560029      
0.833879560029      
0.701820073211      
0.701820415884      
0.426173149662      
0.42617283839       
0.21117645255       
0.211176708451      
0.0982284827912     
0.0982284827912     
0.0982284827912     
0.0982284827912     
0.211176708451      
0.21117645255       
0.42617283839       
0.426173149662      
0.701820415884      
0.701820073211      
0.833879560029      
0.833879560029      
0.675649887478      
0.675649887478      
0.397169005994      
0.397169005994      
0.191083135719      
0.191083135719      
0.0830742731461     
0.0830742731461     
0.0345171386343     
0.0345171386343     
0.0140705112167     
0.0140705112167     
0.00569104768092    
0.00569104768092    
0.00229441842094    
0.00229441842094    
0.000924269130994   
0.000923587042905   
0.000371787513377   
0.000372469571706   
0.000149546612656   
0.000149546612656   
6.45496953295e-05   
6.45496953295e-05   
0.000160476870265   
0.000160771285634   
0.000398947854431   
0.000398653404771   
0.000990353491902   
0.000990353491902   
0.00245646081459    
0.00245646081459    
0.0060733385803     
0.0060733385803     
0.0148988381792     
0.0148988381792     
0.0358578434061     
0.0358578434061     
0.0824783521117     
0.0824783521117     
0.171432423573      
0.171432423573      
0.291634787098      
0.291634787098      
0.35993242584       
0.35993242584       
0.302930965348      
0.302930817904      
0.183951527524      
0.183951646279      
0.0911513954481     
0.091151321434      
0.0423989215491     
0.0423989215491     
0.0423989215491     
0.0423989215491     
0.091151321434      
0.0911513954481     
0.183951646279      
0.183951527524      
0.302930817904      
0.302930965348      
0.35993242584       
0.35993242584       
0.291634787098      
0.291634787098      
0.171432423573      
0.171432423573      
0.0824783521117     
0.0824783521117     
0.0358578434061     
0.0358578434061     
0.0148988381792     
0.0148988381792     
0.0060733385803     
0.0060733385803     
0.00245646081459    
0.00245646081459    
0.000990353491902   
0.000990353491902   
0.000398653404771   
0.000398947854431   
0.000160771285634   
0.000160476870265   
6.45496953295e-05   
6.45496953295e-05   
2.7694697744e-05    
2.7694697744e-05    
6.88517334392e-05   
6.88517334392e-05   
0.000171166392612   
0.000171166392612   
0.000424905810543   
0.000424905810543   
0.00105393122965    
0.00105393122965    
0.00260573307765    
0.00260573307765    
0.00639226595989    
0.00639226595989    
0.0153846138306     
0.0153846138306     
0.0353868910541     
0.0353868910541     
0.0735521546637     
0.0735521546637     
0.125124327897      
0.125124327897      
0.154427048434      
0.154427048434      
0.129970808783      
0.129970808783      
0.078923470421      
0.0789234351432     
0.0391080679402     
0.0391080630832     
0.0181910892971     
0.0181910892971     
0.0181910892971     
0.0181910892971     
0.0391080630832     
0.0391080679402     
0.0789234351432     
0.078923470421      
0.129970808783      
0.129970808783      
0.154427048434      
0.154427048434      
0.125124327897      
0.125124327897      
0.0735521546637     
0.0735521546637     
0.0353868910541     
0.0353868910541     
0.0153846138306     
0.0153846138306     
0.00639226595989    
0.00639226595989    
0.00260573307765    
0.00260573307765    
0.00105393122965    
0.00105393122965    
0.000424905810543   
0.000424905810543   
0.000171166392612   
0.000171166392612   
6.88517334392e-05   
6.88517334392e-05   
2.7694697744e-05    
2.7694697744e-05    
1.18521953678e-05   
1.18521953678e-05   
2.94657195194e-05   
2.94657195194e-05   
7.32521994991e-05   
7.32521994991e-05   
0.000181842269026   
0.000181842269026   
0.000451039363192   
0.000451039363192   
0.00111514694239    
0.00111514694239    
0.00273562779887    
0.00273562779887    
0.00658398408099    
0.00658398408099    
0.0151441388522     
0.0151441388522     
0.0314773074654     
0.0314773074654     
0.0535480826119     
0.0535480826119     
0.0660884328013     
0.0660884328013     
0.0556221565053     
0.0556221565053     
0.0337759953988     
0.0337759947928     
0.0167366374328     
0.0167366374328     
0.0077850291953     
0.00778515707763    
0.00778515707763    
0.0077850291953     
0.0167366374328     
0.0167366374328     
0.0337759947928     
0.0337759953988     
0.0556221565053     
0.0556221565053     
0.0660884328013     
0.0660884328013     
0.0535480826119     
0.0535480826119     
0.0314773074654     
0.0314773074654     
0.0151441388522     
0.0151441388522     
0.00658398408099    
0.00658398408099    
0.00273562779887    
0.00273562779887    
0.00111514694239    
0.00111514694239    
0.000451039363192   
0.000451039363192   
0.000181842269026   
0.000181842269026   
7.32521994991e-05   
7.32521994991e-05   
2.94657195194e-05   
2.94657195194e-05   
1.18521953678e-05   
1.18521953678e-05   
5.06706317514e-06   
5.06706317514e-06   
1.25972157756e-05   
1.25972157756e-05   
3.1293749368e-05    
3.13169214472e-05   
7.77646661673e-05   
7.77414004431e-05   
0.000192828828702   
0.000192828828702   
0.000476748807568   
0.000476748807568   
0.00116953850572    
0.00116953850572    
0.00281479186309    
0.00281479186309    
0.00647443824908    
0.00647443824908    
0.013457211451      
0.013457211451      
0.0228929111055     
0.0228929791335     
0.0282542700746     
0.0282542187378     
0.0237796782392     
0.0237796782392     
0.0144399416832     
0.0144399576516     
0.00715527135901    
0.00715527135901    
0.00332825189895    
0.00332825189895    
0.00332825189895    
0.00332825189895    
0.00715527135901    
0.00715527135901    
0.0144399576516     
0.0144399416832     
0.0237796782392     
0.0237796782392     
0.0282542187378     
0.0282542700746     
0.0228929791335     
0.0228929111055     
0.013457211451      
0.013457211451      
0.00647443824908    
0.00647443824908    
0.00281479186309    
0.00281479186309    
0.00116953850572    
0.00116953850572    
0.000476748807568   