# vtk DataFile Version 3.0
MachLine results file. Generated by MachLine, USU AeroLab (c) 2022.
ASCII
DATASET POLYDATA
POINTS                3421 float
  0.810587965200E+00  0.000000000000E+00  0.000000000000E+00
  0.810676677800E+00  0.347461097400E-01 -0.128622059200E-02
  0.820336240200E+00  0.347461097400E-01  0.000000000000E+00
  0.800803929100E+00  0.000000000000E+00 -0.130279491000E-02
  0.799987339200E+00  0.347461097400E-01 -0.264710801000E-02
  0.789976847000E+00  0.000000000000E+00 -0.268121880900E-02
  0.788200162400E+00  0.347461097400E-01 -0.413831356600E-02
  0.778037779900E+00  0.000000000000E+00 -0.419164013300E-02
  0.775245984500E+00  0.347461097400E-01 -0.578531706800E-02
  0.764916673600E+00  0.000000000000E+00 -0.585986702500E-02
  0.761057209500E+00  0.347461097400E-01 -0.758444452600E-02
  0.750545061200E+00  0.000000000000E+00 -0.768217815100E-02
  0.745573796500E+00  0.347461097400E-01 -0.952836503300E-02
  0.734862128100E+00  0.000000000000E+00 -0.965114814000E-02
  0.728744959200E+00  0.347461097400E-01 -0.115949095900E-01
  0.717816433300E+00  0.000000000000E+00 -0.117443223200E-01
  0.710533960700E+00  0.347461097400E-01 -0.137578936200E-01
  0.699370766700E+00  0.000000000000E+00 -0.139351786900E-01
  0.690922311100E+00  0.347461097400E-01 -0.159934281900E-01
  0.679506400200E+00  0.000000000000E+00 -0.161995205000E-01
  0.669913213700E+00  0.347461097400E-01 -0.182812011200E-01
  0.658226578200E+00  0.000000000000E+00 -0.185167738200E-01
  0.647534679000E+00  0.347461097400E-01 -0.206062938200E-01
  0.635559672300E+00  0.000000000000E+00 -0.208718278100E-01
  0.623841687600E+00  0.347461097400E-01 -0.229576708700E-01
  0.611561371500E+00  0.000000000000E+00 -0.232535048500E-01
  0.598917790800E+00  0.347461097400E-01 -0.253268638100E-01
  0.586316303800E+00  0.000000000000E+00 -0.256532273500E-01
  0.572874783800E+00  0.347461097400E-01 -0.276990332700E-01
  0.559937705100E+00  0.000000000000E+00 -0.280559647400E-01
  0.545852186800E+00  0.347461097400E-01 -0.300519907000E-01
  0.532566893200E+00  0.000000000000E+00 -0.304392425300E-01
  0.518014532300E+00  0.347461097400E-01 -0.323459369600E-01
  0.504370520900E+00  0.000000000000E+00 -0.327627487200E-01
  0.489548468400E+00  0.347461097400E-01 -0.345262540700E-01
  0.475537641500E+00  0.000000000000E+00 -0.349711615300E-01
  0.460658677500E+00  0.347461097400E-01 -0.365243827600E-01
  0.446275575000E+00  0.000000000000E+00 -0.369950382400E-01
  0.431563069800E+00  0.347461097400E-01 -0.382680842900E-01
  0.416805039500E+00  0.000000000000E+00 -0.387612092100E-01
  0.402487359700E+00  0.347461097400E-01 -0.396912184600E-01
  0.387354657900E+00  0.000000000000E+00 -0.402026819800E-01
  0.358154252700E+00  0.000000000000E+00 -0.412698990400E-01
  0.373658445600E+00  0.347461097400E-01 -0.407448582500E-01
  0.329427712500E+00  0.000000000000E+00 -0.419381428100E-01
  0.345297368000E+00  0.347461097400E-01 -0.414046005500E-01
  0.301385437800E+00  0.000000000000E+00 -0.422127056000E-01
  0.317611850600E+00  0.347461097400E-01 -0.416756703100E-01
  0.274217781800E+00  0.000000000000E+00 -0.421213324100E-01
  0.290789824900E+00  0.347461097400E-01 -0.415854595800E-01
  0.248089507100E+00  0.000000000000E+00 -0.417102096300E-01
  0.264993957400E+00  0.347461097400E-01 -0.411795671600E-01
  0.223136667600E+00  0.000000000000E+00 -0.410325057600E-01
  0.240358571000E+00  0.347461097400E-01 -0.405104851200E-01
  0.199465110400E+00  0.000000000000E+00 -0.401383363400E-01
  0.216988166200E+00  0.347461097400E-01 -0.396276914300E-01
  0.177150837100E+00  0.000000000000E+00 -0.390723141900E-01
  0.194957778000E+00  0.347461097400E-01 -0.385752313500E-01
  0.156241624000E+00  0.000000000000E+00 -0.378663570700E-01
  0.174314574400E+00  0.347461097400E-01 -0.373846165700E-01
  0.136759377300E+00  0.000000000000E+00 -0.365431237600E-01
  0.155080183300E+00  0.347461097400E-01 -0.360782176000E-01
  0.118703081700E+00  0.000000000000E+00 -0.351167801400E-01
  0.137253602100E+00  0.347461097400E-01 -0.346700201000E-01
  0.102051802600E+00  0.000000000000E+00 -0.335992080200E-01
  0.120814162700E+00  0.347461097400E-01 -0.331717547200E-01
  0.867682838700E-01  0.000000000000E+00 -0.319995565500E-01
  0.105725082800E+00  0.347461097400E-01 -0.315924542100E-01
  0.728016637400E-01  0.000000000000E+00 -0.303298550500E-01
  0.919361477400E-01  0.347461097400E-01 -0.299439948700E-01
  0.600907845400E-01  0.000000000000E+00 -0.286040634100E-01
  0.793869779200E-01  0.347461097400E-01 -0.282401589600E-01
  0.485666261500E-01  0.000000000000E+00 -0.268397637500E-01
  0.680094313100E-01  0.347461097400E-01 -0.264983049400E-01
  0.381550186100E-01  0.000000000000E+00 -0.250566064700E-01
  0.577302815300E-01  0.347461097400E-01 -0.247378332000E-01
  0.287834454400E-01  0.000000000000E+00 -0.232498813100E-01
  0.484779346900E-01  0.347461097400E-01 -0.229540934300E-01
  0.204488261800E-01  0.000000000000E+00 -0.211337719000E-01
  0.402493494800E-01  0.347461097400E-01 -0.208649054300E-01
  0.132862240100E-01  0.000000000000E+00 -0.182396794800E-01
  0.331778708300E-01  0.347461097400E-01 -0.180076320100E-01
  0.753110369800E-02  0.000000000000E+00 -0.143843998800E-01
  0.274959678700E-01  0.347461097400E-01 -0.142013997600E-01
  0.334957802400E-02  0.000000000000E+00 -0.980508456000E-02
  0.233676400900E-01  0.347461097400E-01 -0.968034305500E-02
  0.818658588100E-03  0.000000000000E+00 -0.487483405300E-02
  0.208689193200E-01  0.347461097400E-01 -0.481281580800E-02
  0.000000000000E+00  0.000000000000E+00  0.000000000000E+00
  0.200606758100E-01  0.347461097400E-01  0.000000000000E+00
  0.208689193200E-01  0.347461097400E-01  0.481281580800E-02
  0.818658588100E-03  0.000000000000E+00  0.487483405300E-02
  0.233676400900E-01  0.347461097400E-01  0.968034305500E-02
  0.334957802400E-02  0.000000000000E+00  0.980508456000E-02
  0.274959678700E-01  0.347461097400E-01  0.142013997600E-01
  0.753110369800E-02  0.000000000000E+00  0.143843998800E-01
  0.331778708300E-01  0.347461097400E-01  0.180076320100E-01
  0.132862240100E-01  0.000000000000E+00  0.182396794800E-01
  0.402493494800E-01  0.347461097400E-01  0.208649054300E-01
  0.204488261800E-01  0.000000000000E+00  0.211337719000E-01
  0.484779346900E-01  0.347461097400E-01  0.229540934300E-01
  0.287834454400E-01  0.000000000000E+00  0.232498813100E-01
  0.577302815300E-01  0.347461097400E-01  0.247378332000E-01
  0.381550186100E-01  0.000000000000E+00  0.250566064700E-01
  0.680094313100E-01  0.347461097400E-01  0.264983049400E-01
  0.485666261500E-01  0.000000000000E+00  0.268397637500E-01
  0.793869779200E-01  0.347461097400E-01  0.282401589600E-01
  0.600907845400E-01  0.000000000000E+00  0.286040634100E-01
  0.919361477400E-01  0.347461097400E-01  0.299439948700E-01
  0.728016637400E-01  0.000000000000E+00  0.303298550500E-01
  0.105725082800E+00  0.347461097400E-01  0.315924542100E-01
  0.867682838700E-01  0.000000000000E+00  0.319995565500E-01
  0.120814162700E+00  0.347461097400E-01  0.331717547200E-01
  0.102051802600E+00  0.000000000000E+00  0.335992080200E-01
  0.137253602100E+00  0.347461097400E-01  0.346700201000E-01
  0.118703081700E+00  0.000000000000E+00  0.351167801400E-01
  0.155080183300E+00  0.347461097400E-01  0.360782176000E-01
  0.136759377300E+00  0.000000000000E+00  0.365431237600E-01
  0.174314574400E+00  0.347461097400E-01  0.373846165700E-01
  0.156241624000E+00  0.000000000000E+00  0.378663570700E-01
  0.194957778000E+00  0.347461097400E-01  0.385752313500E-01
  0.177150837100E+00  0.000000000000E+00  0.390723141900E-01
  0.216988166200E+00  0.347461097400E-01  0.396276914300E-01
  0.199465110400E+00  0.000000000000E+00  0.401383363400E-01
  0.240358571000E+00  0.347461097400E-01  0.405104851200E-01
  0.223136667600E+00  0.000000000000E+00  0.410325057600E-01
  0.264993957400E+00  0.347461097400E-01  0.411795671600E-01
  0.248089507100E+00  0.000000000000E+00  0.417102096300E-01
  0.290789824900E+00  0.347461097400E-01  0.415854595800E-01
  0.274217781800E+00  0.000000000000E+00  0.421213324100E-01
  0.317611850600E+00  0.347461097400E-01  0.416756703100E-01
  0.301385437800E+00  0.000000000000E+00  0.422127056000E-01
  0.345297368000E+00  0.347461097400E-01  0.414046005500E-01
  0.329427712500E+00  0.000000000000E+00  0.419381428100E-01
  0.373658445600E+00  0.347461097400E-01  0.407448582500E-01
  0.358154252700E+00  0.000000000000E+00  0.412698990400E-01
  0.402487359700E+00  0.347461097400E-01  0.396912184600E-01
  0.387354657900E+00  0.000000000000E+00  0.402026819800E-01
  0.416805039500E+00  0.000000000000E+00  0.387612092100E-01
  0.431563069800E+00  0.347461097400E-01  0.382680842900E-01
  0.446275575000E+00  0.000000000000E+00  0.369950382400E-01
  0.460658677500E+00  0.347461097400E-01  0.365243827600E-01
  0.475537641500E+00  0.000000000000E+00  0.349711615300E-01
  0.489548468400E+00  0.347461097400E-01  0.345262540700E-01
  0.504370520900E+00  0.000000000000E+00  0.327627487200E-01
  0.518014532300E+00  0.347461097400E-01  0.323459369600E-01
  0.532566893200E+00  0.000000000000E+00  0.304392425300E-01
  0.545852186800E+00  0.347461097400E-01  0.300519907000E-01
  0.559937705100E+00  0.000000000000E+00  0.280559647400E-01
  0.572874783800E+00  0.347461097400E-01  0.276990332700E-01
  0.586316303800E+00  0.000000000000E+00  0.256532273500E-01
  0.598917790800E+00  0.347461097400E-01  0.253268638100E-01
  0.611561371500E+00  0.000000000000E+00  0.232535048500E-01
  0.623841687600E+00  0.347461097400E-01  0.229576708700E-01
  0.635559672300E+00  0.000000000000E+00  0.208718278100E-01
  0.647534679000E+00  0.347461097400E-01  0.206062938200E-01
  0.658226578200E+00  0.000000000000E+00  0.185167738200E-01
  0.669913213700E+00  0.347461097400E-01  0.182812011200E-01
  0.679506400200E+00  0.000000000000E+00  0.161995205000E-01
  0.690922311100E+00  0.347461097400E-01  0.159934281900E-01
  0.699370766700E+00  0.000000000000E+00  0.139351786900E-01
[...]
CELL_DATA                6680
SCALARS C_p_ise float 1
LOOKUP_TABLE default
  0.361526954935E+00
  0.327155317250E+00
  0.232910373441E+00
  0.205105340528E+00
  0.184082274757E+00
  0.159704325672E+00
  0.143589221999E+00
  0.122363179208E+00
  0.107533539615E+00
  0.890482792360E-01
  0.749556183085E-01
  0.587295253117E-01
  0.456047130108E-01
  0.316985198581E-01
  0.205236119918E-01
  0.901047289202E-02
  0.819153074336E-04
 -0.917394562375E-02
 -0.159923633812E-01
 -0.232863552437E-01
 -0.284381455512E-01
 -0.342054311556E-01
 -0.383280885392E-01
 -0.430477473503E-01
 -0.469895225014E-01
 -0.511604661433E-01
 -0.555320252366E-01
 -0.594612878427E-01
 -0.647133541460E-01
 -0.685985499610E-01
 -0.746857183135E-01
 -0.783931244496E-01
 -0.847812113604E-01
 -0.879717452036E-01
 -0.937506241761E-01
 -0.958492715704E-01
 -0.999486863305E-01
 -0.100314081139E+00
 -0.101812425843E+00
 -0.998411493164E-01
 -0.933885465134E-01
 -0.981924607536E-01
 -0.806052905478E-01
 -0.884618781806E-01
 -0.621795432780E-01
 -0.729447688380E-01
 -0.393438594731E-01
 -0.526935299426E-01
 -0.137075946341E-01
 -0.291421873642E-01
  0.131245979618E-01
 -0.393026041838E-02
  0.401000592937E-01
  0.216894557415E-01
  0.664739263761E-01
  0.468165212037E-01
  0.922123802017E-01
  0.710484267354E-01
  0.117729193618E+00
  0.945651937968E-01
  0.143831047551E+00
  0.117919767288E+00
  0.171223081718E+00
  0.141786732359E+00
  0.200675109396E+00
  0.166864904066E+00
  0.232483612471E+00
  0.193717281992E+00
  0.266355031039E+00
  0.222376664469E+00
  0.300857397014E+00
  0.251907354524E+00
  0.331972730421E+00
  0.278062857467E+00
  0.350027870720E+00
  0.284663854537E+00
  0.389822841051E+00
  0.274688960943E+00
  0.525756763058E+00
  0.325893681315E+00
  0.713589939230E+00
  0.510896554556E+00
  0.783141583702E+00
  0.709166540106E+00
  0.682957969485E+00
  0.701282908345E+00
  0.567956672685E+00
  0.489332696315E+00
  0.214390031926E+00
  0.535782271489E+00
 -0.231173762837E+00
  0.399745597973E+00
 -0.741957010261E+00
  0.410824041238E-01
 -0.107970121285E+01
 -0.393093265943E+00
 -0.113117297266E+01
 -0.696481486012E+00
 -0.967426640097E+00
 -0.761851949288E+00
 -0.778917110819E+00
 -0.683127738685E+00
 -0.672397805934E+00
 -0.610065222841E+00
 -0.625756187649E+00
 -0.580225919554E+00
 -0.598840310309E+00
 -0.565218611625E+00
 -0.579607827269E+00
 -0.555190280318E+00
 -0.563967459715E+00
 -0.546605873490E+00
 -0.550376265450E+00
 -0.538257306398E+00
 -0.538555807533E+00
 -0.529994842631E+00
 -0.528681692253E+00
 -0.522403351577E+00
 -0.521049854262E+00
 -0.516008312698E+00
 -0.515901207683E+00
 -0.511492650687E+00
 -0.513087709955E+00
 -0.509058167941E+00
 -0.511830512435E+00
 -0.508397061947E+00
 -0.510864425614E+00
 -0.508415330160E+00
 -0.508627608120E+00
 -0.507764096506E+00
 -0.503231055520E+00
 -0.504561514396E+00
 -0.493150180092E+00
 -0.497055019269E+00
 -0.477352695246E+00
 -0.484013130300E+00
 -0.464729146442E+00
 -0.455674127290E+00
 -0.439886310474E+00
 -0.428839360762E+00
 -0.410795730270E+00
 -0.398428652321E+00
 -0.379300806274E+00
 -0.366289169786E+00
 -0.347326581775E+00
 -0.334248791436E+00
 -0.316456510355E+00
 -0.303615242874E+00
 -0.287546867210E+00
 -0.275010857312E+00
 -0.260659567770E+00
 -0.248132241313E+00
 -0.234960535303E+00
 -0.222031613193E+00
 -0.209340106398E+00
 -0.195397548176E+00
 -0.182254779880E+00
 -0.166717298000E+00
 -0.152436240612E+00
 -0.134774705456E+00
 -0.118883251291E+00
 -0.987178170466E-01
 -0.810625574119E-01
 -0.581733894923E-01
 -0.390374971607E-01
 -0.133983554291E-01
  0.626797550347E-02
  0.347568954832E-01
  0.549546003931E-01
  0.870535479977E-01
  0.108827177632E+00
  0.145401564222E+00
  0.174154568174E+00
  0.216080714622E+00
  0.331971036216E+00
  0.380842994767E+00
  0.367357349728E+00
  0.360427248216E+00
  0.238899652255E+00
  0.232575508102E+00
  0.192872631150E+00
  0.183921318789E+00
  0.154514536754E+00
  0.143513890333E+00
  0.119295660806E+00
  0.107502825466E+00
  0.866005581582E-01
  0.749473288037E-01
  0.565485945681E-01
  0.456059555202E-01
  0.304089802857E-01
  0.205262202551E-01
  0.871347003494E-02
  0.819989773483E-04
 -0.866041304080E-02
 -0.159956955621E-01
 -0.223208671870E-01
 -0.284442960289E-01
 -0.332483396878E-01
 -0.383362400104E-01
 -0.427312863343E-01
 -0.469994607574E-01
 -0.519054325990E-01
 -0.555446087299E-01
 -0.616119136859E-01
 -0.647306961108E-01
 -0.721318658920E-01
 -0.747117148991E-01
 -0.829445983722E-01
 -0.848213176572E-01
 -0.929267770281E-01
 -0.938110810717E-01
 -0.100503293442E+00
 -0.100034062920E+00
 -0.104098327140E+00
 -0.101922785360E+00
 -0.982618181856E-01
 -0.102487163847E+00
 -0.885030203083E-01
 -0.948903681170E-01
 -0.729497758222E-01
 -0.814843134325E-01
 -0.526632658330E-01
 -0.631714641517E-01
 -0.290855760749E-01
 -0.412989612608E-01
 -0.386008212230E-02
 -0.174892724230E-01
  0.217608571953E-01
  0.695820275511E-02
  0.468794686508E-01
  0.310597092812E-01
  0.710965390323E-01
  0.543211197934E-01
  0.945924260117E-01
  0.768433287703E-01
  0.117916044003E+00
  0.991409086844E-01
  0.141732356816E+00
  0.121901492535E+00
  0.166722757732E+00
  0.145893880577E+00
  0.193423294931E+00
  0.171802110298E+00
  0.221834740750E+00
  0.199831310728E+00
  0.251000591761E+00
  0.229279801268E+00
  0.276748173059E+00
  0.256258680491E+00
  0.283405139580E+00
  0.265381219870E+00
  0.273843897118E+00
  0.260969489450E+00
  0.320857817476E+00
  0.318695271674E+00
  0.484320819951E+00
  0.496320277928E+00
  0.645835631970E+00
  0.659062478951E+00
  0.618437815688E+00
  0.602473996252E+00
  0.415659470476E+00
  0.343890310145E+00
  0.108133335604E-01
  0.141546631409E+00
 -0.464509108940E+00
 -0.268577514754E+00
 -0.963527771138E+00
 -0.741836239177E+00
 -0.127767459004E+01
 -0.106844864251E+01
 -0.130425789959E+01
 -0.112758378277E+01
 -0.110953200310E+01
 -0.971533561474E+00
 -0.888370145659E+00
 -0.784318473203E+00
 -0.756722581686E+00
 -0.676903527130E+00
 -0.692144925556E+00
 -0.629547384046E+00
 -0.651469849548E+00
 -0.602078594549E+00
 -0.621361550998E+00
 -0.582380163109E+00
 -0.597059085531E+00
 -0.566329871450E+00
 -0.576595966701E+00
 -0.552375750307E+00
 -0.559382956901E+00
 -0.540240200103E+00
 -0.545326939642E+00
 -0.530103529365E+00
 -0.534459117902E+00
 -0.522262706556E+00
 -0.526754104871E+00
 -0.516958675007E+00
 -0.521796921828E+00
 -0.514038816031E+00
 -0.518569605368E+00
 -0.512716309830E+00
 -0.515615807217E+00
 -0.511714567880E+00
 -0.511257299431E+00
 -0.509460054774E+00
 -0.503581397071E+00
 -0.504048476806E+00
 -0.491128504154E+00
 -0.493941552673E+00
 -0.473004265688E+00
 -0.478097291151E+00
 -0.456168021938E+00
 -0.449276428826E+00
 -0.429226338310E+00
 -0.420718900213E+00
 -0.398722318462E+00
 -0.389018720504E+00
 -0.366508627424E+00
 -0.356008915894E+00
 -0.334414205288E+00
 -0.323420875256E+00
 -0.303743865064E+00
 -0.292409262219E+00
 -0.275115802400E+00
 -0.263424681733E+00
 -0.248221632127E+00
 -0.236017199436E+00
 -0.222109592988E+00
 -0.209146805392E+00
 -0.195464708430E+00
 -0.181475797154E+00
 -0.166771732793E+00
 -0.151537523233E+00
 -0.134813576432E+00
 -0.118220743612E+00
 -0.987393396300E-01
 -0.808211087539E-01
 -0.581791097369E-01
 -0.391368700026E-01
 -0.133955290097E-01
  0.637976790346E-02
  0.347536045241E-01
  0.545930732054E-01
  0.870164022884E-01
  0.105771430746E+00
  0.145272879706E+00
  0.161173599911E+00
  0.215720684415E+00
  0.226658381464E+00
  0.379397293906E+00
  0.383006230701E+00
  0.367417859204E+00
  0.366718970154E+00
  0.241542324818E+00
  0.238599955230E+00
  0.196911924132E+00
  0.192671327220E+00
  0.159905802460E+00
  0.154387388557E+00
  0.125888761062E+00
  0.119225085394E+00
  0.940264359795E-01
  0.865687547459E-01
  0.643389031063E-01
  0.565404753237E-01
  0.381169562737E-01
  0.304123719347E-01
  0.159855052231E-01
  0.872018166570E-02
 -0.206150345114E-02
 -0.865488294721E-02
 -0.165174213292E-01
 -0.223183454843E-01
 -0.282651331553E-01
 -0.332491798486E-01
 -0.385261551550E-01
 -0.427354663699E-01
 -0.484100918364E-01
 -0.519133842625E-01
 -0.587753030718E-01
 -0.616250618489E-01
 -0.699572544371E-01
 -0.721529678489E-01
 -0.815121163609E-01
 -0.829776173117E-01
 -0.923929700748E-01
 -0.929760505290E-01
 -0.101075804352E+00
 -0.100571674271E+00
 -0.105989753507E+00
 -0.104184901758E+00
 -0.102514567940E+00
 -0.105858644760E+00
 -0.948845675873E-01
 -0.998298851376E-01
 -0.814417679608E-01
 -0.879889005665E-01
 -0.630977597779E-01
 -0.711435525737E-01
 -0.412075916102E-01
 -0.505675782044E-01
 -0.173977125493E-01
 -0.278458474797E-01
  0.703199756564E-02
 -0.427178453539E-02
  0.310996025386E-01
  0.191555767431E-01
  0.543123242985E-01
  0.419215029536E-01
  0.767690346167E-01
  0.641143732488E-01
  0.989771286181E-01
  0.862534346796E-01
  0.121611854927E+00
  0.109053155444E+00
  0.145423250110E+00
  0.133332532817E+00
  0.171071646177E+00
  0.159846882792E+00
  0.198738489887E+00
  0.188897007287E+00
  0.227710063110E+00
  0.219922046114E+00
  0.254145261964E+00
  0.249312460524E+00
  0.262933135559E+00
  0.262521321385E+00
  0.258133018101E+00
  0.264964974940E+00
  0.313347170841E+00
  0.330215512879E+00
  0.484675958190E+00
  0.507489170839E+00
  0.641064137622E+00
  0.653099703391E+00
  0.583848069302E+00
  0.563909260719E+00
  0.329428508746E+00
  0.266860428783E+00
 -0.107874494936E+00
 -0.896176486342E-02
 -0.608877114929E+00
 -0.474946697836E+00
 -0.110773139697E+01
 -0.964104883829E+00
 -0.140763504607E+01
 -0.127336627369E+01
 -0.141766347277E+01
 -0.129986221049E+01
 -0.120591390194E+01
 -0.110720871711E+01
 -0.968037367934E+00
 -0.887872680101E+00
 -0.822940279599E+00
 -0.757209518751E+00
 -0.747944858921E+00
 -0.693153171268E+00
 -0.698574756869E+00
 -0.652763685142E+00
 -0.661024841127E+00
 -0.622791853983E+00
 -0.630327022735E+00
 -0.598525668624E+00
 -0.604386918492E+00
 -0.578033356649E+00
 -0.582514102002E+00
 -0.560753479791E+00
 -0.564510512252E+00
 -0.546615641002E+00
 -0.550288558502E+00
 -0.535668248253E+00
 -0.539691864175E+00
 -0.527898257496E+00
 -0.532167776614E+00
 -0.522897095593E+00
 -0.526566586331E+00
 -0.519647133556E+00
 -0.521325720719E+00
 -0.516687190314E+00
 -0.514704030837E+00
 -0.512330383660E+00
 -0.504775029792E+00
 -0.504651357685E+00
 -0.490118726304E+00
 -0.492178320033E+00
 -0.469919738098E+00
 -0.474007679890E+00
 -0.449961429179E+00
 -0.444351055010E+00
 -0.421274181265E+00
 -0.414234786608E+00
 -0.389458859501E+00
 -0.381284063477E+00
 -0.356354189644E+00
 -0.347303105411E+00
 -0.323692867237E+00
 -0.313950214790E+00
 -0.292627068566E+00
 -0.282282489647E+00
 -0.263603004900E+00
 -0.252655901197E+00
 -0.236165481141E+00
 -0.224554573401E+00
 -0.209269757004E+00
 -0.196917004508E+00
 -0.181574464172E+00
 -0.168435473671E+00
 -0.151610849450E+00
 -0.137721253065E+00
 -0.118267799066E+00
 -0.103778550778E+00
 -0.808433572040E-01
 -0.660420107714E-01
 -0.391403055494E-01
 -0.244563385505E-01
  0.638296381955E-02
  0.203993376765E-01
  0.545841172616E-01
  0.673336410983E-01
  0.105725331445E+00
  0.116683022288E+00
  0.161062878541E+00
  0.169933904499E+00
  0.226457849083E+00
  0.233327132030E+00
  0.382609951012E+00
  0.388495642034E+00
  0.369876308518E+00
  0.366993608201E+00
  0.243728774063E+00
  0.241290025352E+00
  0.199484876892E+00
  0.196722554051E+00
  0.163117499943E+00
  0.159768314564E+00
  0.129826956291E+00
  0.125796742393E+00
  0.986602734510E-01
  0.939724637470E-01
  0.695273300246E-01
  0.643142087253E-01
  0.436321843580E-01
  0.381114952335E-01
  0.215648728987E-01
  0.159903536135E-01
  0.333511488497E-02
 -0.205286097866E-02
 -0.115005833353E-01
 -0.165089599270E-01
 -0.237611110282E-01
 -0.282588258522E-01
 -0.346074764623E-01
 -0.385228060796E-01
 -0.451063696634E-01
 -0.484102274541E-01
 -0.560983627817E-01
 -0.587798408468E-01
 -0.679273308842E-01
 -0.699678960803E-01
 -0.801780251316E-01
 -0.815313013748E-01
 -0.918398130537E-01
 -0.924232554913E-01
 -0.101416978452E+00
 -0.101118575024E+00
 -0.107343768172E+00
 -0.106043685167E+00
 -0.105860077900E+00
 -0.108309083925E+00
 -0.998031154051E-01
 -0.103428186479E+00
 -0.879334075955E-01
 -0.927258858484E-01
 -0.710665088602E-01
 -0.769481136273E-01
 -0.504830742584E-01
 -0.573132401870E-01
 -0.277719031333E-01
 -0.353663380884E-01
 -0.422757287720E-02
 -0.123767992569E-01
  0.191518020781E-01
  0.106684453607E-01
  0.418523180743E-01
  0.332621056217E-01
  0.639607981643E-01
  0.555015342920E-01
  0.859913469888E-01
  0.779203267846E-01
  0.108650145423E+00
  0.101254373725E+00
  0.132744622131E+00
  0.126351756036E+00
  0.159017229912E+00
  0.154004533846E+00
  0.187758760692E+00
  0.184564890108E+00
  0.218408797686E+00
  0.217559846840E+00
  0.247397450051E+00
  0.249592394296E+00
  0.260350580397E+00
  0.266842016210E+00
  0.262532102651E+00
  0.275574666345E+00
  0.326466800590E+00
  0.347257069979E+00
  0.500848139918E+00
  0.523432227036E+00
  0.644086845965E+00
  0.652708058379E+00
  0.555405456485E+00
  0.533934043108E+00
  0.260740342808E+00
  0.204263557028E+00
 -0.201954042655E+00
 -0.118691691011E+00
 -0.720591730782E+00
 -0.614392716620E+00
 -0.121759281756E+01
 -0.110782617267E+01
 -0.150605312694E+01
 -0.140484759565E+01
 -0.150417422891E+01
 -0.141448262708E+01
 -0.128089889606E+01
 -0.120372509758E+01
 -0.103166368642E+01
 -0.966994439604E+00
 -0.877341233201E+00
 -0.822657578176E+00
 -0.795144747553E+00
 -0.748145088977E+00
 -0.739643465742E+00
 -0.699109761556E+00
 -0.696683857232E+00
 -0.661792075813E+00
 -0.661155307814E+00
 -0.631248303775E+00
 -0.630889299726E+00
 -0.605402479507E+00
 -0.605148191552E+00
 -0.583580821179E+00
 -0.583688879203E+00
 -0.565600889475E+00
 -0.566371423126E+00
 -0.551388695991E+00
 -0.552979201341E+00
 -0.540799042024E+00
 -0.542892624675E+00
 -0.533286457063E+00
 -0.534895271354E+00
 -0.527703474074E+00
 -0.527370636339E+00
 -0.522484833511E+00
 -0.518547095091E+00
 -0.515882861189E+00
 -0.506493848675E+00
 -0.505961012368E+00
 -0.489816194954E+00
 -0.491289729130E+00
 -0.467743485550E+00
 -0.471047019756E+00
 -0.445153895465E+00
 -0.440494944310E+00
 -0.414900998186E+00
 -0.408932129889E+00
 -0.381826908401E+00
 -0.374762480486E+00
 -0.347741191889E+00
 -0.339765032301E+00
 -0.314303719820E+00
 -0.305552578568E+00
 -0.282569687889E+00
 -0.273130185970E+00
 -0.252891233905E+00
 -0.242812687229E+00
 -0.224747668220E+00
 -0.214068304314E+00
 -0.197073192816E+00
 -0.185851714071E+00
 -0.168557044096E+00
 -0.156902835932E+00
 -0.137809191792E+00
 -0.125902930030E+00
 -0.103834670452E+00
 -0.919329237915E-01
 -0.660706564350E-01
 -0.544901286104E-01
 -0.244653060267E-01
 -0.135445762543E-01
  0.203991848223E-01
  0.303560760733E-01
  0.673304642615E-01
  0.761090779213E-01
  0.116666593593E+00
  0.124158126467E+00
  0.169896979369E+00
  0.176069458161E+00
  0.233262619398E+00
  0.238024283455E+00
  0.388342309252E+00
  0.390826188138E+00
  0.370702895628E+00
  0.369461631093E+00
  0.245269972132E+00
  0.243491362143E+00
  0.201334878137E+00
  0.199301719442E+00
  0.165310297638E+00
  0.162976551570E+00
  0.132423393594E+00
  0.129723639849E+00
  0.101693336537E+00
  0.985906070645E-01
  0.729827512426E-01
  0.694866201939E-01
  0.474363956138E-01
  0.436138060058E-01
  0.255929338886E-01
  0.215616566123E-01
  0.743080127179E-02
  0.334067298846E-02
 -0.749941991470E-02
 -0.114910938461E-01
 -0.200000916857E-01
 -0.237508109281E-01
 -0.312020904735E-01
 -0.345980583572E-01
 -0.421400829925E-01
 -0.450987529613E-01
 -0.536297982187E-01
 -0.560933118171E-01
 -0.660028454500E-01
 -0.679258827631E-01
 -0.788445907065E-01
 -0.801815803021E-01
 -0.911528605814E-01
 -0.918497512450E-01
 -0.101439996975E+00
 -0.101433856552E+00
 -0.108138265228E+00
 -0.107366383246E+00
 -0.108293317393E+00
 -0.109908800941E+00
 -0.103391135693E+00
 -0.105853183936E+00
 -0.926690856775E-01
 -0.959552842104E-01
 -0.768791237904E-01
 -0.809194278416E-01
 -0.572450719235E-01
 -0.619237560372E-01
 -0.353152413627E-01
 -0.404797047878E-01
 -0.123601573458E-01
 -0.178305863524E-01
  0.106338830461E-01
  0.505617408064E-02
  0.331604456449E-01
  0.276890972982E-01
  0.553162864045E-01
  0.501798712194E-01
  0.776321544660E-01
  0.730763170098E-01
  0.100839357199E+00
  0.971291902859E-01
  0.125779772002E+00
  0.123202744306E+00
  0.153239294206E+00
  0.152107948002E+00
  0.183566942014E+00
  0.184226836928E+00
  0.216294427828E+00
  0.219147467172E+00
  0.248055320684E+00
  0.253644108089E+00
  0.265142689549E+00
  0.274524880950E+00
  0.273729464844E+00
  0.288720813875E+00
  0.344692721289E+00
  0.365650523072E+00
  0.519408324277E+00
  0.539914932258E+00
  0.647748691386E+00
  0.653460012637E+00
  0.529655965837E+00
  0.507606004556E+00
  0.201471885305E+00
  0.149468697763E+00
 -0.282240615500E+00
 -0.208793291276E+00
 -0.813874920585E+00
 -0.723953981049E+00
 -0.130792615060E+01
 -0.121751053323E+01
 -0.158638538646E+01
 -0.150411577262E+01
 -0.157500157937E+01
 -0.150190649658E+01
 -0.134294143174E+01
 -0.127921285229E+01
 -0.108498868485E+01
 -0.103073488280E+01
 -0.923544277437E+00
 -0.876955507214E+00
 -0.835798309299E+00
 -0.795129670161E+00
 -0.775556217585E+00
 -0.739909684206E+00
 -0.728367308862E+00
 -0.697169080399E+00
 -0.688993617413E+00
 -0.661809606297E+00
 -0.655201368682E+00
 -0.631671485938E+00
 -0.626217019567E+00
 -0.606025431009E+00
 -0.601770792612E+00
 -0.584637090591E+00
 -0.581696420477E+00
 -0.567374971183E+00
 -0.565748904036E+00
 -0.554030069820E+00
 -0.553276578719E+00
 -0.543988032648E+00
 -0.543029971630E+00
 -0.536034081412E+00
 -0.533366045993E+00
 -0.528549427300E+00
 -0.522499505044E+00
 -0.519757084655E+00
 -0.508499320974E+00
 -0.507718188482E+00
 -0.489986964034E+00
 -0.491030717949E+00
 -0.466218110602E+00
 -0.468919464766E+00
 -0.441365038270E+00
 -0.437431442030E+00
 -0.409667012350E+00
 -0.404522923558E+00
 -0.375373071086E+00
 -0.369188046219E+00
 -0.340267238661E+00
 -0.333192735257E+00
 -0.305964190638E+00
 -0.298129294141E+00
 -0.273467845177E+00
 -0.264982914968E+00
 -0.243090083516E+00
 -0.234058482258E+00
 -0.214295202608E+00
 -0.204830328884E+00
 -0.186034418767E+00
 -0.176275262973E+00
 -0.157045339056E+00
 -0.147165736342E+00
 -0.126008344113E+00
 -0.116214701083E+00
 -0.920049522554E-01
 -0.825205835504E-01
 -0.545337842876E-01
 -0.455729972656E-01
 -0.135660226495E-01
 -0.530557865173E-02
  0.303504098084E-01
  0.377928481063E-01
  0.761137189718E-01
  0.826860878071E-01
  0.124169882658E+00
  0.129871156052E+00
  0.176087799991E+00
  0.180954951626E+00
  0.238053128411E+00
  0.242164814373E+00
  0.390903104902E+00
  0.394403798113E+00
  0.371826880944E+00
  0.370328621976E+00
  0.246575263480E+00
  0.245036236269E+00
  0.202755810492E+00
  0.201148596140E+00
  0.166903008306E+00
  0.165162002870E+00
  0.134237947516E+00
  0.132309165921E+00
  0.103765643706E+00
  0.101610124834E+00
  0.753286125316E-01
  0.729273960021E-01
  0.500414752129E-01
  0.474042001858E-01
  0.284105422453E-01
  0.255784236214E-01
  0.103846508239E-01
  0.742858891070E-02
 -0.450690271109E-02
 -0.749395492565E-02
 -0.170755078037E-01
 -0.199903840852E-01
 -0.284484085582E-01
 -0.311902990722E-01
 -0.396481176165E-01
 -0.421274473595E-01
 -0.514748015867E-01
 -0.536170962594E-01
 -0.642461147139E-01
 -0.659907922127E-01
 -0.775378986761E-01
 -0.788340476437E-01
 -0.903422194035E-01
 -0.911446528682E-01
 -0.101166392515E+00
 -0.101434471475E+00
 -0.108433494366E+00
 -0.108134760510E+00
 -0.109881669871E+00
 -0.110779821915E+00
 -0.105811485767E+00
 -0.107298575956E+00
 -0.959018111494E-01
 -0.979448210074E-01
 -0.808614303397E-01
 -0.833942345776E-01
 -0.618724386843E-01
 -0.647961640438E-01
 -0.404485668714E-01
 -0.436360441842E-01
 -0.178338857307E-01
 -0.211349338136E-01
  0.500480745156E-02
  0.175844482242E-02
  0.275769576778E-01
  0.245687119112E-01
  0.499942859098E-01
  0.474214679265E-01
  0.728032289388E-01
  0.708765661857E-01
  0.967521815414E-01
  0.956953578800E-01
  0.122702187900E+00
  0.122751946570E+00
  0.151461391866E+00
  0.152868408337E+00