# vtk DataFile Version 3.0
MachLine results file. Generated by MachLine, USU AeroLab (c) 2022.
ASCII
DATASET POLYDATA
POINTS                  86 float
  0.810587965200E+00  0.000000000000E+00  0.000000000000E+00
  0.997469782852E+03  0.000000000000E+00  0.710917408900E+02
  0.810676677800E+00  0.347461097400E-01 -0.128622059200E-02
  0.997469874583E+03  0.347461097400E-01  0.710904548847E+02
  0.820336240200E+00  0.347461097400E-01  0.000000000000E+00
  0.997469832200E+03  0.347461097400E-01  0.710910490652E+02
  0.800803929100E+00  0.000000000000E+00 -0.130279491000E-02
  0.997469825781E+03  0.000000000000E+00  0.710911390529E+02
  0.799987339200E+00  0.347461097400E-01 -0.264710801000E-02
  0.997469917052E+03  0.347461097400E-01  0.710898594976E+02
  0.789976847000E+00  0.000000000000E+00 -0.268121880900E-02
  0.997469868798E+03  0.000000000000E+00  0.710905359936E+02
  0.788200162400E+00  0.347461097400E-01 -0.413831356600E-02
  0.997469963212E+03  0.347461097400E-01  0.710892123644E+02
  0.778037779900E+00  0.000000000000E+00 -0.419164013300E-02
  0.997469915552E+03  0.000000000000E+00  0.710898805214E+02
  0.830938588000E+00  0.725364203800E-01  0.000000000000E+00
  0.997469885872E+03  0.725364203800E-01  0.710902966277E+02
  0.842386850500E+00  0.113341854000E+00  0.000000000000E+00
  0.997469943825E+03  0.113341854000E+00  0.710894841565E+02
  0.854652515100E+00  0.157060781400E+00  0.000000000000E+00
  0.997470005917E+03  0.157060781400E+00  0.710886136751E+02
  0.867684656900E+00  0.203511690000E+00  0.000000000000E+00
  0.997470071888E+03  0.203511690000E+00  0.710876887976E+02
  0.881408890100E+00  0.252429443600E+00  0.000000000000E+00
  0.997470141363E+03  0.252429443600E+00  0.710867148032E+02
  0.895727614200E+00  0.303466161400E+00  0.000000000000E+00
  0.997470213848E+03  0.303466161400E+00  0.710856986183E+02
  0.910521751800E+00  0.356197411800E+00  0.000000000000E+00
  0.997470288739E+03  0.356197411800E+00  0.710846486939E+02
  0.925654029900E+00  0.410133907800E+00  0.000000000000E+00
  0.997470365342E+03  0.410133907800E+00  0.710835747720E+02
  0.940973682400E+00  0.464738268900E+00  0.000000000000E+00
  0.997470442893E+03  0.464738268900E+00  0.710824875523E+02
  0.956322269300E+00  0.519445761800E+00  0.000000000000E+00
  0.997470520591E+03  0.519445761800E+00  0.710813982791E+02
  0.971540152800E+00  0.573687384300E+00  0.000000000000E+00
  0.997470597627E+03  0.573687384300E+00  0.710803182819E+02
  0.986473078300E+00  0.626913321300E+00  0.000000000000E+00
  0.997470673221E+03  0.626913321300E+00  0.710792585078E+02
  0.100097829000E+01  0.678614743900E+00  0.000000000000E+00
  0.997470746650E+03  0.678614743900E+00  0.710782290881E+02
  0.101492968200E+01  0.728342164900E+00  0.000000000000E+00
  0.997470817275E+03  0.728342164900E+00  0.710772389725E+02
  0.102822161300E+01  0.775719050100E+00  0.000000000000E+00
  0.997470884561E+03  0.775719050100E+00  0.710762956580E+02
  0.104077121000E+01  0.820450008200E+00  0.000000000000E+00
  0.997470948090E+03  0.820450008200E+00  0.710754050263E+02
  0.105251913300E+01  0.862323532100E+00  0.000000000000E+00
  0.997471007561E+03  0.862323532100E+00  0.710745712885E+02
  0.106342896600E+01  0.901209822200E+00  0.000000000000E+00
  0.997471062789E+03  0.901209822200E+00  0.710737970291E+02
  0.107348548600E+01  0.937054620400E+00  0.000000000000E+00
  0.997471113697E+03  0.937054620400E+00  0.710730833284E+02
  0.108269213400E+01  0.969870191100E+00  0.000000000000E+00
  0.997471160303E+03  0.969870191100E+00  0.710724299422E+02
  0.109106801000E+01  0.999724613400E+00  0.000000000000E+00
  0.997471202703E+03  0.999724613400E+00  0.710718355151E+02
  0.109864469200E+01  0.102673044000E+01  0.000000000000E+00
  0.997471241058E+03  0.102673044000E+01  0.710712978059E+02
  0.110546311600E+01  0.105103358000E+01  0.000000000000E+00
  0.997471275575E+03  0.105103358000E+01  0.710708139095E+02
  0.111157069400E+01  0.107280302900E+01  0.000000000000E+00
  0.997471306493E+03  0.107280302900E+01  0.710703804611E+02
  0.111701878500E+01  0.109222184700E+01  0.000000000000E+00
  0.997471334072E+03  0.109222184700E+01  0.710699938158E+02
  0.112186056500E+01  0.110947956900E+01  0.000000000000E+00
  0.997471358582E+03  0.110947956900E+01  0.710696501997E+02
  0.112614931300E+01  0.112476609800E+01  0.000000000000E+00
  0.997471380293E+03  0.112476609800E+01  0.710693458318E+02
  0.112993708900E+01  0.113826699800E+01  0.000000000000E+00
  0.997471399467E+03  0.113826699800E+01  0.710690770173E+02
  0.113327377200E+01  0.115016005100E+01  0.000000000000E+00
  0.997471416358E+03  0.115016005100E+01  0.710688402164E+02
  0.113620639300E+01  0.116061289200E+01  0.000000000000E+00
  0.997471431204E+03  0.116061289200E+01  0.710686320913E+02
  0.113877872500E+01  0.116978154300E+01  0.000000000000E+00
  0.997471444226E+03  0.116978154300E+01  0.710684495356E+02
  0.114103107000E+01  0.117780965500E+01  0.000000000000E+00
  0.997471455627E+03  0.117780965500E+01  0.710682896891E+02
  0.114300020200E+01  0.118482829800E+01  0.000000000000E+00
  0.997471465596E+03  0.118482829800E+01  0.710681499418E+02
  0.114471941700E+01  0.119095615500E+01  0.000000000000E+00
  0.997471474299E+03  0.119095615500E+01  0.710680279309E+02
  0.114621867200E+01  0.119630000000E+01  0.000000000000E+00
  0.997471481888E+03  0.119630000000E+01  0.710679215304E+02
POLYGONS                  72                 288
3                   4                   5                   1
3                   4                   1                   0
3                  16                  17                   5
3                  16                   5                   4
3                  18                  19                  17
3                  18                  17                  16
3                  20                  21                  19
3                  20                  19                  18
3                  22                  23                  21
3                  22                  21                  20
3                  24                  25                  23
3                  24                  23                  22
3                  26                  27                  25
3                  26                  25                  24
3                  28                  29                  27
3                  28                  27                  26
3                  30                  31                  29
3                  30                  29                  28
3                  32                  33                  31
3                  32                  31                  30
3                  34                  35                  33
3                  34                  33                  32
3                  36                  37                  35
3                  36                  35                  34
3                  38                  39                  37
3                  38                  37                  36
3                  40                  41                  39
3                  40                  39                  38
3                  42                  43                  41
3                  42                  41                  40
3                  44                  45                  43
3                  44                  43                  42
3                  46                  47                  45
3                  46                  45                  44
3                  48                  49                  47
3                  48                  47                  46
3                  50                  51                  49
3                  50                  49                  48
3                  52                  53                  51
3                  52                  51                  50
3                  54                  55                  53
3                  54                  53                  52
3                  56                  57                  55
3                  56                  55                  54
3                  58                  59                  57
3                  58                  57                  56
3                  60                  61                  59
3                  60                  59                  58
3                  62                  63                  61
3                  62                  61                  60
3                  64                  65                  63
3                  64                  63                  62
3                  66                  67                  65
3                  66                  65                  64
3                  68                  69                  67
3                  68                  67                  66
3                  70                  71                  69
3                  70                  69                  68
3                  72                  73                  71
3                  72                  71                  70
3                  74                  75                  73
3                  74                  73                  72
3                  76                  77                  75
3                  76                  75                  74
3                  78                  79                  77
3                  78                  77                  76
3                  80                  81                  79
3                  80                  79                  78
3                  82                  83                  81
3                  82                  81                  80
3                  84                  85                  83
3                  84                  83                  82
CELL_DATA                  72
NORMALS normals float
  0.711350966576E-01 -0.199574711975E-01 -0.997267014077E+00
  0.711350966576E-01 -0.199574711975E-01 -0.997267014077E+00
  0.711350966576E-01 -0.199574711820E-01 -0.997267014078E+00
  0.711350966576E-01 -0.199574711816E-01 -0.997267014078E+00
  0.711350966578E-01 -0.199574710341E-01 -0.997267014081E+00
  0.711350966578E-01 -0.199574710339E-01 -0.997267014081E+00
  0.711350966575E-01 -0.199574712550E-01 -0.997267014076E+00
  0.711350966575E-01 -0.199574712552E-01 -0.997267014076E+00
  0.711350966577E-01 -0.199574711141E-01 -0.997267014079E+00
  0.711350966577E-01 -0.199574711138E-01 -0.997267014079E+00
  0.711350966577E-01 -0.199574711303E-01 -0.997267014079E+00
  0.711350966577E-01 -0.199574711305E-01 -0.997267014079E+00
  0.711350966577E-01 -0.199574711458E-01 -0.997267014078E+00
  0.711350966577E-01 -0.199574711456E-01 -0.997267014078E+00
  0.711350966577E-01 -0.199574711421E-01 -0.997267014079E+00
  0.711350966577E-01 -0.199574711419E-01 -0.997267014079E+00
  0.711350966576E-01 -0.199574711950E-01 -0.997267014077E+00
  0.711350966576E-01 -0.199574711951E-01 -0.997267014077E+00
  0.711350966577E-01 -0.199574711506E-01 -0.997267014078E+00
  0.711350966577E-01 -0.199574711506E-01 -0.997267014078E+00
  0.711350966576E-01 -0.199574711767E-01 -0.997267014078E+00
  0.711350966576E-01 -0.199574711766E-01 -0.997267014078E+00
  0.711350966577E-01 -0.199574711043E-01 -0.997267014079E+00
  0.711350966577E-01 -0.199574711043E-01 -0.997267014079E+00
  0.711350966577E-01 -0.199574710883E-01 -0.997267014080E+00
  0.711350966577E-01 -0.199574710883E-01 -0.997267014080E+00
  0.711350966580E-01 -0.199574708865E-01 -0.997267014084E+00
  0.711350966580E-01 -0.199574708864E-01 -0.997267014084E+00
  0.711350966563E-01 -0.199574721241E-01 -0.997267014059E+00
  0.711350966563E-01 -0.199574721242E-01 -0.997267014059E+00
  0.711350966584E-01 -0.199574706623E-01 -0.997267014088E+00
  0.711350966584E-01 -0.199574706625E-01 -0.997267014088E+00
  0.711350966580E-01 -0.199574709225E-01 -0.997267014083E+00
  0.711350966580E-01 -0.199574709226E-01 -0.997267014083E+00
  0.711350966579E-01 -0.199574709818E-01 -0.997267014082E+00
  0.711350966579E-01 -0.199574709816E-01 -0.997267014082E+00
  0.711350966572E-01 -0.199574714627E-01 -0.997267014072E+00
  0.711350966572E-01 -0.199574714629E-01 -0.997267014072E+00
  0.711350966578E-01 -0.199574710465E-01 -0.997267014080E+00
  0.711350966578E-01 -0.199574710465E-01 -0.997267014080E+00
  0.711350966581E-01 -0.199574708412E-01 -0.997267014085E+00
  0.711350966581E-01 -0.199574708410E-01 -0.997267014085E+00
  0.711350966587E-01 -0.199574703834E-01 -0.997267014094E+00
  0.711350966587E-01 -0.199574703832E-01 -0.997267014094E+00
  0.711350966576E-01 -0.199574711930E-01 -0.997267014078E+00
  0.711350966576E-01 -0.199574711930E-01 -0.997267014078E+00
  0.711350966556E-01 -0.199574725849E-01 -0.997267014050E+00
  0.711350966556E-01 -0.199574725852E-01 -0.997267014050E+00
  0.711350966576E-01 -0.199574711960E-01 -0.997267014077E+00
  0.711350966576E-01 -0.199574711960E-01 -0.997267014077E+00
  0.711350966591E-01 -0.199574701148E-01 -0.997267014099E+00
  0.711350966591E-01 -0.199574701144E-01 -0.997267014099E+00
  0.711350966577E-01 -0.199574711133E-01 -0.997267014079E+00
  0.711350966577E-01 -0.199574711136E-01 -0.997267014079E+00
  0.711350966538E-01 -0.199574738981E-01 -0.997267014024E+00
  0.711350966538E-01 -0.199574738984E-01 -0.997267014024E+00
  0.711350966587E-01 -0.199574703816E-01 -0.997267014094E+00
  0.711350966587E-01 -0.199574703816E-01 -0.997267014094E+00
  0.711350966570E-01 -0.199574716197E-01 -0.997267014069E+00
  0.711350966570E-01 -0.199574716201E-01 -0.997267014069E+00
  0.711350966569E-01 -0.199574716856E-01 -0.997267014068E+00
  0.711350966569E-01 -0.199574716842E-01 -0.997267014068E+00
  0.711350966580E-01 -0.199574708925E-01 -0.997267014084E+00
  0.711350966580E-01 -0.199574708916E-01 -0.997267014084E+00
  0.711350966637E-01 -0.199574668737E-01 -0.997267014164E+00
  0.711350966637E-01 -0.199574668753E-01 -0.997267014163E+00
  0.711350966516E-01 -0.199574754168E-01 -0.997267013993E+00
  0.711350966516E-01 -0.199574754175E-01 -0.997267013993E+00
  0.711350966586E-01 -0.199574704831E-01 -0.997267014092E+00
  0.711350966586E-01 -0.199574704845E-01 -0.997267014092E+00
  0.711350966532E-01 -0.199574743153E-01 -0.997267014015E+00
  0.711350966532E-01 -0.199574743164E-01 -0.997267014015E+00
POINT_DATA                  86
SCALARS mu float 1
LOOKUP_TABLE default
 -0.114348296332E+00
 -0.114348296332E+00
  0.000000000000E+00
  0.000000000000E+00
 -0.114389351674E+00
 -0.114389351674E+00
  0.000000000000E+00
  0.000000000000E+00
  0.000000000000E+00
  0.000000000000E+00
  0.000000000000E+00
  0.000000000000E+00
  0.000000000000E+00
  0.000000000000E+00
  0.000000000000E+00
  0.000000000000E+00
 -0.114443047843E+00
 -0.114443047843E+00
 -0.114382151059E+00
 -0.114382151059E+00
 -0.114240140412E+00
 -0.114240140412E+00
 -0.113970333680E+00
 -0.113970333680E+00
 -0.113534949022E+00
 -0.113534949022E+00
 -0.112932747814E+00
 -0.112932747814E+00
 -0.112103171716E+00
 -0.112103171716E+00
 -0.110968404400E+00
 -0.110968404400E+00
 -0.109541463284E+00
 -0.109541463284E+00
 -0.107842550750E+00
 -0.107842550750E+00
 -0.105834704653E+00
 -0.105834704653E+00
 -0.103565339591E+00
 -0.103565339591E+00
 -0.101018452061E+00
 -0.101018452061E+00
 -0.981739239302E-01
 -0.981739239302E-01
 -0.950885758145E-01
 -0.950885758145E-01
 -0.917465449302E-01
 -0.917465449302E-01
 -0.882207159362E-01
 -0.882207159362E-01
 -0.844833830616E-01
 -0.844833830616E-01
 -0.806427015736E-01
 -0.806427015736E-01
 -0.765907674133E-01
 -0.765907674133E-01
 -0.725401529125E-01
 -0.725401529125E-01
 -0.683805466874E-01
 -0.683805466874E-01
 -0.641902342662E-01
 -0.641902342662E-01
 -0.599090696932E-01
 -0.599090696932E-01
 -0.557086047867E-01
 -0.557086047867E-01
 -0.514744843033E-01
 -0.514744843033E-01
 -0.471652997243E-01
 -0.471652997243E-01
 -0.428640818400E-01
 -0.428640818400E-01
 -0.384358228932E-01
 -0.384358228932E-01
 -0.338759587617E-01
 -0.338759587617E-01
 -0.290946172643E-01
 -0.290946172643E-01
 -0.238259597494E-01
 -0.238259597494E-01
 -0.178003993623E-01
 -0.178003993623E-01
 -0.102594702773E-01
 -0.102594702773E-01
  0.000000000000E+00
  0.000000000000E+00
