# vtk DataFile Version 3.0
MachLine results file. Generated by MachLine, USU AeroLab (c) 2022.
ASCII
DATASET POLYDATA
POINTS                 180 float
  0.113647460938E+01  0.116971552372E+01  0.000000000000E+00
  0.114398765564E+01  0.119630002975E+01  0.677626357803E-20
  0.149359934763E+04  0.116971552372E+01  0.132148593343E+03
  0.149359567878E+04  0.119630002975E+01  0.132147603253E+03
  0.112144851685E+01  0.111654663086E+01  0.000000000000E+00
  0.112896156311E+01  0.114313113689E+01  0.000000000000E+00
  0.149360668535E+04  0.111654663086E+01  0.132150573523E+03
  0.149360301649E+04  0.114313113689E+01  0.132149583433E+03
  0.111393535137E+01  0.108996224403E+01  0.000000000000E+00
  0.112144851685E+01  0.111654663086E+01  0.000000000000E+00
  0.149361035426E+04  0.108996224403E+01  0.132151563629E+03
  0.149360668535E+04  0.111654663086E+01  0.132150573523E+03
  0.110642230511E+01  0.106337773800E+01  0.000000000000E+00
  0.111393535137E+01  0.108996224403E+01  0.000000000000E+00
  0.149361402312E+04  0.106337773800E+01  0.132152553719E+03
  0.149361035426E+04  0.108996224403E+01  0.132151563629E+03
  0.109890925884E+01  0.103679335117E+01  0.000000000000E+00
  0.110642230511E+01  0.106337773800E+01  0.000000000000E+00
  0.149361769198E+04  0.103679335117E+01  0.132153543809E+03
  0.149361402312E+04  0.106337773800E+01  0.132152553719E+03
  0.109139621258E+01  0.101020884514E+01  0.000000000000E+00
  0.109890925884E+01  0.103679335117E+01  0.000000000000E+00
  0.149362136083E+04  0.101020884514E+01  0.132154533900E+03
  0.149361769198E+04  0.103679335117E+01  0.132153543809E+03
  0.108388316631E+01  0.983624458313E+00  0.000000000000E+00
  0.109139621258E+01  0.101020884514E+01  0.000000000000E+00
  0.149362502969E+04  0.983624458313E+00  0.132155523990E+03
  0.149362136083E+04  0.101020884514E+01  0.132154533900E+03
  0.107637012005E+01  0.957040011883E+00  0.000000000000E+00
  0.108388316631E+01  0.983624458313E+00  0.000000000000E+00
  0.149362869855E+04  0.957040011883E+00  0.132156514080E+03
  0.149362502969E+04  0.983624458313E+00  0.132155523990E+03
  0.105383098125E+01  0.877286672592E+00  0.000000000000E+00
  0.106134402752E+01  0.903871119022E+00  0.000000000000E+00
  0.149363970512E+04  0.877286672592E+00  0.132159484350E+03
  0.149363603626E+04  0.903871119022E+00  0.132158494260E+03
  0.104631793499E+01  0.850702226162E+00  0.000000000000E+00
  0.105383098125E+01  0.877286672592E+00  0.000000000000E+00
  0.149364337397E+04  0.850702226162E+00  0.132160474440E+03
  0.149363970512E+04  0.877286672592E+00  0.132159484350E+03
  0.103880476952E+01  0.824117779732E+00  0.000000000000E+00
  0.104631793499E+01  0.850702226162E+00  0.000000000000E+00
  0.149364704289E+04  0.824117779732E+00  0.132161464546E+03
  0.149364337397E+04  0.850702226162E+00  0.132160474440E+03
  0.103129172325E+01  0.797533333302E+00  0.000000000000E+00
  0.103880476952E+01  0.824117779732E+00  0.000000000000E+00
  0.149365071174E+04  0.797533333302E+00  0.132162454636E+03
  0.149364704289E+04  0.824117779732E+00  0.132161464546E+03
  0.102377867699E+01  0.770948886871E+00  0.000000000000E+00
  0.103129172325E+01  0.797533333302E+00  0.000000000000E+00
  0.149365438060E+04  0.770948886871E+00  0.132163444726E+03
  0.149365071174E+04  0.797533333302E+00  0.132162454636E+03
  0.101626563072E+01  0.744364440441E+00  0.000000000000E+00
  0.102377867699E+01  0.770948886871E+00  0.000000000000E+00
  0.149365804946E+04  0.744364440441E+00  0.132164434816E+03
  0.149365438060E+04  0.770948886871E+00  0.132163444726E+03
  0.986213386059E+00  0.638026654720E+00  0.000000000000E+00
  0.993726491928E+00  0.664611101151E+00  0.000000000000E+00
  0.149367272491E+04  0.638026654720E+00  0.132168395185E+03
  0.149366905603E+04  0.664611101151E+00  0.132167405087E+03
  0.978700339794E+00  0.611442208290E+00  0.000000000000E+00
  0.986213386059E+00  0.638026654720E+00  0.000000000000E+00
  0.149367639377E+04  0.611442208290E+00  0.132169385275E+03
  0.149367272491E+04  0.638026654720E+00  0.132168395185E+03
  0.971187293530E+00  0.584857761860E+00  0.000000000000E+00
  0.978700339794E+00  0.611442208290E+00  0.000000000000E+00
  0.149368006263E+04  0.584857761860E+00  0.132170375365E+03
  0.149367639377E+04  0.611442208290E+00  0.132169385275E+03
  0.963674247265E+00  0.558273315430E+00  0.000000000000E+00
  0.971187293530E+00  0.584857761860E+00  0.000000000000E+00
  0.149368373148E+04  0.558273315430E+00  0.132171365455E+03
  0.149368006263E+04  0.584857761860E+00  0.132170375365E+03
  0.956161201000E+00  0.531688868999E+00  0.000000000000E+00
  0.963674247265E+00  0.558273315430E+00  0.000000000000E+00
  0.149368740034E+04  0.531688868999E+00  0.132172355545E+03
  0.149368373148E+04  0.558273315430E+00  0.132171365455E+03
  0.948648095131E+00  0.505104422569E+00  0.000000000000E+00
  0.956161201000E+00  0.531688868999E+00  0.000000000000E+00
  0.149369106922E+04  0.505104422569E+00  0.132173345643E+03
  0.149368740034E+04  0.531688868999E+00  0.132172355545E+03
  0.941135048866E+00  0.478520005941E+00  0.000000000000E+00
  0.948648095131E+00  0.505104422569E+00  0.000000000000E+00
  0.149369473808E+04  0.478520005941E+00  0.132174335733E+03
  0.149369106922E+04  0.505104422569E+00  0.132173345643E+03
  0.918595850468E+00  0.398766666651E+00  0.000000000000E+00
  0.926108956337E+00  0.425351113081E+00  0.000000000000E+00
  0.149370574468E+04  0.398766666651E+00  0.132177306011E+03
  0.149370207579E+04  0.425351113081E+00  0.132176315913E+03
  0.911082804203E+00  0.372182220221E+00  0.000000000000E+00
  0.918595850468E+00  0.398766666651E+00  0.000000000000E+00
  0.149370941354E+04  0.372182220221E+00  0.132178296102E+03
  0.149370574468E+04  0.398766666651E+00  0.132177306011E+03
  0.903569757938E+00  0.345597773790E+00  0.000000000000E+00
  0.911082804203E+00  0.372182220221E+00  0.000000000000E+00
  0.149371308239E+04  0.345597773790E+00  0.132179286192E+03
  0.149370941354E+04  0.372182220221E+00  0.132178296102E+03
  0.896056711674E+00  0.319013327360E+00  0.000000000000E+00
  0.903569757938E+00  0.345597773790E+00  0.000000000000E+00
  0.149371675125E+04  0.319013327360E+00  0.132180276282E+03
  0.149371308239E+04  0.345597773790E+00  0.132179286192E+03
  0.888543665409E+00  0.292428880930E+00  0.000000000000E+00
  0.896056711674E+00  0.319013327360E+00  0.000000000000E+00
  0.149372042011E+04  0.292428880930E+00  0.132181266372E+03
  0.149371675125E+04  0.319013327360E+00  0.132180276282E+03
  0.881030559540E+00  0.265844434500E+00  0.000000000000E+00
  0.888543665409E+00  0.292428880930E+00  0.000000000000E+00
  0.149372408899E+04  0.265844434500E+00  0.132182256470E+03
  0.149372042011E+04  0.292428880930E+00  0.132181266372E+03
  0.843465268612E+00  0.132922217250E+00  0.000000000000E+00
  0.850978374481E+00  0.159506663680E+00  0.000000000000E+00
  0.149374243330E+04  0.132922217250E+00  0.132187206928E+03
  0.149373876442E+04  0.159506663680E+00  0.132186216830E+03
  0.835952222347E+00  0.106337778270E+00  0.000000000000E+00
  0.843465268612E+00  0.132922217250E+00  0.000000000000E+00
  0.149374610216E+04  0.106337778270E+00  0.132188197018E+03
  0.149374243330E+04  0.132922217250E+00  0.132187206928E+03
  0.828439176083E+00  0.797533318400E-01  0.000000000000E+00
  0.835952222347E+00  0.106337778270E+00  0.000000000000E+00
  0.149374977102E+04  0.797533318400E-01  0.132189187109E+03
  0.149374610216E+04  0.106337778270E+00  0.132188197018E+03
  0.820926129818E+00  0.531688891351E-01  0.000000000000E+00
  0.828439176083E+00  0.797533318400E-01  0.000000000000E+00
  0.149375343987E+04  0.531688891351E-01  0.132190177199E+03
  0.149374977102E+04  0.797533318400E-01  0.132189187109E+03
  0.813413083553E+00  0.265844445676E-01  0.000000000000E+00
  0.820926129818E+00  0.531688891351E-01  0.000000000000E+00
  0.149375710873E+04  0.265844445676E-01  0.132191167289E+03
  0.149375343987E+04  0.531688891351E-01  0.132190177199E+03
  0.805899977684E+00  0.000000000000E+00  0.000000000000E+00
  0.813413083553E+00  0.265844445676E-01  0.000000000000E+00
  0.149376077762E+04  0.000000000000E+00  0.132192157387E+03
  0.149375710873E+04  0.265844445676E-01  0.132191167289E+03
  0.850978374481E+00  0.159506663680E+00  0.000000000000E+00
  0.858491420746E+00  0.186091110110E+00  0.000000000000E+00
  0.149373876442E+04  0.159506663680E+00  0.132186216830E+03
  0.149373509556E+04  0.186091110110E+00  0.132185226740E+03
  0.858491420746E+00  0.186091110110E+00  0.000000000000E+00
  0.866004467010E+00  0.212675556540E+00  0.000000000000E+00
  0.149373509556E+04  0.186091110110E+00  0.132185226740E+03
  0.149373142671E+04  0.212675556540E+00  0.132184236650E+03
  0.866004467010E+00  0.212675556540E+00  0.000000000000E+00
  0.873517513275E+00  0.239260002971E+00  0.000000000000E+00
  0.149373142671E+04  0.212675556540E+00  0.132184236650E+03
  0.149372775785E+04  0.239260002971E+00  0.132183246560E+03
  0.926108956337E+00  0.425351113081E+00  0.000000000000E+00
  0.933622002602E+00  0.451935559511E+00  0.000000000000E+00
  0.149370207579E+04  0.425351113081E+00  0.132176315913E+03
  0.149369840694E+04  0.451935559511E+00  0.132175325823E+03
  0.933622002602E+00  0.451935559511E+00  0.000000000000E+00
  0.941135048866E+00  0.478520005941E+00  0.000000000000E+00
  0.149369840694E+04  0.451935559511E+00  0.132175325823E+03
  0.149369473808E+04  0.478520005941E+00  0.132174335733E+03
  0.993726491928E+00  0.664611101151E+00  0.000000000000E+00
  0.100123953819E+01  0.691195547581E+00  0.000000000000E+00
  0.149366905603E+04  0.664611101151E+00  0.132167405087E+03
  0.149366538717E+04  0.691195547581E+00  0.132166414997E+03
  0.100123953819E+01  0.691195547581E+00  0.000000000000E+00
  0.100875258446E+01  0.717779994011E+00  0.000000000000E+00
  0.149366538717E+04  0.691195547581E+00  0.132166414997E+03
  0.149366171831E+04  0.717779994011E+00  0.132165424907E+03
  0.106134402752E+01  0.903871119022E+00  0.000000000000E+00
  0.106885707378E+01  0.930455565453E+00  0.000000000000E+00
  0.149363603626E+04  0.903871119022E+00  0.132158494260E+03
  0.149363236740E+04  0.930455565453E+00  0.132157504170E+03
  0.106885707378E+01  0.930455565453E+00  0.000000000000E+00
  0.107637012005E+01  0.957040011883E+00  0.000000000000E+00
  0.149363236740E+04  0.930455565453E+00  0.132157504170E+03
  0.149362869855E+04  0.957040011883E+00  0.132156514080E+03
  0.112896156311E+01  0.114313113689E+01  0.000000000000E+00
  0.113647460938E+01  0.116971552372E+01  0.000000000000E+00
  0.149360301649E+04  0.114313113689E+01  0.132149583433E+03
  0.149359934763E+04  0.116971552372E+01  0.132148593343E+03
  0.100875258446E+01  0.717779994011E+00  0.000000000000E+00
  0.101626563072E+01  0.744364440441E+00  0.000000000000E+00
  0.149366171831E+04  0.717779994011E+00  0.132165424907E+03
  0.149365804946E+04  0.744364440441E+00  0.132164434816E+03
  0.873517513275E+00  0.239260002971E+00  0.000000000000E+00
  0.881030559540E+00  0.265844434500E+00  0.000000000000E+00
  0.149372775785E+04  0.239260002971E+00  0.132183246560E+03
  0.149372408899E+04  0.265844434500E+00  0.132182256470E+03
POLYGONS                  90                 360
3                   0                   2                   1
3                   2                   3                   1
3                   4                   6                   5
3                   6                   7                   5
3                   8                  10                   9
3                  10                  11                   9
3                  12                  14                  13
3                  14                  15                  13
3                  16                  18                  17
3                  18                  19                  17
3                  20                  22                  21
3                  22                  23                  21
3                  24                  26                  25
3                  26                  27                  25
3                  28                  30                  29
3                  30                  31                  29
3                  32                  34                  33
3                  34                  35                  33
3                  36                  38                  37
3                  38                  39                  37
3                  40                  42                  41
3                  42                  43                  41
3                  44                  46                  45
3                  46                  47                  45
3                  48                  50                  49
3                  50                  51                  49
3                  52                  54                  53
3                  54                  55                  53
3                  56                  58                  57
3                  58                  59                  57
3                  60                  62                  61
3                  62                  63                  61
3                  64                  66                  65
3                  66                  67                  65
3                  68                  70                  69
3                  70                  71                  69
3                  72                  74                  73
3                  74                  75                  73
3                  76                  78                  77
3                  78                  79                  77
3                  80                  82                  81
3                  82                  83                  81
3                  84                  86                  85
3                  86                  87                  85
3                  88                  90                  89
3                  90                  91                  89
3                  92                  94                  93
3                  94                  95                  93
3                  96                  98                  97
3                  98                  99                  97
3                 100                 102                 101
3                 102                 103                 101
3                 104                 106                 105
3                 106                 107                 105
3                 108                 110                 109
3                 110                 111                 109
3                 112                 114                 113
3                 114                 115                 113
3                 116                 118                 117
3                 118                 119                 117
3                 120                 122                 121
3                 122                 123                 121
3                 124                 126                 125
3                 126                 127                 125
3                 128                 130                 129
3                 130                 131                 129
3                 132                 134                 133
3                 134                 135                 133
3                 136                 138                 137
3                 138                 139                 137
3                 140                 142                 141
3                 142                 143                 141
3                 144                 146                 145
3                 146                 147                 145
3                 148                 150                 149
3                 150                 151                 149
3                 152                 154                 153
3                 154                 155                 153
3                 156                 158                 157
3                 158                 159                 157
3                 160                 162                 161
3                 162                 163                 161
3                 164                 166                 165
3                 166                 167                 165
3                 168                 170                 169
3                 170                 171                 169
3                 172                 174                 173
3                 174                 175                 173
3                 176                 178                 177
3                 178                 179                 177
POINT_DATA                 180
SCALARS mu float 1
LOOKUP_TABLE default
  0.275581035122E-01
  0.000000000000E+00
  0.275581035122E-01
  0.000000000000E+00
  0.566903166075E-01
  0.445968930041E-01
  0.566903166075E-01
  0.445968930041E-01
  0.661037973388E-01
  0.566903166075E-01
  0.661037973388E-01
  0.566903166075E-01
  0.737870680385E-01
  0.661037973388E-01
  0.737870680385E-01
  0.661037973388E-01
  0.803354347816E-01
  0.737870680385E-01
  0.803354347816E-01
  0.737870680385E-01
  0.859630435970E-01
  0.803354347816E-01
  0.859630435970E-01
  0.803354347816E-01
  0.908865092178E-01
  0.859630435970E-01
  0.908865092178E-01
  0.859630435970E-01
  0.952648637082E-01
  0.908865092178E-01
  0.952648637082E-01
  0.908865092178E-01
  0.106125996388E+00
  0.102851196846E+00
  0.106125996388E+00
  0.102851196846E+00
  0.109166131387E+00
  0.106125996388E+00
  0.109166131387E+00
  0.106125996388E+00
  0.111843188178E+00
  0.109166131387E+00
  0.111843188178E+00
  0.109166131387E+00
  0.114527967794E+00
  0.111843188178E+00
  0.114527967794E+00
  0.111843188178E+00
  0.116746595184E+00
  0.114527967794E+00
  0.116746595184E+00
  0.114527967794E+00
  0.118901065532E+00
  0.116746595184E+00
  0.118901065532E+00
  0.116746595184E+00
  0.126145079713E+00
  0.124577949559E+00
  0.126145079713E+00
  0.124577949559E+00
  0.127550654819E+00
  0.126145079713E+00
  0.127550654819E+00
  0.126145079713E+00
  0.128802047439E+00
  0.127550654819E+00
  0.128802047439E+00
  0.127550654819E+00
  0.129958777717E+00
  0.128802047439E+00
  0.129958777717E+00
  0.128802047439E+00
  0.131078958664E+00
  0.129958777717E+00
  0.131078958664E+00
  0.129958777717E+00
  0.132161877417E+00
  0.131078958664E+00
  0.132161877417E+00
  0.131078958664E+00
  0.133139996505E+00
  0.132161877417E+00
  0.133139996505E+00
  0.132161877417E+00
  0.135451457743E+00
  0.134798276645E+00
  0.135451457743E+00
  0.134798276645E+00
  0.136166875881E+00
  0.135451457743E+00
  0.136166875881E+00
  0.135451457743E+00
  0.136758473641E+00
  0.136166875881E+00
  0.136758473641E+00
  0.136166875881E+00
  0.137111198081E+00
  0.136758473641E+00
  0.137111198081E+00
  0.136758473641E+00
  0.137563085745E+00
  0.137111198081E+00
  0.137563085745E+00
  0.137111198081E+00
  0.137857253690E+00
  0.137563085745E+00
  0.137857253690E+00
  0.137563085745E+00
  0.138640444035E+00
  0.138649364872E+00
  0.138640444035E+00
  0.138649364872E+00
  0.138811797525E+00
  0.138640444035E+00
  0.138811797525E+00
  0.138640444035E+00
  0.138730489394E+00
  0.138811797525E+00
  0.138730489394E+00
  0.138811797525E+00
  0.138682838038E+00
  0.138730489394E+00
  0.138682838038E+00
  0.138730489394E+00
  0.138654427290E+00
  0.138682838038E+00
  0.138654427290E+00
  0.138682838038E+00
  0.138595964347E+00
  0.138654427290E+00
  0.138595964347E+00
  0.138654427290E+00
  0.138649364872E+00
  0.138549211994E+00
  0.138649364872E+00
  0.138549211994E+00
  0.138549211994E+00
  0.138415897006E+00
  0.138549211994E+00
  0.138415897006E+00
  0.138415897006E+00
  0.138151997366E+00
  0.138415897006E+00
  0.138151997366E+00
  0.134798276645E+00
  0.133975165109E+00
  0.134798276645E+00
  0.133975165109E+00
  0.133975165109E+00
  0.133139996505E+00
  0.133975165109E+00
  0.133139996505E+00
  0.124577949559E+00
  0.122782501608E+00
  0.124577949559E+00
  0.122782501608E+00
  0.122782501608E+00
  0.120936906719E+00
  0.122782501608E+00
  0.120936906719E+00
  0.102851196846E+00
  0.991738758703E-01
  0.102851196846E+00
  0.991738758703E-01
  0.991738758703E-01
  0.952648637082E-01
  0.991738758703E-01
  0.952648637082E-01
  0.445968930041E-01
  0.275581035122E-01
  0.445968930041E-01
  0.275581035122E-01
  0.120936906719E+00
  0.118901065532E+00
  0.120936906719E+00
  0.118901065532E+00
  0.138151997366E+00
  0.137857253690E+00
  0.138151997366E+00
  0.137857253690E+00
