# vtk DataFile Version 3.0
MachLine results file. Generated by MachLine, USU AeroLab (c) 2022.
ASCII
DATASET POLYDATA
POINTS                 180 float
  0.113647460938E+01  0.116971552372E+01  0.000000000000E+00
  0.114398765564E+01  0.119630002975E+01  0.677626357803E-20
  0.149563891154E+04  0.116971552372E+01  0.106602919584E+03
  0.149563521206E+04  0.119630002975E+01  0.106602119795E+03
  0.111393535137E+01  0.108996224403E+01  0.000000000000E+00
  0.112144851685E+01  0.111654663086E+01  0.000000000000E+00
  0.149565001002E+04  0.108996224403E+01  0.106605318966E+03
  0.149564631049E+04  0.111654663086E+01  0.106604519163E+03
  0.112144851685E+01  0.111654663086E+01  0.000000000000E+00
  0.112896156311E+01  0.114313113689E+01  0.000000000000E+00
  0.149564631049E+04  0.111654663086E+01  0.106604519163E+03
  0.149564261101E+04  0.114313113689E+01  0.106603719374E+03
  0.110642230511E+01  0.106337773800E+01  0.000000000000E+00
  0.111393535137E+01  0.108996224403E+01  0.000000000000E+00
  0.149565370949E+04  0.106337773800E+01  0.106606118755E+03
  0.149565001002E+04  0.108996224403E+01  0.106605318966E+03
  0.109139621258E+01  0.101020884514E+01  0.000000000000E+00
  0.109890925884E+01  0.103679335117E+01  0.000000000000E+00
  0.149566110844E+04  0.101020884514E+01  0.106607718334E+03
  0.149565740897E+04  0.103679335117E+01  0.106606918545E+03
  0.108388316631E+01  0.983624458313E+00  0.000000000000E+00
  0.109139621258E+01  0.101020884514E+01  0.000000000000E+00
  0.149566480792E+04  0.983624458313E+00  0.106608518124E+03
  0.149566110844E+04  0.101020884514E+01  0.106607718334E+03
  0.109890925884E+01  0.103679335117E+01  0.000000000000E+00
  0.110642230511E+01  0.106337773800E+01  0.000000000000E+00
  0.149565740897E+04  0.103679335117E+01  0.106606918545E+03
  0.149565370949E+04  0.106337773800E+01  0.106606118755E+03
  0.107637012005E+01  0.957040011883E+00  0.000000000000E+00
  0.108388316631E+01  0.983624458313E+00  0.000000000000E+00
  0.149566850739E+04  0.957040011883E+00  0.106609317913E+03
  0.149566480792E+04  0.983624458313E+00  0.106608518124E+03
  0.103880476952E+01  0.824117779732E+00  0.000000000000E+00
  0.104631793499E+01  0.850702226162E+00  0.000000000000E+00
  0.149568700482E+04  0.824117779732E+00  0.106613316874E+03
  0.149568330529E+04  0.850702226162E+00  0.106612517072E+03
  0.105383098125E+01  0.877286672592E+00  0.000000000000E+00
  0.106134402752E+01  0.903871119022E+00  0.000000000000E+00
  0.149567960581E+04  0.877286672592E+00  0.106611717282E+03
  0.149567590634E+04  0.903871119022E+00  0.106610917492E+03
  0.104631793499E+01  0.850702226162E+00  0.000000000000E+00
  0.105383098125E+01  0.877286672592E+00  0.000000000000E+00
  0.149568330529E+04  0.850702226162E+00  0.106612517072E+03
  0.149567960581E+04  0.877286672592E+00  0.106611717282E+03
  0.103129172325E+01  0.797533333302E+00  0.000000000000E+00
  0.103880476952E+01  0.824117779732E+00  0.000000000000E+00
  0.149569070429E+04  0.797533333302E+00  0.106614116663E+03
  0.149568700482E+04  0.824117779732E+00  0.106613316874E+03
  0.101626563072E+01  0.744364440441E+00  0.000000000000E+00
  0.102377867699E+01  0.770948886871E+00  0.000000000000E+00
  0.149569810324E+04  0.744364440441E+00  0.106615716242E+03
  0.149569440377E+04  0.770948886871E+00  0.106614916453E+03
  0.100875258446E+01  0.717779994011E+00  0.000000000000E+00
  0.101626563072E+01  0.744364440441E+00  0.000000000000E+00
  0.149570180272E+04  0.717779994011E+00  0.106616516032E+03
  0.149569810324E+04  0.744364440441E+00  0.106615716242E+03
  0.986213386059E+00  0.638026654720E+00  0.000000000000E+00
  0.993726491928E+00  0.664611101151E+00  0.000000000000E+00
  0.149571290117E+04  0.638026654720E+00  0.106618915407E+03
  0.149570920166E+04  0.664611101151E+00  0.106618115611E+03
  0.978700339794E+00  0.611442208290E+00  0.000000000000E+00
  0.986213386059E+00  0.638026654720E+00  0.000000000000E+00
  0.149571660064E+04  0.611442208290E+00  0.106619715196E+03
  0.149571290117E+04  0.638026654720E+00  0.106618915407E+03
  0.971187293530E+00  0.584857761860E+00  0.000000000000E+00
  0.978700339794E+00  0.611442208290E+00  0.000000000000E+00
  0.149572030011E+04  0.584857761860E+00  0.106620514986E+03
  0.149571660064E+04  0.611442208290E+00  0.106619715196E+03
  0.963674247265E+00  0.558273315430E+00  0.000000000000E+00
  0.971187293530E+00  0.584857761860E+00  0.000000000000E+00
  0.149572399959E+04  0.558273315430E+00  0.106621314775E+03
  0.149572030011E+04  0.584857761860E+00  0.106620514986E+03
  0.956161201000E+00  0.531688868999E+00  0.000000000000E+00
  0.963674247265E+00  0.558273315430E+00  0.000000000000E+00
  0.149572769906E+04  0.531688868999E+00  0.106622114565E+03
  0.149572399959E+04  0.558273315430E+00  0.106621314775E+03
  0.948648095131E+00  0.505104422569E+00  0.000000000000E+00
  0.956161201000E+00  0.531688868999E+00  0.000000000000E+00
  0.149573139857E+04  0.505104422569E+00  0.106622914361E+03
  0.149572769906E+04  0.531688868999E+00  0.106622114565E+03
  0.941135048866E+00  0.478520005941E+00  0.000000000000E+00
  0.948648095131E+00  0.505104422569E+00  0.000000000000E+00
  0.149573509804E+04  0.478520005941E+00  0.106623714150E+03
  0.149573139857E+04  0.505104422569E+00  0.106622914361E+03
  0.918595850468E+00  0.398766666651E+00  0.000000000000E+00
  0.926108956337E+00  0.425351113081E+00  0.000000000000E+00
  0.149574619649E+04  0.398766666651E+00  0.106626113525E+03
  0.149574249699E+04  0.425351113081E+00  0.106625313729E+03
  0.911082804203E+00  0.372182220221E+00  0.000000000000E+00
  0.918595850468E+00  0.398766666651E+00  0.000000000000E+00
  0.149574989597E+04  0.372182220221E+00  0.106626913315E+03
  0.149574619649E+04  0.398766666651E+00  0.106626113525E+03
  0.903569757938E+00  0.345597773790E+00  0.000000000000E+00
  0.911082804203E+00  0.372182220221E+00  0.000000000000E+00
  0.149575359544E+04  0.345597773790E+00  0.106627713104E+03
  0.149574989597E+04  0.372182220221E+00  0.106626913315E+03
  0.896056711674E+00  0.319013327360E+00  0.000000000000E+00
  0.903569757938E+00  0.345597773790E+00  0.000000000000E+00
  0.149575729491E+04  0.319013327360E+00  0.106628512894E+03
  0.149575359544E+04  0.345597773790E+00  0.106627713104E+03
  0.888543665409E+00  0.292428880930E+00  0.000000000000E+00
  0.896056711674E+00  0.319013327360E+00  0.000000000000E+00
  0.149576099439E+04  0.292428880930E+00  0.106629312683E+03
  0.149575729491E+04  0.319013327360E+00  0.106628512894E+03
  0.881030559540E+00  0.265844434500E+00  0.000000000000E+00
  0.888543665409E+00  0.292428880930E+00  0.000000000000E+00
  0.149576469389E+04  0.265844434500E+00  0.106630112479E+03
  0.149576099439E+04  0.292428880930E+00  0.106629312683E+03
  0.873517513275E+00  0.239260002971E+00  0.000000000000E+00
  0.881030559540E+00  0.265844434500E+00  0.000000000000E+00
  0.149576839337E+04  0.239260002971E+00  0.106630912269E+03
  0.149576469389E+04  0.265844434500E+00  0.106630112479E+03
  0.843465268612E+00  0.132922217250E+00  0.000000000000E+00
  0.850978374481E+00  0.159506663680E+00  0.000000000000E+00
  0.149578319129E+04  0.132922217250E+00  0.106634111433E+03
  0.149577949179E+04  0.159506663680E+00  0.106633311637E+03
  0.835952222347E+00  0.106337778270E+00  0.000000000000E+00
  0.843465268612E+00  0.132922217250E+00  0.000000000000E+00
  0.149578689077E+04  0.106337778270E+00  0.106634911223E+03
  0.149578319129E+04  0.132922217250E+00  0.106634111433E+03
  0.828439176083E+00  0.797533318400E-01  0.000000000000E+00
  0.835952222347E+00  0.106337778270E+00  0.000000000000E+00
  0.149579059024E+04  0.797533318400E-01  0.106635711012E+03
  0.149578689077E+04  0.106337778270E+00  0.106634911223E+03
  0.820926129818E+00  0.531688891351E-01  0.000000000000E+00
  0.828439176083E+00  0.797533318400E-01  0.000000000000E+00
  0.149579428971E+04  0.531688891351E-01  0.106636510802E+03
  0.149579059024E+04  0.797533318400E-01  0.106635711012E+03
  0.813413083553E+00  0.265844445676E-01  0.000000000000E+00
  0.820926129818E+00  0.531688891351E-01  0.000000000000E+00
  0.149579798919E+04  0.265844445676E-01  0.106637310592E+03
  0.149579428971E+04  0.531688891351E-01  0.106636510802E+03
  0.805899977684E+00  0.000000000000E+00  0.000000000000E+00
  0.813413083553E+00  0.265844445676E-01  0.000000000000E+00
  0.149580168869E+04  0.000000000000E+00  0.106638110387E+03
  0.149579798919E+04  0.265844445676E-01  0.106637310592E+03
  0.102377867699E+01  0.770948886871E+00  0.000000000000E+00
  0.103129172325E+01  0.797533333302E+00  0.000000000000E+00
  0.149569440377E+04  0.770948886871E+00  0.106614916453E+03
  0.149569070429E+04  0.797533333302E+00  0.106614116663E+03
  0.850978374481E+00  0.159506663680E+00  0.000000000000E+00
  0.858491420746E+00  0.186091110110E+00  0.000000000000E+00
  0.149577949179E+04  0.159506663680E+00  0.106633311637E+03
  0.149577579231E+04  0.186091110110E+00  0.106632511848E+03
  0.858491420746E+00  0.186091110110E+00  0.000000000000E+00
  0.866004467010E+00  0.212675556540E+00  0.000000000000E+00
  0.149577579231E+04  0.186091110110E+00  0.106632511848E+03
  0.149577209284E+04  0.212675556540E+00  0.106631712058E+03
  0.926108956337E+00  0.425351113081E+00  0.000000000000E+00
  0.933622002602E+00  0.451935559511E+00  0.000000000000E+00
  0.149574249699E+04  0.425351113081E+00  0.106625313729E+03
  0.149573879751E+04  0.451935559511E+00  0.106624513940E+03
  0.866004467010E+00  0.212675556540E+00  0.000000000000E+00
  0.873517513275E+00  0.239260002971E+00  0.000000000000E+00
  0.149577209284E+04  0.212675556540E+00  0.106631712058E+03
  0.149576839337E+04  0.239260002971E+00  0.106630912269E+03
  0.933622002602E+00  0.451935559511E+00  0.000000000000E+00
  0.941135048866E+00  0.478520005941E+00  0.000000000000E+00
  0.149573879751E+04  0.451935559511E+00  0.106624513940E+03
  0.149573509804E+04  0.478520005941E+00  0.106623714150E+03
  0.993726491928E+00  0.664611101151E+00  0.000000000000E+00
  0.100123953819E+01  0.691195547581E+00  0.000000000000E+00
  0.149570920166E+04  0.664611101151E+00  0.106618115611E+03
  0.149570550219E+04  0.691195547581E+00  0.106617315821E+03
  0.100123953819E+01  0.691195547581E+00  0.000000000000E+00
  0.100875258446E+01  0.717779994011E+00  0.000000000000E+00
  0.149570550219E+04  0.691195547581E+00  0.106617315821E+03
  0.149570180272E+04  0.717779994011E+00  0.106616516032E+03
  0.106134402752E+01  0.903871119022E+00  0.000000000000E+00
  0.106885707378E+01  0.930455565453E+00  0.000000000000E+00
  0.149567590634E+04  0.903871119022E+00  0.106610917492E+03
  0.149567220686E+04  0.930455565453E+00  0.106610117703E+03
  0.106885707378E+01  0.930455565453E+00  0.000000000000E+00
  0.107637012005E+01  0.957040011883E+00  0.000000000000E+00
  0.149567220686E+04  0.930455565453E+00  0.106610117703E+03
  0.149566850739E+04  0.957040011883E+00  0.106609317913E+03
  0.112896156311E+01  0.114313113689E+01  0.000000000000E+00
  0.113647460938E+01  0.116971552372E+01  0.000000000000E+00
  0.149564261101E+04  0.114313113689E+01  0.106603719374E+03
  0.149563891154E+04  0.116971552372E+01  0.106602919584E+03
POLYGONS                  90                 360
3                   0                   2                   1
3                   2                   3                   1
3                   4                   6                   5
3                   6                   7                   5
3                   8                  10                   9
3                  10                  11                   9
3                  12                  14                  13
3                  14                  15                  13
3                  16                  18                  17
3                  18                  19                  17
3                  20                  22                  21
3                  22                  23                  21
3                  24                  26                  25
3                  26                  27                  25
3                  28                  30                  29
3                  30                  31                  29
3                  32                  34                  33
3                  34                  35                  33
3                  36                  38                  37
3                  38                  39                  37
3                  40                  42                  41
3                  42                  43                  41
3                  44                  46                  45
3                  46                  47                  45
3                  48                  50                  49
3                  50                  51                  49
3                  52                  54                  53
3                  54                  55                  53
3                  56                  58                  57
3                  58                  59                  57
3                  60                  62                  61
3                  62                  63                  61
3                  64                  66                  65
3                  66                  67                  65
3                  68                  70                  69
3                  70                  71                  69
3                  72                  74                  73
3                  74                  75                  73
3                  76                  78                  77
3                  78                  79                  77
3                  80                  82                  81
3                  82                  83                  81
3                  84                  86                  85
3                  86                  87                  85
3                  88                  90                  89
3                  90                  91                  89
3                  92                  94                  93
3                  94                  95                  93
3                  96                  98                  97
3                  98                  99                  97
3                 100                 102                 101
3                 102                 103                 101
3                 104                 106                 105
3                 106                 107                 105
3                 108                 110                 109
3                 110                 111                 109
3                 112                 114                 113
3                 114                 115                 113
3                 116                 118                 117
3                 118                 119                 117
3                 120                 122                 121
3                 122                 123                 121
3                 124                 126                 125
3                 126                 127                 125
3                 128                 130                 129
3                 130                 131                 129
3                 132                 134                 133
3                 134                 135                 133
3                 136                 138                 137
3                 138                 139                 137
3                 140                 142                 141
3                 142                 143                 141
3                 144                 146                 145
3                 146                 147                 145
3                 148                 150                 149
3                 150                 151                 149
3                 152                 154                 153
3                 154                 155                 153
3                 156                 158                 157
3                 158                 159                 157
3                 160                 162                 161
3                 162                 163                 161
3                 164                 166                 165
3                 166                 167                 165
3                 168                 170                 169
3                 170                 171                 169
3                 172                 174                 173
3                 174                 175                 173
3                 176                 178                 177
3                 178                 179                 177
POINT_DATA                 180
SCALARS mu float 1
LOOKUP_TABLE default
  0.222515487810E-01
  0.000000000000E+00
  0.222515487810E-01
  0.000000000000E+00
  0.533719913385E-01
  0.457532157746E-01
  0.533719913385E-01
  0.457532157746E-01
  0.457532157746E-01
  0.360058764984E-01
  0.457532157746E-01
  0.360058764984E-01
  0.595390276971E-01
  0.533719913385E-01
  0.595390276971E-01
  0.533719913385E-01
  0.693142849509E-01
  0.647921180547E-01
  0.693142849509E-01
  0.647921180547E-01
  0.733058777580E-01
  0.693142849509E-01
  0.733058777580E-01
  0.693142849509E-01
  0.647921180547E-01
  0.595390276971E-01
  0.647921180547E-01
  0.595390276971E-01
  0.768477358214E-01
  0.733058777580E-01
  0.768477358214E-01
  0.733058777580E-01
  0.901125212861E-01
  0.879858862103E-01
  0.901125212861E-01
  0.879858862103E-01
  0.855214370049E-01
  0.828981218497E-01
  0.855214370049E-01
  0.828981218497E-01
  0.879858862103E-01
  0.855214370049E-01
  0.879858862103E-01
  0.855214370049E-01
  0.922232593902E-01
  0.901125212861E-01
  0.922232593902E-01
  0.901125212861E-01
  0.957966557687E-01
  0.940715618698E-01
  0.957966557687E-01
  0.940715618698E-01
  0.973944164132E-01
  0.957966557687E-01
  0.973944164132E-01
  0.957966557687E-01
  0.101601818055E+00
  0.100302384725E+00
  0.101601818055E+00
  0.100302384725E+00
  0.102725873624E+00
  0.101601818055E+00
  0.102725873624E+00
  0.101601818055E+00
  0.103759005333E+00
  0.102725873624E+00
  0.103759005333E+00
  0.102725873624E+00
  0.104761268468E+00
  0.103759005333E+00
  0.104761268468E+00
  0.103759005333E+00
  0.105641123894E+00
  0.104761268468E+00
  0.105641123894E+00
  0.104761268468E+00
  0.106522747803E+00
  0.105641123894E+00
  0.106522747803E+00
  0.105641123894E+00
  0.107293716082E+00
  0.106522747803E+00
  0.107293716082E+00
  0.106522747803E+00
  0.109276250548E+00
  0.108758321098E+00
  0.109276250548E+00
  0.108758321098E+00
  0.109821176609E+00
  0.109276250548E+00
  0.109821176609E+00
  0.109276250548E+00
  0.110235398160E+00
  0.109821176609E+00
  0.110235398160E+00
  0.109821176609E+00
  0.110498707116E+00
  0.110235398160E+00
  0.110498707116E+00
  0.110235398160E+00
  0.110910894620E+00
  0.110498707116E+00
  0.110910894620E+00
  0.110498707116E+00
  0.111218382676E+00
  0.110910894620E+00
  0.111218382676E+00
  0.110910894620E+00
  0.111454117068E+00
  0.111218382676E+00
  0.111454117068E+00
  0.111218382676E+00
  0.111811627199E+00
  0.111800940482E+00
  0.111811627199E+00
  0.111800940482E+00
  0.111887247054E+00
  0.111811627199E+00
  0.111887247054E+00
  0.111811627199E+00
  0.111872402347E+00
  0.111887247054E+00
  0.111872402347E+00
  0.111887247054E+00
  0.111850079037E+00
  0.111872402347E+00
  0.111850079037E+00
  0.111872402347E+00
  0.111882506755E+00
  0.111850079037E+00
  0.111882506755E+00
  0.111850079037E+00
  0.111825801737E+00
  0.111882506755E+00
  0.111825801737E+00
  0.111882506755E+00
  0.940715618698E-01
  0.922232593902E-01
  0.940715618698E-01
  0.922232593902E-01
  0.111800940482E+00
  0.111682095312E+00
  0.111800940482E+00
  0.111682095312E+00
  0.111682095312E+00
  0.111587046179E+00
  0.111682095312E+00
  0.111587046179E+00
  0.108758321098E+00
  0.108042544048E+00
  0.108758321098E+00
  0.108042544048E+00
  0.111587046179E+00
  0.111454117068E+00
  0.111587046179E+00
  0.111454117068E+00
  0.108042544048E+00
  0.107293716082E+00
  0.108042544048E+00
  0.107293716082E+00
  0.100302384725E+00
  0.988733616323E-01
  0.100302384725E+00
  0.988733616323E-01
  0.988733616323E-01
  0.973944164132E-01
  0.988733616323E-01
  0.973944164132E-01
  0.828981218497E-01
  0.800067036691E-01
  0.828981218497E-01
  0.800067036691E-01
  0.800067036691E-01
  0.768477358214E-01
  0.800067036691E-01
  0.768477358214E-01
  0.360058764984E-01
  0.222515487810E-01
  0.360058764984E-01
  0.222515487810E-01
