# vtk DataFile Version 3.0
MachLine results file. Generated by MachLine, USU AeroLab (c) 2023.
ASCII
DATASET POLYDATA
POINTS                   6 float
  0.567036768980E+00  0.000000000000E+00  0.000000000000E+00
  0.283518384490E+00  0.000000000000E+00 -0.291561459230E-01
  0.283518384490E+00  0.176355406690E+01  0.000000000000E+00
  0.000000000000E+00  0.000000000000E+00  0.000000000000E+00
  0.283518384490E+00  0.000000000000E+00  0.291561459230E-01
  0.283518384490E+00 -0.176355406690E+01  0.000000000000E+00
POLYGONS                   8                  32
3                   0                   1                   2
3                   1                   3                   2
3                   3                   4                   2
3                   4                   0                   2
3                   0                   5                   1
3                   1                   5                   3
3                   3                   5                   4
3                   4                   5                   0
CELL_DATA                   8
NORMALS normals float
  0.102283551729E+00  0.164436508585E-01 -0.994619365080E+00
 -0.102283551729E+00  0.164436508585E-01 -0.994619365080E+00
 -0.102283551729E+00  0.164436508585E-01  0.994619365080E+00
  0.102283551729E+00  0.164436508585E-01  0.994619365080E+00
  0.102283551729E+00 -0.164436508585E-01 -0.994619365080E+00
 -0.102283551729E+00 -0.164436508585E-01 -0.994619365080E+00
 -0.102283551729E+00 -0.164436508585E-01  0.994619365080E+00
  0.102283551729E+00 -0.164436508585E-01  0.994619365080E+00
SCALARS inclination float 1
LOOKUP_TABLE default
  0.100000000000E+01
  0.100000000000E+01
  0.100000000000E+01
  0.100000000000E+01
  0.100000000000E+01
  0.100000000000E+01
  0.100000000000E+01
  0.100000000000E+01
SCALARS distribution_order float 1
LOOKUP_TABLE default
  0.100000000000E+01
  0.100000000000E+01
  0.100000000000E+01
  0.100000000000E+01
  0.100000000000E+01
  0.100000000000E+01
  0.100000000000E+01
  0.100000000000E+01
SCALARS N_discontinuous_edges float 1
LOOKUP_TABLE default
  0.200000000000E+01
  0.200000000000E+01
  0.200000000000E+01
  0.200000000000E+01
  0.200000000000E+01
  0.200000000000E+01
  0.200000000000E+01
  0.200000000000E+01
VECTORS centroid float
  0.378024512653E+00  0.587851355633E+00 -0.971871530767E-02
  0.189012256327E+00  0.587851355633E+00 -0.971871530767E-02
  0.189012256327E+00  0.587851355633E+00  0.971871530767E-02
  0.378024512653E+00  0.587851355633E+00  0.971871530767E-02
  0.378024512653E+00 -0.587851355633E+00 -0.971871530767E-02
  0.189012256327E+00 -0.587851355633E+00 -0.971871530767E-02
  0.189012256327E+00 -0.587851355633E+00  0.971871530767E-02
  0.378024512653E+00 -0.587851355633E+00  0.971871530767E-02
SCALARS C_p_inc float 1
LOOKUP_TABLE default
 -0.198033962579E+00
 -0.198033962587E+00
 -0.198033962587E+00
 -0.198033962579E+00
 -0.198033962579E+00
 -0.198033962587E+00
 -0.198033962587E+00
 -0.198033962579E+00
SCALARS sigma float 1
LOOKUP_TABLE default
  0.000000000000E+00
  0.000000000000E+00
  0.000000000000E+00
  0.000000000000E+00
  0.000000000000E+00
  0.000000000000E+00
  0.000000000000E+00
  0.000000000000E+00
VECTORS v float
  0.107493697469E+01 -0.121978199586E-01  0.205902103462E+00
  0.107493697469E+01  0.121978199586E-01 -0.205902103464E+00
  0.107493697469E+01  0.121978199586E-01  0.205902103464E+00
  0.107493697469E+01 -0.121978199586E-01 -0.205902103462E+00
  0.107493697469E+01  0.121978199586E-01  0.205902103462E+00
  0.107493697469E+01 -0.121978199586E-01 -0.205902103464E+00
  0.107493697469E+01 -0.121978199586E-01  0.205902103464E+00
  0.107493697469E+01  0.121978199586E-01 -0.205902103462E+00
VECTORS v_inner float
 -0.111302160892E+01 -0.847895307775E-02 -0.190392470425E-01
 -0.111302160895E+01  0.847895304657E-02  0.190392470431E-01
 -0.111302160895E+01  0.847895304657E-02 -0.190392470431E-01
 -0.111302160892E+01 -0.847895307775E-02  0.190392470425E-01
 -0.111302160892E+01  0.847895307775E-02 -0.190392470425E-01
 -0.111302160895E+01 -0.847895304657E-02  0.190392470431E-01
 -0.111302160895E+01 -0.847895304657E-02 -0.190392470431E-01
 -0.111302160892E+01  0.847895307775E-02  0.190392470425E-01
VECTORS dC_f float
  0.509129868346E-02  0.818504408106E-03 -0.495084906456E-01
 -0.509129868365E-02  0.818504408137E-03 -0.495084906475E-01
 -0.509129868365E-02  0.818504408137E-03  0.495084906475E-01
  0.509129868346E-02  0.818504408106E-03  0.495084906456E-01
  0.509129868346E-02 -0.818504408106E-03 -0.495084906456E-01
 -0.509129868365E-02 -0.818504408137E-03 -0.495084906475E-01
 -0.509129868365E-02 -0.818504408137E-03  0.495084906475E-01
  0.509129868346E-02 -0.818504408106E-03  0.495084906456E-01
POINT_DATA                   6
SCALARS mu float 1
LOOKUP_TABLE default
  0.626884905768E+00
 -0.274320321320E-10
 -0.356905550785E-14
 -0.626884905831E+00
 -0.274320814509E-10
  0.000000000000E+00
SCALARS Phi_u float 1
LOOKUP_TABLE default
  0.626884905768E+00
 -0.274320321320E-10
 -0.356905550785E-14
 -0.626884905831E+00
 -0.274320814509E-10
  0.000000000000E+00
VECTORS vertex_outward_normal_vectors float
  0.100000000000E+01  0.000000000000E+00  0.000000000000E+00
  0.000000000000E+00  0.000000000000E+00 -0.100000000000E+01
  0.000000000000E+00  0.100000000000E+01  0.000000000000E+00
 -0.100000000000E+01  0.000000000000E+00  0.000000000000E+00
  0.000000000000E+00  0.000000000000E+00  0.100000000000E+01
  0.000000000000E+00 -0.100000000000E+01  0.000000000000E+00
VECTORS CF_x_sensitivity_vectors float
  0.583436998013E-01  0.373777447365E-11  0.275281707152E-11
 -0.646354384727E-01  0.530291077782E-03  0.159464512822E-10
  0.629166627149E-02  0.927156313531E-11 -0.875961410112E-05
  0.583436997910E-01 -0.998656151344E-11 -0.113763074482E-10
 -0.646354384742E-01 -0.530291075569E-03 -0.117204709711E-10
  0.629166625609E-02 -0.918835301483E-11  0.875960779507E-05
VECTORS CF_y_sensitivity_vectors float
  0.646810232071E-14 -0.300286863355E-03  0.107107563665E-15
  0.565732846847E-14  0.289517519864E-03 -0.764554129768E-15
  0.178423236040E-12  0.107693434140E-04 -0.334480538216E-16
  0.691990612614E-14 -0.300286863200E-03  0.130201021320E-15
  0.564660869945E-14  0.289517519864E-03  0.151124489237E-14
 -0.202530932869E-12  0.107693434139E-04 -0.260327811237E-15
VECTORS CF_z_sensitivity_vectors float
 -0.241683916625E-14  0.281367236983E-15  0.255712995968E+01
  0.461816310743E-10 -0.158094332059E-15 -0.255471079141E+01
  0.442279155256E-15  0.974030143048E-16 -0.241916829213E-02
  0.248684222972E-15 -0.146399112727E-15  0.255712995971E+01
 -0.461774023053E-10  0.325512461436E-14 -0.255471079141E+01
 -0.377773970253E-15 -0.588634716051E-15 -0.241916829213E-02
SCALARS convex float 1
LOOKUP_TABLE default
  0.100000000000E+01
  0.100000000000E+01
  0.100000000000E+01
  0.100000000000E+01
  0.100000000000E+01
  0.100000000000E+01
