# vtk DataFile Version 3.0
MachLine results file. Generated by MachLine, USU AeroLab (c) 2023.
ASCII
DATASET POLYDATA
POINTS                  22 float
  0.400000000000E+01  0.000000000000E+00  0.000000000000E+00
  0.112857142860E+01  0.207874015750E+01 -0.200000000000E+00
  0.400000000000E+01  0.207874015750E+01  0.000000000000E+00
  0.112857142860E+01  0.000000000000E+00 -0.200000000000E+00
  0.000000000000E+00  0.000000000000E+00  0.000000000000E+00
  0.000000000000E+00  0.207874015750E+01  0.000000000000E+00
  0.112857142860E+01  0.207874015750E+01  0.200000000000E+00
  0.112857142860E+01  0.000000000000E+00  0.200000000000E+00
  0.112857142860E+01  0.415748031500E+01 -0.200000000000E+00
  0.400000000000E+01  0.415748031500E+01  0.000000000000E+00
  0.000000000000E+00  0.415748031500E+01  0.000000000000E+00
  0.112857142860E+01  0.415748031500E+01  0.200000000000E+00
  0.112857142860E+01  0.435748031500E+01  0.000000000000E+00
  0.400000000000E+01 -0.207874015750E+01  0.000000000000E+00
  0.112857142860E+01 -0.207874015750E+01 -0.200000000000E+00
  0.000000000000E+00 -0.207874015750E+01  0.000000000000E+00
  0.112857142860E+01 -0.207874015750E+01  0.200000000000E+00
  0.400000000000E+01 -0.415748031500E+01  0.000000000000E+00
  0.112857142860E+01 -0.415748031500E+01 -0.200000000000E+00
  0.000000000000E+00 -0.415748031500E+01  0.000000000000E+00
  0.112857142860E+01 -0.415748031500E+01  0.200000000000E+00
  0.112857142860E+01 -0.435748031500E+01  0.000000000000E+00
POLYGONS                  40                 160
3                   0                   1                   2
3                   0                   3                   1
3                   3                   4                   1
3                   1                   4                   5
3                   4                   6                   5
3                   4                   7                   6
3                   7                   0                   6
3                   6                   0                   2
3                   2                   8                   9
3                   2                   1                   8
3                   1                   5                   8
3                   8                   5                  10
3                   5                  11                  10
3                   5                   6                  11
3                   6                   2                  11
3                  11                   2                   9
3                   9                   8                  12
3                   8                  10                  12
3                  10                  11                  12
3                  11                   9                  12
3                   0                  13                  14
3                   0                  14                   3
3                   3                  14                   4
3                  14                  15                   4
3                   4                  15                  16
3                   4                  16                   7
3                   7                  16                   0
3                  16                  13                   0
3                  13                  17                  18
3                  13                  18                  14
3                  14                  18                  15
3                  18                  19                  15
3                  15                  19                  20
3                  15                  20                  16
3                  16                  20                  13
3                  20                  17                  13
3                  17                  21                  18
3                  18                  21                  19
3                  19                  21                  20
3                  20                  21                  17
CELL_DATA                  40
NORMALS normals float
  0.694834005468E-01  0.000000000000E+00 -0.997583107840E+00
  0.694834005468E-01  0.000000000000E+00 -0.997583107840E+00
 -0.174496323481E+00  0.000000000000E+00 -0.984657825385E+00
 -0.174496323481E+00  0.000000000000E+00 -0.984657825385E+00
 -0.174496323481E+00  0.000000000000E+00  0.984657825385E+00
 -0.174496323481E+00  0.000000000000E+00  0.984657825385E+00
  0.694834005468E-01  0.000000000000E+00  0.997583107840E+00
  0.694834005468E-01 -0.000000000000E+00  0.997583107840E+00
  0.694834005468E-01  0.000000000000E+00 -0.997583107840E+00
  0.694834005468E-01  0.000000000000E+00 -0.997583107840E+00
 -0.174496323481E+00  0.000000000000E+00 -0.984657825385E+00
 -0.174496323481E+00  0.000000000000E+00 -0.984657825385E+00
 -0.174496323481E+00  0.000000000000E+00  0.984657825385E+00
 -0.174496323481E+00  0.000000000000E+00  0.984657825385E+00
  0.694834005468E-01  0.000000000000E+00  0.997583107840E+00
  0.694834005468E-01 -0.000000000000E+00  0.997583107840E+00
  0.491915931327E-01  0.706250729970E+00 -0.706250729970E+00
 -0.124337652024E+00  0.701619607868E+00 -0.701619607868E+00
 -0.124337652024E+00  0.701619607868E+00  0.701619607868E+00
  0.491915931327E-01  0.706250729970E+00  0.706250729970E+00
  0.694834005468E-01  0.000000000000E+00 -0.997583107840E+00
  0.694834005468E-01  0.000000000000E+00 -0.997583107840E+00
 -0.174496323481E+00 -0.000000000000E+00 -0.984657825385E+00
 -0.174496323481E+00  0.000000000000E+00 -0.984657825385E+00
 -0.174496323481E+00  0.000000000000E+00  0.984657825385E+00
 -0.174496323481E+00  0.000000000000E+00  0.984657825385E+00
  0.694834005468E-01  0.000000000000E+00  0.997583107840E+00
  0.694834005468E-01 -0.000000000000E+00  0.997583107840E+00
  0.694834005468E-01  0.000000000000E+00 -0.997583107840E+00
  0.694834005468E-01  0.000000000000E+00 -0.997583107840E+00
 -0.174496323481E+00 -0.000000000000E+00 -0.984657825385E+00
 -0.174496323481E+00  0.000000000000E+00 -0.984657825385E+00
 -0.174496323481E+00  0.000000000000E+00  0.984657825385E+00
 -0.174496323481E+00  0.000000000000E+00  0.984657825385E+00
  0.694834005468E-01  0.000000000000E+00  0.997583107840E+00
  0.694834005468E-01 -0.000000000000E+00  0.997583107840E+00
  0.491915931327E-01 -0.706250729970E+00 -0.706250729970E+00
 -0.124337652024E+00 -0.701619607868E+00 -0.701619607868E+00
 -0.124337652024E+00 -0.701619607868E+00  0.701619607868E+00
  0.491915931327E-01 -0.706250729970E+00  0.706250729970E+00
SCALARS inclination float 1
LOOKUP_TABLE default
  0.100000000000E+01
  0.100000000000E+01
  0.100000000000E+01
  0.100000000000E+01
  0.100000000000E+01
  0.100000000000E+01
  0.100000000000E+01
  0.100000000000E+01
  0.100000000000E+01
  0.100000000000E+01
  0.100000000000E+01
  0.100000000000E+01
  0.100000000000E+01
  0.100000000000E+01
  0.100000000000E+01
  0.100000000000E+01
  0.100000000000E+01
  0.100000000000E+01
  0.100000000000E+01
  0.100000000000E+01
  0.100000000000E+01
  0.100000000000E+01
  0.100000000000E+01
  0.100000000000E+01
  0.100000000000E+01
  0.100000000000E+01
  0.100000000000E+01
  0.100000000000E+01
  0.100000000000E+01
  0.100000000000E+01
  0.100000000000E+01
  0.100000000000E+01
  0.100000000000E+01
  0.100000000000E+01
  0.100000000000E+01
  0.100000000000E+01
  0.100000000000E+01
  0.100000000000E+01
  0.100000000000E+01
  0.100000000000E+01
SCALARS distribution_order float 1
LOOKUP_TABLE default
  0.100000000000E+01
  0.100000000000E+01
  0.100000000000E+01
  0.100000000000E+01
  0.100000000000E+01
  0.100000000000E+01
  0.100000000000E+01
  0.100000000000E+01
  0.100000000000E+01
  0.100000000000E+01
  0.100000000000E+01
  0.100000000000E+01
  0.100000000000E+01
  0.100000000000E+01
  0.100000000000E+01
  0.100000000000E+01
  0.100000000000E+01
  0.100000000000E+01
  0.100000000000E+01
  0.100000000000E+01
  0.100000000000E+01
  0.100000000000E+01
  0.100000000000E+01
  0.100000000000E+01
  0.100000000000E+01
  0.100000000000E+01
  0.100000000000E+01
  0.100000000000E+01
  0.100000000000E+01
  0.100000000000E+01
  0.100000000000E+01
  0.100000000000E+01
  0.100000000000E+01
  0.100000000000E+01
  0.100000000000E+01
  0.100000000000E+01
  0.100000000000E+01
  0.100000000000E+01
  0.100000000000E+01
  0.100000000000E+01
SCALARS N_discontinuous_edges float 1
LOOKUP_TABLE default
  0.100000000000E+01
  0.100000000000E+01
  0.100000000000E+01
  0.100000000000E+01
  0.100000000000E+01
  0.100000000000E+01
  0.100000000000E+01
  0.100000000000E+01
  0.200000000000E+01
  0.100000000000E+01
  0.100000000000E+01
  0.200000000000E+01
  0.200000000000E+01
  0.100000000000E+01
  0.100000000000E+01
  0.200000000000E+01
  0.300000000000E+01
  0.300000000000E+01
  0.300000000000E+01
  0.300000000000E+01
  0.100000000000E+01
  0.100000000000E+01
  0.100000000000E+01
  0.100000000000E+01
  0.100000000000E+01
  0.100000000000E+01
  0.100000000000E+01
  0.100000000000E+01
  0.200000000000E+01
  0.100000000000E+01
  0.100000000000E+01
  0.200000000000E+01
  0.200000000000E+01
  0.100000000000E+01
  0.100000000000E+01
  0.200000000000E+01
  0.300000000000E+01
  0.300000000000E+01
  0.300000000000E+01
  0.300000000000E+01
VECTORS centroid float
  0.304285714287E+01  0.138582677167E+01 -0.666666666667E-01
  0.208571428573E+01  0.692913385833E+00 -0.133333333333E+00
  0.752380952400E+00  0.692913385833E+00 -0.133333333333E+00
  0.376190476200E+00  0.138582677167E+01 -0.666666666667E-01
  0.376190476200E+00  0.138582677167E+01  0.666666666667E-01
  0.752380952400E+00  0.692913385833E+00  0.133333333333E+00
  0.208571428573E+01  0.692913385833E+00  0.133333333333E+00
  0.304285714287E+01  0.138582677167E+01  0.666666666667E-01
  0.304285714287E+01  0.346456692917E+01 -0.666666666667E-01
  0.208571428573E+01  0.277165354333E+01 -0.133333333333E+00
  0.752380952400E+00  0.277165354333E+01 -0.133333333333E+00
  0.376190476200E+00  0.346456692917E+01 -0.666666666667E-01
  0.376190476200E+00  0.346456692917E+01  0.666666666667E-01
  0.752380952400E+00  0.277165354333E+01  0.133333333333E+00
  0.208571428573E+01  0.277165354333E+01  0.133333333333E+00
  0.304285714287E+01  0.346456692917E+01  0.666666666667E-01
  0.208571428573E+01  0.422414698167E+01 -0.666666666667E-01
  0.752380952400E+00  0.422414698167E+01 -0.666666666667E-01
  0.752380952400E+00  0.422414698167E+01  0.666666666667E-01
  0.208571428573E+01  0.422414698167E+01  0.666666666667E-01
  0.304285714287E+01 -0.138582677167E+01 -0.666666666667E-01
  0.208571428573E+01 -0.692913385833E+00 -0.133333333333E+00
  0.752380952400E+00 -0.692913385833E+00 -0.133333333333E+00
  0.376190476200E+00 -0.138582677167E+01 -0.666666666667E-01
  0.376190476200E+00 -0.138582677167E+01  0.666666666667E-01
  0.752380952400E+00 -0.692913385833E+00  0.133333333333E+00
  0.208571428573E+01 -0.692913385833E+00  0.133333333333E+00
  0.304285714287E+01 -0.138582677167E+01  0.666666666667E-01
  0.304285714287E+01 -0.346456692917E+01 -0.666666666667E-01
  0.208571428573E+01 -0.277165354333E+01 -0.133333333333E+00
  0.752380952400E+00 -0.277165354333E+01 -0.133333333333E+00
  0.376190476200E+00 -0.346456692917E+01 -0.666666666667E-01
  0.376190476200E+00 -0.346456692917E+01  0.666666666667E-01
  0.752380952400E+00 -0.277165354333E+01  0.133333333333E+00
  0.208571428573E+01 -0.277165354333E+01  0.133333333333E+00
  0.304285714287E+01 -0.346456692917E+01  0.666666666667E-01
  0.208571428573E+01 -0.422414698167E+01 -0.666666666667E-01
  0.752380952400E+00 -0.422414698167E+01 -0.666666666667E-01
  0.752380952400E+00 -0.422414698167E+01  0.666666666667E-01
  0.208571428573E+01 -0.422414698167E+01  0.666666666667E-01
SCALARS C_p_inc float 1
LOOKUP_TABLE default
 -0.544138990924E-01
 -0.130188344369E+00
 -0.245006684838E+00
 -0.238911919271E-01
 -0.238911919176E-01
 -0.245006684838E+00
 -0.130188344369E+00
 -0.544138990966E-01
 -0.293147887963E-01
 -0.149121639834E+00
 -0.192663386018E+00
 -0.599728464952E-01
 -0.599728464892E-01
 -0.192663386009E+00
 -0.149121639838E+00
 -0.293147887987E-01
 -0.103436429833E+00
 -0.187346089522E+00
 -0.187346089521E+00
 -0.103436429833E+00
 -0.544138990912E-01
 -0.130188344371E+00
 -0.245006684839E+00
 -0.238911919142E-01
 -0.238911919237E-01
 -0.245006684839E+00
 -0.130188344371E+00
 -0.544138990871E-01
 -0.293147887705E-01
 -0.149121639848E+00
 -0.192663386026E+00
 -0.599728464326E-01
 -0.599728464385E-01
 -0.192663386035E+00
 -0.149121639844E+00
 -0.293147887681E-01
 -0.103436429788E+00
 -0.187346089463E+00
 -0.187346089463E+00
 -0.103436429788E+00
SCALARS sigma float 1
LOOKUP_TABLE default
  0.000000000000E+00
  0.000000000000E+00
  0.000000000000E+00
  0.000000000000E+00
  0.000000000000E+00
  0.000000000000E+00
  0.000000000000E+00
  0.000000000000E+00
  0.000000000000E+00
  0.000000000000E+00
  0.000000000000E+00
  0.000000000000E+00
  0.000000000000E+00
  0.000000000000E+00
  0.000000000000E+00
  0.000000000000E+00
  0.000000000000E+00
  0.000000000000E+00
  0.000000000000E+00
  0.000000000000E+00
  0.000000000000E+00
  0.000000000000E+00
  0.000000000000E+00
  0.000000000000E+00
  0.000000000000E+00
  0.000000000000E+00
  0.000000000000E+00
  0.000000000000E+00
  0.000000000000E+00
  0.000000000000E+00
  0.000000000000E+00
  0.000000000000E+00
  0.000000000000E+00
  0.000000000000E+00
  0.000000000000E+00
  0.000000000000E+00
  0.000000000000E+00
  0.000000000000E+00
  0.000000000000E+00
  0.000000000000E+00
VECTORS v float
  0.102218199563E+01  0.238184137900E-01  0.948185111571E-01
  0.106076472914E+01 -0.411174709998E-02  0.703535877624E-01
  0.109946319763E+01  0.495013351386E-02 -0.190165344011E+00
  0.989138747803E+00  0.170873145800E-02 -0.213290435224E+00
  0.989138747798E+00  0.170873145789E-02  0.213290435225E+00
  0.109946319763E+01  0.495013351117E-02  0.190165344013E+00
  0.106076472914E+01 -0.411174710282E-02 -0.703535877607E-01
  0.102218199564E+01  0.238184137900E-01 -0.948185111556E-01
  0.100939343019E+01 -0.160587885692E-01  0.100904941371E+00
  0.106820032040E+01 -0.151222618962E-01  0.885496049021E-01
  0.107468471567E+01  0.136843748422E-01 -0.193723735773E+00
  0.100007579879E+01  0.169972504645E-01 -0.243992493023E+00
  0.100007579878E+01  0.169972504646E-01  0.243992493023E+00
  0.107468471567E+01  0.136843748434E-01  0.193723735775E+00
  0.106820032040E+01 -0.151222618950E-01 -0.885496049001E-01
  0.100939343019E+01 -0.160587885691E-01 -0.100904941371E+00
  0.103922330570E+01 -0.133654131789E+00  0.747524164937E-01
  0.105947659340E+01  0.224899110767E+00 -0.119481494538E+00
  0.105947659340E+01  0.224899110774E+00  0.119481494535E+00
  0.103922330570E+01 -0.133654131781E+00 -0.747524164975E-01
  0.102218199563E+01 -0.238184137876E-01  0.948185111534E-01
  0.106076472914E+01  0.411174710000E-02  0.703535877614E-01
  0.109946319764E+01 -0.495013351169E-02 -0.190165344013E+00
  0.989138747797E+00 -0.170873145968E-02 -0.213290435223E+00
  0.989138747802E+00 -0.170873145979E-02  0.213290435222E+00
  0.109946319764E+01 -0.495013351438E-02  0.190165344011E+00
  0.106076472914E+01  0.411174709717E-02 -0.703535877630E-01
  0.102218199563E+01 -0.238184137877E-01 -0.948185111549E-01
  0.100939343018E+01  0.160587885891E-01  0.100904941354E+00
  0.106820032041E+01  0.151222618808E-01  0.885496049014E-01
  0.107468471568E+01 -0.136843748390E-01 -0.193723735776E+00
  0.100007579876E+01 -0.169972504800E-01 -0.243992492988E+00
  0.100007579877E+01 -0.169972504799E-01  0.243992492988E+00
  0.107468471568E+01 -0.136843748378E-01  0.193723735774E+00
  0.106820032040E+01  0.151222618820E-01 -0.885496049033E-01
  0.100939343018E+01  0.160587885891E-01 -0.100904941355E+00
  0.103922330570E+01  0.133654131692E+00  0.747524164520E-01
  0.105947659339E+01 -0.224899110705E+00 -0.119481494501E+00
  0.105947659339E+01 -0.224899110698E+00  0.119481494504E+00
  0.103922330570E+01  0.133654131700E+00 -0.747524164483E-01
VECTORS v_inner float
 -0.426126651439E+00 -0.345626255192E+00 -0.605870804309E-02
 -0.162042144085E+00 -0.605526227910E-01 -0.148170402245E-01
 -0.212726965328E+00 -0.514907421772E-01  0.423746848629E-01
 -0.336983852426E+00 -0.469305156966E-01  0.217186331650E-01
 -0.336983852425E+00 -0.469305156967E-01 -0.217186331626E-01
 -0.212726965328E+00 -0.514907421767E-01 -0.423746848607E-01
 -0.162042144085E+00 -0.605526227907E-01  0.148170402261E-01
 -0.426126651439E+00 -0.345626255192E+00  0.605870804476E-02
 -0.531533355488E+00 -0.180857884868E+00 -0.642329245847E-02
 -0.380108326674E+00 -0.513643707410E-01 -0.123276142981E-01
 -0.251437884556E+00 -0.225577340025E-01  0.412853326160E-01
 -0.555722120312E+00  0.109364478778E+00  0.317185306075E-01
 -0.555722120312E+00  0.109364478778E+00 -0.317185306070E-01
 -0.251437884555E+00 -0.225577340028E-01 -0.412853326128E-01
 -0.380108326675E+00 -0.513643707412E-01  0.123276143003E-01
 -0.531533355488E+00 -0.180857884868E+00  0.642329245902E-02
 -0.504506289885E+00 -0.932185689206E-01  0.766452494165E-02
 -0.522698819599E+00  0.713801883144E-01  0.738509923010E-02
 -0.522698819599E+00  0.713801883125E-01 -0.738509922417E-02
 -0.504506289885E+00 -0.932185689225E-01 -0.766452493606E-02
 -0.426126651404E+00  0.345626255161E+00 -0.605870804431E-02
 -0.162042144084E+00  0.605526228062E-01 -0.148170402255E-01
 -0.212726965328E+00  0.514907421945E-01  0.423746848605E-01
 -0.336983852410E+00  0.469305157222E-01  0.217186331620E-01
 -0.336983852411E+00  0.469305157221E-01 -0.217186331643E-01
 -0.212726965327E+00  0.514907421950E-01 -0.423746848626E-01
 -0.162042144084E+00  0.605526228065E-01  0.148170402239E-01
 -0.426126651404E+00  0.345626255161E+00  0.605870804265E-02
 -0.531533355226E+00  0.180857884589E+00 -0.642329245623E-02
 -0.380108326632E+00  0.513643707575E-01 -0.123276142963E-01
 -0.251437884531E+00  0.225577340378E-01  0.412853326091E-01
 -0.555722120077E+00 -0.109364478629E+00  0.317185305972E-01
 -0.555722120077E+00 -0.109364478629E+00 -0.317185305977E-01
 -0.251437884532E+00  0.225577340375E-01 -0.412853326122E-01
 -0.380108326632E+00  0.513643707573E-01  0.123276142942E-01
 -0.531533355226E+00  0.180857884589E+00  0.642329245571E-02
 -0.504506289617E+00  0.932185688396E-01  0.766452490375E-02
 -0.522698819349E+00 -0.713801882704E-01  0.738509923872E-02
 -0.522698819349E+00 -0.713801882722E-01 -0.738509924450E-02
 -0.504506289617E+00  0.932185688379E-01 -0.766452490920E-02
VECTORS dC_f float
  0.113112357170E-01  0.000000000000E+00 -0.162397027078E+00
  0.270627739478E-01  0.000000000000E+00 -0.388544111676E+00
 -0.509305234628E-01  0.000000000000E+00 -0.287393668119E+00
 -0.496635800694E-02  0.000000000000E+00 -0.280244487542E-01
 -0.496635800497E-02  0.000000000000E+00  0.280244487430E-01
 -0.509305234628E-01  0.000000000000E+00  0.287393668119E+00
  0.270627739478E-01  0.000000000000E+00  0.388544111676E+00
  0.113112357178E-01 -0.000000000000E+00  0.162397027090E+00
  0.609378286795E-02  0.000000000000E+00 -0.874893111747E-01
  0.309985141076E-01  0.000000000000E+00 -0.445050095398E+00
 -0.400497117395E-01  0.000000000000E+00 -0.225994801965E+00
 -0.124667964369E-01  0.000000000000E+00 -0.703483513244E-01
 -0.124667964357E-01  0.000000000000E+00  0.703483513174E-01
 -0.400497117377E-01  0.000000000000E+00  0.225994801954E+00
  0.309985141084E-01  0.000000000000E+00  0.445050095409E+00
  0.609378286845E-02 -0.000000000000E+00  0.874893111819E-01
  0.206872859666E-02  0.297010319946E-01 -0.297010319946E-01
 -0.374692179043E-02  0.211433443894E-01 -0.211433443894E-01
 -0.374692179042E-02  0.211433443894E-01  0.211433443894E-01
  0.206872859666E-02  0.297010319946E-01  0.297010319946E-01
  0.113112357167E-01  0.000000000000E+00 -0.162397027074E+00
  0.270627739482E-01  0.000000000000E+00 -0.388544111681E+00
 -0.509305234631E-01 -0.000000000000E+00 -0.287393668121E+00
 -0.496635800426E-02  0.000000000000E+00 -0.280244487390E-01
 -0.496635800623E-02  0.000000000000E+00  0.280244487501E-01
 -0.509305234631E-01  0.000000000000E+00  0.287393668121E+00
  0.270627739482E-01  0.000000000000E+00  0.388544111682E+00
  0.113112357158E-01 -0.000000000000E+00  0.162397027062E+00
  0.609378286258E-02  0.000000000000E+00 -0.874893110977E-01
  0.309985141104E-01  0.000000000000E+00 -0.445050095438E+00
 -0.400497117412E-01 -0.000000000000E+00 -0.225994801974E+00
 -0.124667964239E-01  0.000000000000E+00 -0.703483512510E-01
 -0.124667964251E-01  0.000000000000E+00  0.703483512578E-01
 -0.400497117430E-01  0.000000000000E+00  0.225994801984E+00
  0.309985141096E-01  0.000000000000E+00  0.445050095426E+00
  0.609378286209E-02 -0.000000000000E+00  0.874893110906E-01
  0.206872859576E-02 -0.297010319816E-01 -0.297010319816E-01
 -0.374692178925E-02 -0.211433443827E-01 -0.211433443827E-01
 -0.374692178926E-02 -0.211433443828E-01  0.211433443828E-01
  0.206872859576E-02 -0.297010319817E-01  0.297010319817E-01
POINT_DATA                  22
SCALARS mu float 1
LOOKUP_TABLE default
  0.333024241098E+01
 -0.806683928851E-01
  0.409822188037E+01
 -0.197994307709E+00
 -0.172540264029E+01
 -0.162429428400E+01
 -0.806683928918E-01
 -0.197994307709E+00
 -0.533046583701E-02
  0.444079637976E+01
 -0.181630175073E+01
 -0.533046584077E-02
 -0.100232940082E-09
  0.409822188030E+01
 -0.806683928537E-01
 -0.162429428395E+01
 -0.806683928470E-01
  0.444079637907E+01
 -0.533046573910E-02
 -0.181630175034E+01
 -0.533046573544E-02
  0.000000000000E+00
SCALARS Phi_u float 1
LOOKUP_TABLE default
  0.333024241098E+01
 -0.806683928851E-01
  0.409822188037E+01
 -0.197994307709E+00
 -0.172540264029E+01
 -0.162429428400E+01
 -0.806683928918E-01
 -0.197994307709E+00
 -0.533046583701E-02
  0.444079637976E+01
 -0.181630175073E+01
 -0.533046584077E-02
 -0.100232940082E-09
  0.409822188030E+01
 -0.806683928537E-01
 -0.162429428395E+01
 -0.806683928470E-01
  0.444079637907E+01
 -0.533046573910E-02
 -0.181630175034E+01
 -0.533046573544E-02
  0.000000000000E+00
VECTORS vertex_outward_normal_vectors float
  0.100000000000E+01  0.000000000000E+00  0.000000000000E+00
 -0.529026863917E-01  0.000000000000E+00 -0.998599672428E+00
  0.100000000000E+01  0.000000000000E+00  0.000000000000E+00
 -0.529026863917E-01  0.000000000000E+00 -0.998599672428E+00
 -0.100000000000E+01  0.000000000000E+00  0.000000000000E+00
 -0.100000000000E+01  0.000000000000E+00  0.000000000000E+00
 -0.529026863917E-01  0.000000000000E+00  0.998599672428E+00
 -0.529026863917E-01  0.000000000000E+00  0.998599672428E+00
 -0.480978204807E-01  0.372266320082E+00 -0.926878841380E+00
  0.854038432244E+00  0.520209915563E+00  0.000000000000E+00
 -0.869004800195E+00  0.494803655240E+00  0.000000000000E+00
 -0.480978204807E-01  0.372266320082E+00  0.926878841380E+00
 -0.502129080353E-01  0.998738536288E+00  0.000000000000E+00
  0.100000000000E+01  0.000000000000E+00  0.000000000000E+00
 -0.529026863917E-01  0.000000000000E+00 -0.998599672428E+00
 -0.100000000000E+01  0.000000000000E+00  0.000000000000E+00
 -0.529026863917E-01  0.000000000000E+00  0.998599672428E+00
  0.854038432244E+00 -0.520209915563E+00  0.000000000000E+00
 -0.480978204807E-01 -0.372266320082E+00 -0.926878841380E+00
 -0.869004800195E+00 -0.494803655240E+00  0.000000000000E+00
 -0.480978204807E-01 -0.372266320082E+00  0.926878841380E+00
 -0.502129080353E-01 -0.998738536288E+00  0.000000000000E+00
VECTORS CF_x_sensitivity_vectors float
 -0.247041837380E-01  0.240516662366E-03  0.308637394001E-10
 -0.994395693934E-01 -0.161064535409E-01 -0.398667509040E-01
  0.157894934559E-01  0.112750814708E-02 -0.449725964751E-03
 -0.745383341701E-01 -0.394924336754E-02 -0.146706459957E-01
  0.117490038157E+00 -0.127761868916E-03 -0.696868138520E-10
  0.107448813317E+00  0.935109001415E-02 -0.176173992042E-02
 -0.106711925505E+00 -0.792300037813E-02  0.219560297126E-01
 -0.745383340008E-01  0.394938604229E-02  0.146706459793E-01
 -0.721064692699E-01  0.142074141684E-01  0.868439665896E-02
  0.107501762818E+00  0.431542019537E-02  0.207019477905E-01
  0.167725248451E+00 -0.575173096097E-01  0.305315362158E-01
 -0.766248900134E-01  0.520937307762E-02 -0.623481474939E-01
 -0.155239388258E-01  0.212197313699E-01  0.120383536781E-01
  0.157337213303E-01 -0.896501515060E-03  0.449725355263E-03
 -0.106711925416E+00  0.805445175786E-02 -0.219560298175E-01
  0.107486122181E+00 -0.946569908058E-02  0.176174011481E-02
 -0.994395692909E-01  0.159768129401E-01  0.398667507258E-01
  0.107541869847E+00 -0.431542035055E-02 -0.207019476126E-01
 -0.766248899146E-01 -0.509319791456E-02  0.623481475274E-01
  0.167694596180E+00  0.575173097460E-01 -0.305315361819E-01
 -0.721064691460E-01 -0.143113906750E-01 -0.868439645866E-02
 -0.155239387321E-01 -0.212197312910E-01 -0.120383540213E-01
VECTORS CF_y_sensitivity_vectors float
 -0.309941908916E-02  0.188455382410E-02 -0.122242853257E-02
  0.844792986652E-03  0.391647091944E-03 -0.790209429085E-01
 -0.303876953091E-01 -0.414500305797E-03  0.439838810259E-02
 -0.637741377486E-02 -0.153166091511E-03 -0.841466688132E-02
  0.104424644545E-01 -0.412129312013E-04  0.335431230357E-03
  0.142725396182E-01  0.268980291871E-03 -0.133195164961E-02
  0.816432783871E-04 -0.540288745347E-03  0.770249119168E-01
 -0.707387983420E-02  0.854504804335E-04  0.841740441474E-02
 -0.137549930940E-02 -0.412698581267E-02  0.213111008142E+00
  0.590515724137E-01  0.312738462267E-01 -0.204987925425E-02
 -0.378389637622E-01  0.733625173510E-01  0.239979178833E-02
  0.130640055410E-02 -0.122847833988E-01 -0.222941062367E+00
  0.151859033947E-01 -0.889351509158E-01  0.811917725214E-02
  0.326821528748E-01 -0.138885747871E-02  0.420689613701E-02
 -0.149454919685E-01  0.261312681302E-03  0.919150439314E-01
 -0.331896322736E-02 -0.191988409762E-03 -0.114731527510E-02
 -0.147261647042E-01  0.950346250278E-03 -0.913878302728E-01
 -0.361370435834E-01  0.273371280841E-01 -0.515755436860E-02
 -0.157430570372E-01 -0.154990425112E-01 -0.217668117343E+00
  0.705832999719E-01  0.937250456093E-01 -0.682874819269E-03
 -0.124467976766E-01 -0.929607468396E-02  0.215503467558E+00
 -0.209962124881E-01 -0.966343668402E-01  0.560116482027E-02
VECTORS CF_z_sensitivity_vectors float
  0.456927110555E-12  0.764970984028E-02  0.785418862862E+00
 -0.520970415286E+00 -0.309493712740E+00 -0.200178003341E+01
  0.494443303364E-02  0.107880845294E-01  0.132857294550E+01
 -0.101747392424E+00  0.497119929353E-02 -0.178890552564E+01
 -0.413325646381E-10 -0.173722084178E-01  0.264549643745E+01
  0.321502579649E-02 -0.261628061630E-01  0.272117675156E+01
  0.521236405452E+00  0.324650162017E+00 -0.200411578926E+01
  0.101747392395E+00  0.497142418539E-02 -0.178890552565E+01
 -0.243799694846E+00 -0.252667358745E+00 -0.115836398544E+01
  0.768372400403E-02  0.282568684199E-05  0.776313521710E+00
  0.764893006414E-02  0.298449463024E-05  0.161542676732E+01
  0.243822721750E+00  0.252714749048E+00 -0.115893194069E+01
  0.854290639777E-07  0.552590769202E-04 -0.448241350081E-01
 -0.494443308628E-02  0.107888527013E-01  0.132857294555E+01
 -0.521236405424E+00  0.324650267755E+00 -0.200411578926E+01
 -0.321502583607E-02 -0.261624847698E-01  0.272117675158E+01
  0.520970415245E+00 -0.309493818496E+00 -0.200178003339E+01
 -0.768372400638E-02  0.282569036228E-05  0.776313521527E+00
 -0.243822721655E+00  0.252714748686E+00 -0.115893194054E+01
 -0.764893006312E-02  0.298449036970E-05  0.161542676709E+01
  0.243799694708E+00 -0.252667358386E+00 -0.115836398526E+01
 -0.854307340321E-07  0.552590742485E-04 -0.448241349926E-01
SCALARS convex float 1
LOOKUP_TABLE default
  0.100000000000E+01
  0.100000000000E+01
  0.100000000000E+01
  0.100000000000E+01
  0.100000000000E+01
  0.100000000000E+01
  0.100000000000E+01
  0.100000000000E+01
  0.100000000000E+01
  0.100000000000E+01
  0.100000000000E+01
  0.100000000000E+01
  0.100000000000E+01
  0.100000000000E+01
  0.100000000000E+01
  0.100000000000E+01
  0.100000000000E+01
  0.100000000000E+01
  0.100000000000E+01
  0.100000000000E+01
  0.100000000000E+01
  0.100000000000E+01
