# vtk DataFile Version 3.0
MachLine results file. Generated by MachLine, USU AeroLab (c) 2023.
ASCII
DATASET POLYDATA
POINTS                  22 float
  0.400000000000E+01  0.000000000000E+00  0.000000000000E+00
  0.112857142860E+01  0.207874015750E+01 -0.200000000000E+00
  0.400000000000E+01  0.207874015750E+01  0.000000000000E+00
  0.112857142860E+01  0.000000000000E+00 -0.200000000000E+00
  0.000000000000E+00  0.000000000000E+00  0.000000000000E+00
  0.000000000000E+00  0.207874015750E+01  0.000000000000E+00
  0.112857142860E+01  0.207874015750E+01  0.200000000000E+00
  0.112857142860E+01  0.000000000000E+00  0.200000000000E+00
  0.112857142860E+01  0.415748031500E+01 -0.200000000000E+00
  0.400000000000E+01  0.415748031500E+01  0.000000000000E+00
  0.000000000000E+00  0.415748031500E+01  0.000000000000E+00
  0.112857142860E+01  0.415748031500E+01  0.200000000000E+00
  0.112857142860E+01  0.435748031500E+01  0.000000000000E+00
  0.400000000000E+01 -0.207874015750E+01  0.000000000000E+00
  0.112857142860E+01 -0.207874015750E+01 -0.200000000000E+00
  0.000000000000E+00 -0.207874015750E+01  0.000000000000E+00
  0.112857142860E+01 -0.207874015750E+01  0.200000000000E+00
  0.400000000000E+01 -0.415748031500E+01  0.000000000000E+00
  0.112857142860E+01 -0.415748031500E+01 -0.200000000000E+00
  0.000000000000E+00 -0.415748031500E+01  0.000000000000E+00
  0.112857142860E+01 -0.415748031500E+01  0.200000000000E+00
  0.112857142860E+01 -0.435748031500E+01  0.000000000000E+00
POLYGONS                  40                 160
3                   0                   1                   2
3                   0                   3                   1
3                   3                   4                   1
3                   1                   4                   5
3                   4                   6                   5
3                   4                   7                   6
3                   7                   0                   6
3                   6                   0                   2
3                   2                   8                   9
3                   2                   1                   8
3                   1                   5                   8
3                   8                   5                  10
3                   5                  11                  10
3                   5                   6                  11
3                   6                   2                  11
3                  11                   2                   9
3                   9                   8                  12
3                   8                  10                  12
3                  10                  11                  12
3                  11                   9                  12
3                   0                  13                  14
3                   0                  14                   3
3                   3                  14                   4
3                  14                  15                   4
3                   4                  15                  16
3                   4                  16                   7
3                   7                  16                   0
3                  16                  13                   0
3                  13                  17                  18
3                  13                  18                  14
3                  14                  18                  15
3                  18                  19                  15
3                  15                  19                  20
3                  15                  20                  16
3                  16                  20                  13
3                  20                  17                  13
3                  17                  21                  18
3                  18                  21                  19
3                  19                  21                  20
3                  20                  21                  17
CELL_DATA                  40
NORMALS normals float
  0.694834005468E-01  0.000000000000E+00 -0.997583107840E+00
  0.694834005468E-01  0.000000000000E+00 -0.997583107840E+00
 -0.174496323481E+00  0.000000000000E+00 -0.984657825385E+00
 -0.174496323481E+00  0.000000000000E+00 -0.984657825385E+00
 -0.174496323481E+00  0.000000000000E+00  0.984657825385E+00
 -0.174496323481E+00  0.000000000000E+00  0.984657825385E+00
  0.694834005468E-01  0.000000000000E+00  0.997583107840E+00
  0.694834005468E-01 -0.000000000000E+00  0.997583107840E+00
  0.694834005468E-01  0.000000000000E+00 -0.997583107840E+00
  0.694834005468E-01  0.000000000000E+00 -0.997583107840E+00
 -0.174496323481E+00  0.000000000000E+00 -0.984657825385E+00
 -0.174496323481E+00  0.000000000000E+00 -0.984657825385E+00
 -0.174496323481E+00  0.000000000000E+00  0.984657825385E+00
 -0.174496323481E+00  0.000000000000E+00  0.984657825385E+00
  0.694834005468E-01  0.000000000000E+00  0.997583107840E+00
  0.694834005468E-01 -0.000000000000E+00  0.997583107840E+00
  0.491915931327E-01  0.706250729970E+00 -0.706250729970E+00
 -0.124337652024E+00  0.701619607868E+00 -0.701619607868E+00
 -0.124337652024E+00  0.701619607868E+00  0.701619607868E+00
  0.491915931327E-01  0.706250729970E+00  0.706250729970E+00
  0.694834005468E-01  0.000000000000E+00 -0.997583107840E+00
  0.694834005468E-01  0.000000000000E+00 -0.997583107840E+00
 -0.174496323481E+00 -0.000000000000E+00 -0.984657825385E+00
 -0.174496323481E+00  0.000000000000E+00 -0.984657825385E+00
 -0.174496323481E+00  0.000000000000E+00  0.984657825385E+00
 -0.174496323481E+00  0.000000000000E+00  0.984657825385E+00
  0.694834005468E-01  0.000000000000E+00  0.997583107840E+00
  0.694834005468E-01 -0.000000000000E+00  0.997583107840E+00
  0.694834005468E-01  0.000000000000E+00 -0.997583107840E+00
  0.694834005468E-01  0.000000000000E+00 -0.997583107840E+00
 -0.174496323481E+00 -0.000000000000E+00 -0.984657825385E+00
 -0.174496323481E+00  0.000000000000E+00 -0.984657825385E+00
 -0.174496323481E+00  0.000000000000E+00  0.984657825385E+00
 -0.174496323481E+00  0.000000000000E+00  0.984657825385E+00
  0.694834005468E-01  0.000000000000E+00  0.997583107840E+00
  0.694834005468E-01 -0.000000000000E+00  0.997583107840E+00
  0.491915931327E-01 -0.706250729970E+00 -0.706250729970E+00
 -0.124337652024E+00 -0.701619607868E+00 -0.701619607868E+00
 -0.124337652024E+00 -0.701619607868E+00  0.701619607868E+00
  0.491915931327E-01 -0.706250729970E+00  0.706250729970E+00
SCALARS inclination float 1
LOOKUP_TABLE default
  0.100000000000E+01
  0.100000000000E+01
  0.100000000000E+01
  0.100000000000E+01
  0.100000000000E+01
  0.100000000000E+01
  0.100000000000E+01
  0.100000000000E+01
  0.100000000000E+01
  0.100000000000E+01
  0.100000000000E+01
  0.100000000000E+01
  0.100000000000E+01
  0.100000000000E+01
  0.100000000000E+01
  0.100000000000E+01
  0.100000000000E+01
  0.100000000000E+01
  0.100000000000E+01
  0.100000000000E+01
  0.100000000000E+01
  0.100000000000E+01
  0.100000000000E+01
  0.100000000000E+01
  0.100000000000E+01
  0.100000000000E+01
  0.100000000000E+01
  0.100000000000E+01
  0.100000000000E+01
  0.100000000000E+01
  0.100000000000E+01
  0.100000000000E+01
  0.100000000000E+01
  0.100000000000E+01
  0.100000000000E+01
  0.100000000000E+01
  0.100000000000E+01
  0.100000000000E+01
  0.100000000000E+01
  0.100000000000E+01
SCALARS distribution_order float 1
LOOKUP_TABLE default
  0.100000000000E+01
  0.100000000000E+01
  0.100000000000E+01
  0.100000000000E+01
  0.100000000000E+01
  0.100000000000E+01
  0.100000000000E+01
  0.100000000000E+01
  0.100000000000E+01
  0.100000000000E+01
  0.100000000000E+01
  0.100000000000E+01
  0.100000000000E+01
  0.100000000000E+01
  0.100000000000E+01
  0.100000000000E+01
  0.100000000000E+01
  0.100000000000E+01
  0.100000000000E+01
  0.100000000000E+01
  0.100000000000E+01
  0.100000000000E+01
  0.100000000000E+01
  0.100000000000E+01
  0.100000000000E+01
  0.100000000000E+01
  0.100000000000E+01
  0.100000000000E+01
  0.100000000000E+01
  0.100000000000E+01
  0.100000000000E+01
  0.100000000000E+01
  0.100000000000E+01
  0.100000000000E+01
  0.100000000000E+01
  0.100000000000E+01
  0.100000000000E+01
  0.100000000000E+01
  0.100000000000E+01
  0.100000000000E+01
SCALARS N_discontinuous_edges float 1
LOOKUP_TABLE default
  0.100000000000E+01
  0.100000000000E+01
  0.100000000000E+01
  0.100000000000E+01
  0.100000000000E+01
  0.100000000000E+01
  0.100000000000E+01
  0.100000000000E+01
  0.200000000000E+01
  0.100000000000E+01
  0.100000000000E+01
  0.200000000000E+01
  0.200000000000E+01
  0.100000000000E+01
  0.100000000000E+01
  0.200000000000E+01
  0.300000000000E+01
  0.300000000000E+01
  0.300000000000E+01
  0.300000000000E+01
  0.100000000000E+01
  0.100000000000E+01
  0.100000000000E+01
  0.100000000000E+01
  0.100000000000E+01
  0.100000000000E+01
  0.100000000000E+01
  0.100000000000E+01
  0.200000000000E+01
  0.100000000000E+01
  0.100000000000E+01
  0.200000000000E+01
  0.200000000000E+01
  0.100000000000E+01
  0.100000000000E+01
  0.200000000000E+01
  0.300000000000E+01
  0.300000000000E+01
  0.300000000000E+01
  0.300000000000E+01
VECTORS centroid float
  0.304285714287E+01  0.138582677167E+01 -0.666666666667E-01
  0.208571428573E+01  0.692913385833E+00 -0.133333333333E+00
  0.752380952400E+00  0.692913385833E+00 -0.133333333333E+00
  0.376190476200E+00  0.138582677167E+01 -0.666666666667E-01
  0.376190476200E+00  0.138582677167E+01  0.666666666667E-01
  0.752380952400E+00  0.692913385833E+00  0.133333333333E+00
  0.208571428573E+01  0.692913385833E+00  0.133333333333E+00
  0.304285714287E+01  0.138582677167E+01  0.666666666667E-01
  0.304285714287E+01  0.346456692917E+01 -0.666666666667E-01
  0.208571428573E+01  0.277165354333E+01 -0.133333333333E+00
  0.752380952400E+00  0.277165354333E+01 -0.133333333333E+00
  0.376190476200E+00  0.346456692917E+01 -0.666666666667E-01
  0.376190476200E+00  0.346456692917E+01  0.666666666667E-01
  0.752380952400E+00  0.277165354333E+01  0.133333333333E+00
  0.208571428573E+01  0.277165354333E+01  0.133333333333E+00
  0.304285714287E+01  0.346456692917E+01  0.666666666667E-01
  0.208571428573E+01  0.422414698167E+01 -0.666666666667E-01
  0.752380952400E+00  0.422414698167E+01 -0.666666666667E-01
  0.752380952400E+00  0.422414698167E+01  0.666666666667E-01
  0.208571428573E+01  0.422414698167E+01  0.666666666667E-01
  0.304285714287E+01 -0.138582677167E+01 -0.666666666667E-01
  0.208571428573E+01 -0.692913385833E+00 -0.133333333333E+00
  0.752380952400E+00 -0.692913385833E+00 -0.133333333333E+00
  0.376190476200E+00 -0.138582677167E+01 -0.666666666667E-01
  0.376190476200E+00 -0.138582677167E+01  0.666666666667E-01
  0.752380952400E+00 -0.692913385833E+00  0.133333333333E+00
  0.208571428573E+01 -0.692913385833E+00  0.133333333333E+00
  0.304285714287E+01 -0.138582677167E+01  0.666666666667E-01
  0.304285714287E+01 -0.346456692917E+01 -0.666666666667E-01
  0.208571428573E+01 -0.277165354333E+01 -0.133333333333E+00
  0.752380952400E+00 -0.277165354333E+01 -0.133333333333E+00
  0.376190476200E+00 -0.346456692917E+01 -0.666666666667E-01
  0.376190476200E+00 -0.346456692917E+01  0.666666666667E-01
  0.752380952400E+00 -0.277165354333E+01  0.133333333333E+00
  0.208571428573E+01 -0.277165354333E+01  0.133333333333E+00
  0.304285714287E+01 -0.346456692917E+01  0.666666666667E-01
  0.208571428573E+01 -0.422414698167E+01 -0.666666666667E-01
  0.752380952400E+00 -0.422414698167E+01 -0.666666666667E-01
  0.752380952400E+00 -0.422414698167E+01  0.666666666667E-01
  0.208571428573E+01 -0.422414698167E+01  0.666666666667E-01
SCALARS C_p_inc float 1
LOOKUP_TABLE default
 -0.935380749989E-01
 -0.154475057986E+00
 -0.165137205428E+00
  0.538413162731E-01
 -0.103542767187E+00
 -0.314141672418E+00
 -0.949704630957E-01
 -0.247291678828E-01
 -0.587046680848E-01
 -0.171527295680E+00
 -0.120814944503E+00
  0.590533459134E-04
 -0.128528172987E+00
 -0.259919168060E+00
 -0.106631682377E+00
 -0.362181529874E-02
 -0.113496254526E+00
 -0.215114061187E+00
 -0.243318249582E+00
 -0.592849173219E-01
 -0.815586035289E-01
 -0.156947452461E+00
 -0.163109394855E+00
  0.556341239937E-01
 -0.101599304320E+00
 -0.312987001133E+00
 -0.981800468293E-01
 -0.133834964326E-01
 -0.556868489013E-01
 -0.181067004796E+00
 -0.114727686791E+00
  0.895412955214E-02
 -0.120701297696E+00
 -0.257912941272E+00
 -0.120592001907E+00
 -0.483990325676E-02
 -0.112099512533E+00
 -0.100678346676E+00
 -0.172425637682E+00
 -0.109522594136E+00
SCALARS sigma float 1
LOOKUP_TABLE default
  0.000000000000E+00
  0.000000000000E+00
  0.000000000000E+00
  0.000000000000E+00
  0.000000000000E+00
  0.000000000000E+00
  0.000000000000E+00
  0.000000000000E+00
  0.000000000000E+00
  0.000000000000E+00
  0.000000000000E+00
  0.000000000000E+00
  0.000000000000E+00
  0.000000000000E+00
  0.000000000000E+00
  0.000000000000E+00
  0.000000000000E+00
  0.000000000000E+00
  0.000000000000E+00
  0.000000000000E+00
  0.000000000000E+00
  0.000000000000E+00
  0.000000000000E+00
  0.000000000000E+00
  0.000000000000E+00
  0.000000000000E+00
  0.000000000000E+00
  0.000000000000E+00
  0.000000000000E+00
  0.000000000000E+00
  0.000000000000E+00
  0.000000000000E+00
  0.000000000000E+00
  0.000000000000E+00
  0.000000000000E+00
  0.000000000000E+00
  0.000000000000E+00
  0.000000000000E+00
  0.000000000000E+00
  0.000000000000E+00
VECTORS v float
  0.103068162823E+03  0.125654397922E+02  0.193171400600E+02
  0.106862421513E+03  0.970803361176E+01  0.161809314695E+02
  0.108030748745E+03  0.106645913781E+02 -0.100011655224E+02
  0.970419347068E+02  0.102447758511E+02 -0.113457503115E+02
  0.100836013512E+03  0.102210928736E+02  0.313650101980E+02
  0.111846135915E+03  0.104517539408E+02  0.280258412751E+02
  0.105233780790E+03  0.948428920058E+01  0.214437929759E+01
  0.101463502966E+03  0.125438198217E+02  0.218317406992E+00
  0.101426465970E+03  0.938032666518E+01  0.205783645352E+02
  0.107400340965E+03  0.892566826463E+01  0.183051255817E+02
  0.105767217654E+03  0.120597097785E+02 -0.100085715079E+02
  0.992542265711E+02  0.121716215038E+02 -0.141367532911E+02
  0.100881224853E+03  0.120951002893E+02  0.344626520388E+02
  0.109081207810E+03  0.109293637187E+02  0.288619927505E+02
  0.105959360305E+03  0.773788744024E+01  0.618241068552E+00
  0.100745062927E+03  0.932710363072E+01 -0.616400585423E+00
  0.103638450074E+03 -0.722245431647E+01  0.237606737288E+02
  0.106721814275E+03  0.315640413051E+02  0.288601428215E+01
  0.107482149379E+03  0.275784175444E+02  0.192058479756E+02
  0.103319265754E+03 -0.112875353435E+02 -0.155789172377E+01
  0.102972896173E+03  0.778013704287E+01  0.191820196369E+02
  0.106919165026E+03  0.103066386273E+02  0.162150968352E+02
  0.108046503611E+03  0.946172723739E+01 -0.100072275174E+02
  0.969917360484E+02  0.987934658608E+01 -0.112930768448E+02
  0.100785814866E+03  0.990302956341E+01  0.313123367278E+02
  0.111861890782E+03  0.967456466834E+01  0.280319032649E+02
  0.105290524303E+03  0.105303830318E+02  0.211021392788E+01
  0.101368236311E+03  0.780175701329E+01  0.353437826224E+00
  0.101133623111E+03  0.125388613433E+02  0.195645876914E+02
  0.107680703779E+03  0.107623398201E+02  0.183281620500E+02
  0.105855735314E+03  0.819248874714E+01 -0.988275440462E+01
  0.991339349038E+02  0.869565019587E+01 -0.143358465649E+02
  0.100760933188E+03  0.877217141058E+01  0.346617453142E+02
  0.109169725480E+03  0.932283481198E+01  0.287361756440E+02
  0.106239723114E+03  0.119501206498E+02  0.595204596835E+00
  0.100452220067E+03  0.125920843779E+02  0.397376258928E+00
  0.104525395386E+03  0.154432910285E+02  0.133925915912E+02
  0.104413169304E+03 -0.174014046023E+02 -0.469045091955E+01
  0.105173504409E+03 -0.134157808359E+02  0.267823131808E+02
  0.104206211065E+03  0.195083720614E+02  0.881019041751E+01
VECTORS v_inner float
 -0.437352682171E+02 -0.386488563254E+02  0.909202546006E+01
 -0.163498777650E+02 -0.876100465860E+01  0.759898027589E+01
 -0.208789877307E+02 -0.780444689230E+01  0.128435979030E+02
 -0.336889773247E+02 -0.720447421434E+01  0.118217530859E+02
 -0.340556213357E+02 -0.722815719190E+01  0.746016351664E+01
 -0.216821601375E+02 -0.776091336832E+01  0.436259893730E+01
 -0.161152944275E+02 -0.872837810852E+01  0.105965536909E+02
 -0.436614049907E+02 -0.386704762960E+02  0.103265199514E+02
 -0.609496598988E+02 -0.286411108323E+02  0.926858462380E+01
 -0.394030900751E+02 -0.748036253334E+01  0.808001098176E+01
 -0.249636943770E+02 -0.434632101946E+01  0.131589318895E+02
 -0.548584525050E+02  0.885848016376E+01  0.131743543925E+02
 -0.549683038587E+02  0.878195894929E+01  0.684374821715E+01
 -0.258104270376E+02 -0.411939140575E+01  0.495714606922E+01
 -0.391655476523E+02 -0.731086768418E+01  0.107264436129E+02
 -0.609303812729E+02 -0.286943338668E+02  0.106445756276E+02
 -0.585708587142E+02 -0.962909007376E+01  0.100558771603E+02
 -0.511789488245E+02  0.951711828559E+01  0.882150497581E+01
 -0.513004642579E+02  0.105076511260E+02  0.813792337052E+01
 -0.585388544408E+02 -0.865210629304E+01  0.708037913998E+01
 -0.415639253163E+02  0.304547750144E+02  0.911477833908E+01
 -0.162931342516E+02  0.338214649712E+01  0.763314564164E+01
 -0.208632328640E+02  0.253723510721E+01  0.128375359081E+02
 -0.333411491262E+02  0.215794596878E+01  0.118038901476E+02
 -0.337077931388E+02  0.218162894610E+01  0.747802644915E+01
 -0.216664052699E+02  0.249370158448E+01  0.436866092711E+01
 -0.160585509143E+02  0.334951994795E+01  0.105623883212E+02
 -0.414900620895E+02  0.304763949848E+02  0.103037670682E+02
 -0.453762898594E+02  0.747724316340E+01  0.935991713617E+01
 -0.368561177100E+02  0.296200651856E+01  0.826092075214E+01
 -0.244771498610E+02  0.392155445581E+00  0.132142125878E+02
 -0.561761202040E+02 -0.130909367659E+02  0.131874543396E+02
 -0.562859715577E+02 -0.130144155511E+02  0.683064827130E+01
 -0.253238825245E+02  0.165225830688E+00  0.490186536527E+01
 -0.366185752863E+02  0.279251166847E+01  0.105455338388E+02
 -0.453570112336E+02  0.753046619800E+01  0.105532431158E+02
 -0.423624035710E+02  0.999160751911E+01  0.861328412838E+01
 -0.532392996616E+02 -0.376838651512E+01  0.961494321432E+01
 -0.533608150952E+02 -0.475891935684E+01  0.734448512820E+01
 -0.423303992975E+02  0.901462373705E+01  0.852297216831E+01
VECTORS dC_f float
  0.194441352755E-01  0.000000000000E+00 -0.279162227882E+00
  0.321113506368E-01  0.000000000000E+00 -0.461027248424E+00
 -0.343277340421E-01  0.000000000000E+00 -0.193706499242E+00
  0.111922106269E-01 -0.000000000000E+00  0.631560456822E-01
 -0.215238508171E-01  0.000000000000E+00  0.121456015328E+00
 -0.653018909600E-01  0.000000000000E+00  0.368489241855E+00
  0.197418915413E-01  0.000000000000E+00  0.283437157127E+00
  0.514055143396E-02 -0.000000000000E+00  0.738036313012E-01
  0.122031750981E-01  0.000000000000E+00 -0.175202728192E+00
  0.356560677637E-01  0.000000000000E+00 -0.511919258603E+00
 -0.251142876765E-01  0.000000000000E+00 -0.141716337607E+00
  0.122756561585E-04 -0.000000000000E+00  0.692697740389E-04
 -0.267176674557E-01  0.000000000000E+00  0.150763980647E+00
 -0.540304412349E-01  0.000000000000E+00  0.304886061262E+00
  0.221659560219E-01  0.000000000000E+00  0.318239797169E+00
  0.752881290455E-03 -0.000000000000E+00  0.108092242414E-01
  0.226992509051E-02  0.325896387992E-01 -0.325896387992E-01
 -0.430228122374E-02  0.242771583346E-01 -0.242771583346E-01
 -0.486636499164E-02  0.274602024535E-01  0.274602024535E-01
  0.118569834644E-02  0.170232405451E-01  0.170232405451E-01
  0.169539144345E-01  0.000000000000E+00 -0.243409771522E+00
  0.326252972049E-01  0.000000000000E+00 -0.468406052723E+00
 -0.339062049151E-01 -0.000000000000E+00 -0.191327870597E+00
  0.115648887673E-01 -0.000000000000E+00  0.652590151886E-01
 -0.211198553864E-01  0.000000000000E+00  0.119176326826E+00
 -0.650618648030E-01  0.000000000000E+00  0.367134808541E+00
  0.204090806009E-01  0.000000000000E+00  0.293016085768E+00
  0.278208114822E-02 -0.000000000000E+00  0.399427364848E-01
  0.115758489056E-01  0.000000000000E+00 -0.166196116429E+00
  0.376391254067E-01  0.000000000000E+00 -0.540390300476E+00
 -0.238489049710E-01 -0.000000000000E+00 -0.134575963769E+00
  0.186133086755E-02 -0.000000000000E+00  0.105032241814E-01
 -0.250906634583E-01  0.000000000000E+00  0.141583029519E+00
 -0.536133988160E-01  0.000000000000E+00  0.302532750470E+00
  0.250679437038E-01  0.000000000000E+00  0.359904048886E+00
  0.100609012583E-02 -0.000000000000E+00  0.144445796635E-01
  0.224199025066E-02 -0.321885743127E-01 -0.321885743127E-01
 -0.201356693353E-02 -0.113622705538E-01 -0.113622705538E-01
 -0.344851275364E-02 -0.194594648246E-01  0.194594648246E-01
  0.219045188273E-02 -0.314486306017E-01  0.314486306017E-01
POINT_DATA                  22
SCALARS mu float 1
LOOKUP_TABLE default
  0.382449704453E+01
  0.684547342582E+00
  0.487862013896E+01
  0.304406615315E+00
 -0.118133747863E+01
 -0.822186638556E+00
  0.732501589641E+00
  0.357637641936E+00
  0.102222602340E+01
  0.566119997286E+01
 -0.753993593522E+00
  0.104224401552E+01
  0.105413141366E+01
  0.429119992547E+01
  0.161882601028E+00
 -0.134026393724E+01
  0.209836848243E+00
  0.418701869049E+01
  0.133150298110E-02
 -0.178868842426E+01
  0.213494951273E-01
  0.000000000000E+00
SCALARS Phi_u float 1
LOOKUP_TABLE default
  0.386255267880E+03
  0.691358926695E+02
  0.492716481858E+03
  0.307435611465E+02
 -0.119309236993E+03
 -0.830367801636E+02
  0.739790342194E+02
  0.361196313087E+02
  0.103239767714E+03
  0.571753170830E+03
 -0.761496202126E+02
  0.105261485817E+03
  0.106462054180E+03
  0.433389948388E+03
  0.163493412852E+02
 -0.135360022528E+03
  0.211924828508E+02
  0.422868159416E+03
  0.134475209330E+00
 -0.180648675740E+03
  0.215619331470E+01
  0.000000000000E+00
VECTORS vertex_outward_normal_vectors float
  0.100000000000E+01  0.000000000000E+00  0.000000000000E+00
 -0.529026863917E-01  0.000000000000E+00 -0.998599672428E+00
  0.100000000000E+01  0.000000000000E+00  0.000000000000E+00
 -0.529026863917E-01  0.000000000000E+00 -0.998599672428E+00
 -0.100000000000E+01  0.000000000000E+00  0.000000000000E+00
 -0.100000000000E+01  0.000000000000E+00  0.000000000000E+00
 -0.529026863917E-01  0.000000000000E+00  0.998599672428E+00
 -0.529026863917E-01  0.000000000000E+00  0.998599672428E+00
 -0.480978204807E-01  0.372266320082E+00 -0.926878841380E+00
  0.854038432244E+00  0.520209915563E+00  0.000000000000E+00
 -0.869004800195E+00  0.494803655240E+00  0.000000000000E+00
 -0.480978204807E-01  0.372266320082E+00  0.926878841380E+00
 -0.502129080353E-01  0.998738536288E+00  0.000000000000E+00
  0.100000000000E+01  0.000000000000E+00  0.000000000000E+00
 -0.529026863917E-01  0.000000000000E+00 -0.998599672428E+00
 -0.100000000000E+01  0.000000000000E+00  0.000000000000E+00
 -0.529026863917E-01  0.000000000000E+00  0.998599672428E+00
  0.854038432244E+00 -0.520209915563E+00  0.000000000000E+00
 -0.480978204807E-01 -0.372266320082E+00 -0.926878841380E+00
 -0.869004800195E+00 -0.494803655240E+00  0.000000000000E+00
 -0.480978204807E-01 -0.372266320082E+00  0.926878841380E+00
 -0.502129080353E-01 -0.998738536288E+00  0.000000000000E+00
VECTORS CF_x_sensitivity_vectors float
 -0.225127015640E-01  0.247636050036E-02  0.145811420536E+00
 -0.115915715987E+00 -0.165339595259E-01 -0.282306714247E+00
  0.810766422746E-02 -0.219215646512E-02  0.158714155818E+00
 -0.871726920711E-01 -0.354645124814E-03 -0.254611707984E+00
  0.114348640536E+00 -0.175437228535E-02  0.344862635676E+00
  0.114630891202E+00  0.794409302714E-02  0.334226591968E+00
 -0.870066774026E-01 -0.759977241247E-02 -0.230427108368E+00
 -0.633167223787E-01 -0.355307829822E-03 -0.226523663977E+00
 -0.778347275523E-01  0.148213778628E-01 -0.894388574732E-01
  0.106695094559E+00  0.109499689856E-01  0.962533949404E-01
  0.156726793341E+00 -0.447857232844E-01  0.184883281059E+00
 -0.667576703650E-01  0.150956552052E-02 -0.192677548961E+00
 -0.153897455097E-01  0.100589133718E-01  0.561767976648E-02
  0.252545309422E-01 -0.143904132131E-02  0.155684121945E+00
 -0.116779194429E+00  0.133675263795E-01 -0.270063307201E+00
  0.107437602488E+00 -0.112808091520E-01  0.343787284098E+00
 -0.904792284958E-01  0.768298990258E-02 -0.208508177944E+00
  0.100840307391E+00  0.133292986005E-02  0.429258566991E-01
 -0.724770300255E-01 -0.111563712061E-01 -0.691085313999E-01
  0.162487114180E+00  0.691618823339E-01  0.132478900949E+00
 -0.647107322150E-01 -0.112451089370E-01 -0.104308101057E+00
 -0.163251443165E-01 -0.306072223761E-01 -0.170679267533E-01
VECTORS CF_y_sensitivity_vectors float
  0.105525216805E-01  0.131586383246E-02 -0.509509078489E-02
  0.304040941222E-01  0.134522852204E-02 -0.939254761437E-01
 -0.291816586764E-01 -0.909809219318E-03  0.229652070372E-01
  0.204006605534E-01  0.941656597010E-04  0.312308868278E-01
 -0.313562115116E-01  0.447567542680E-03 -0.179010313308E-02
 -0.927058057980E-02 -0.602110089142E-03 -0.219683214349E-01
  0.275867924962E-01  0.664302125822E-03  0.928344408168E-01
  0.202562246770E-01 -0.154909188445E-03 -0.301628112661E-01
  0.268428575521E-01 -0.170941960194E-02  0.197642588988E+00
  0.970947769718E-02  0.425029334237E-01  0.566747982418E-01
 -0.102629481988E+00  0.917198768528E-01 -0.861474867629E-01
  0.393526968493E-01 -0.171933766213E-01 -0.181507795515E+00
  0.170312142270E-01 -0.116305168230E+00  0.285985322430E-01
  0.284489569029E-01 -0.139196892965E-03 -0.148401267933E-01
  0.131917688541E-01 -0.536649730379E-03  0.783588820010E-01
 -0.232061279966E-01  0.804312299660E-03  0.162377978161E-01
  0.138429723259E-01 -0.653210955234E-03 -0.746792482235E-01
 -0.788954741087E-01  0.966370810003E-02 -0.725418569178E-01
  0.229471295755E-01 -0.163422141662E-01 -0.240363434193E+00
 -0.110627418688E-02  0.689608857572E-01  0.820060494148E-01
  0.805352645393E-02  0.591698863177E-02  0.181050606372E+00
 -0.129135599424E-01 -0.688782798108E-01  0.354033246665E-01
VECTORS CF_z_sensitivity_vectors float
 -0.394345068212E-01  0.349675859798E-03  0.764527700244E+00
 -0.519616279922E+00 -0.311630957026E+00 -0.187632412523E+01
  0.113780503046E-02  0.755877840917E-02  0.128446149360E+01
 -0.668321518898E-01 -0.163129165425E-01 -0.166042879401E+01
 -0.484512974833E-01  0.136482793674E-03  0.258197780957E+01
 -0.577655854438E-01 -0.703963995208E-02  0.265480527808E+01
  0.597680393480E+00  0.312783815242E+00 -0.204579263623E+01
  0.130047660179E+00  0.167916037052E-01 -0.182638952859E+01
 -0.331644866951E+00 -0.316226776638E+00 -0.119682266054E+01
 -0.103112621605E-01 -0.338522164975E-01  0.936630028751E+00
 -0.164115964842E-01  0.240900646086E-01  0.143796436556E+01
  0.346158225117E+00  0.354996782292E+00 -0.108411047782E+01
  0.608211279932E-02 -0.467357976972E-01 -0.276857072411E-01
  0.326761041798E-02 -0.491950310006E-02  0.129732421014E+01
 -0.423391258323E+00  0.311302483037E+00 -0.185795327245E+01
 -0.570866128454E-01  0.730294428339E-02  0.264867516882E+01
  0.500438182891E+00 -0.310732248520E+00 -0.202537672411E+01
 -0.227739512479E-01  0.354644497445E-01  0.586966616312E+00
 -0.133972388840E+00  0.130766319170E+00 -0.113900816377E+01
 -0.750679497009E-02 -0.193198670003E-01  0.172423056270E+01
  0.152016376042E+00 -0.128815442810E+00 -0.116860292010E+01
 -0.152958692583E-02 -0.595114285853E-02 -0.928255081792E-02
SCALARS convex float 1
LOOKUP_TABLE default
  0.100000000000E+01
  0.100000000000E+01
  0.100000000000E+01
  0.100000000000E+01
  0.100000000000E+01
  0.100000000000E+01
  0.100000000000E+01
  0.100000000000E+01
  0.100000000000E+01
  0.100000000000E+01
  0.100000000000E+01
  0.100000000000E+01
  0.100000000000E+01
  0.100000000000E+01
  0.100000000000E+01
  0.100000000000E+01
  0.100000000000E+01
  0.100000000000E+01
  0.100000000000E+01
  0.100000000000E+01
  0.100000000000E+01
  0.100000000000E+01
