# vtk DataFile Version 3.0
MachLine results file. Generated by MachLine, USU AeroLab (c) 2023.
ASCII
POINT_DATA                   6
VECTORS vertex_outward_normal_vectors float
  0.100000000000E+01  0.000000000000E+00  0.000000000000E+00
  0.000000000000E+00  0.000000000000E+00 -0.100000000000E+01
  0.000000000000E+00  0.100000000000E+01  0.000000000000E+00
 -0.100000000000E+01  0.000000000000E+00  0.000000000000E+00
  0.000000000000E+00  0.000000000000E+00  0.100000000000E+01
  0.000000000000E+00 -0.100000000000E+01  0.000000000000E+00
VECTORS CF_x_sensitivity_vectors float
  0.558959918071E-01 -0.495818741263E-01  0.269993403581E+00
 -0.540532390593E-01  0.424756374144E-01 -0.268413539087E+00
 -0.184913552566E-02  0.760412166241E-02 -0.159061732530E-02
  0.558959917893E-01 -0.495651182718E-01  0.269992371072E+00
 -0.540434406667E-01  0.414358509664E-01 -0.268413539141E+00
 -0.184633935117E-02  0.760412164358E-02 -0.157344161724E-02
VECTORS CF_y_sensitivity_vectors float
  0.213522779896E-02 -0.634304062098E-03 -0.908012870137E-04
  0.298603914280E-02  0.870857060195E-03 -0.124950181132E-01
 -0.512132716309E-02 -0.233510290844E-03  0.125857895309E-01
  0.213522779886E-02 -0.634203525012E-03 -0.908120887986E-04
  0.298614259638E-02  0.864534913652E-03 -0.124950181134E-01
 -0.512131038800E-02 -0.233510290957E-03  0.125858939531E-01
VECTORS CF_z_sensitivity_vectors float
 -0.782114805705E-01  0.339356263213E-01  0.246842975551E+01
  0.829498192618E-01 -0.290023310840E-01 -0.242185644672E+01
 -0.473331640578E-02 -0.526512692743E-02 -0.465674400373E-01
 -0.782114805640E-01  0.339245262828E-01  0.246843060640E+01
  0.829417108824E-01 -0.283104996422E-01 -0.242185644675E+01
 -0.473516871765E-02 -0.526512691511E-02 -0.465788676498E-01
