# vtk DataFile Version 3.0
MachLine results file. Generated by MachLine, USU AeroLab (c) 2023.
ASCII
DATASET POLYDATA
POINTS                   7 float
  0.567036768980E+00  0.000000000000E+00  0.000000000000E+00
  0.283518384490E+00  0.000000000000E+00 -0.291561459230E-01
  0.283518384490E+00  0.176355406690E+01  0.000000000000E+00
  0.000000000000E+00  0.000000000000E+00  0.000000000000E+00
  0.283518384490E+00  0.000000000000E+00  0.291561459230E-01
  0.283518384490E+00 -0.176355406690E+01  0.000000000000E+00
  0.567036768980E+00  0.000000000000E+00  0.000000000000E+00
POLYGONS                   8                  32
3                   0                   1                   2
3                   1                   3                   2
3                   3                   4                   2
3                   4                   6                   2
3                   0                   5                   1
3                   1                   5                   3
3                   3                   5                   4
3                   4                   5                   6
CELL_DATA                   8
NORMALS normals float
  0.102283551729E+00  0.164436508585E-01 -0.994619365080E+00
 -0.102283551729E+00  0.164436508585E-01 -0.994619365080E+00
 -0.102283551729E+00  0.164436508585E-01  0.994619365080E+00
  0.102283551729E+00  0.164436508585E-01  0.994619365080E+00
  0.102283551729E+00 -0.164436508585E-01 -0.994619365080E+00
 -0.102283551729E+00 -0.164436508585E-01 -0.994619365080E+00
 -0.102283551729E+00 -0.164436508585E-01  0.994619365080E+00
  0.102283551729E+00 -0.164436508585E-01  0.994619365080E+00
SCALARS inclination float 1
LOOKUP_TABLE default
  0.100000000000E+01
  0.100000000000E+01
  0.100000000000E+01
  0.100000000000E+01
  0.100000000000E+01
  0.100000000000E+01
  0.100000000000E+01
  0.100000000000E+01
SCALARS distribution_order float 1
LOOKUP_TABLE default
  0.100000000000E+01
  0.100000000000E+01
  0.100000000000E+01
  0.100000000000E+01
  0.100000000000E+01
  0.100000000000E+01
  0.100000000000E+01
  0.100000000000E+01
SCALARS N_discontinuous_edges float 1
LOOKUP_TABLE default
  0.200000000000E+01
  0.200000000000E+01
  0.200000000000E+01
  0.200000000000E+01
  0.200000000000E+01
  0.200000000000E+01
  0.200000000000E+01
  0.200000000000E+01
VECTORS centroid float
  0.378024512653E+00  0.587851355633E+00 -0.971871530767E-02
  0.189012256327E+00  0.587851355633E+00 -0.971871530767E-02
  0.189012256327E+00  0.587851355633E+00  0.971871530767E-02
  0.378024512653E+00  0.587851355633E+00  0.971871530767E-02
  0.378024512653E+00 -0.587851355633E+00 -0.971871530767E-02
  0.189012256327E+00 -0.587851355633E+00 -0.971871530767E-02
  0.189012256327E+00 -0.587851355633E+00  0.971871530767E-02
  0.378024512653E+00 -0.587851355633E+00  0.971871530767E-02
SCALARS C_p_ise float 1
LOOKUP_TABLE default
 -0.712535334940E-01
  0.267767158107E+00
  0.123801356449E-01
 -0.119132979735E+00
 -0.712535334940E-01
  0.267767158107E+00
  0.123801356449E-01
 -0.119132979735E+00
SCALARS sigma float 1
LOOKUP_TABLE default
  0.000000000000E+00
  0.000000000000E+00
  0.000000000000E+00
  0.000000000000E+00
  0.000000000000E+00
  0.000000000000E+00
  0.000000000000E+00
  0.000000000000E+00
VECTORS v float
  0.103736772953E+01  0.170367250293E-01  0.106534147735E+00
  0.859728985699E+00  0.225507184621E-01 -0.226988176131E+00
  0.993577393244E+00  0.103253255213E-02  0.102228982897E+00
  0.106941012013E+01 -0.177609713745E-02 -0.676552783686E-01
  0.103736772953E+01 -0.170367250293E-01  0.106534147735E+00
  0.859728985699E+00 -0.225507184621E-01 -0.226988176131E+00
  0.993577393244E+00 -0.103253255213E-02  0.102228982897E+00
  0.106941012013E+01  0.177609713745E-02 -0.676552783686E-01
VECTORS v_inner float
  0.133333333333E+01  0.000000000000E+00  0.133333333333E+00
  0.133333333333E+01  0.000000000000E+00  0.133333333333E+00
  0.133333333333E+01  0.000000000000E+00  0.133333333333E+00
  0.133333333333E+01  0.000000000000E+00  0.133333333333E+00
  0.133333333333E+01  0.000000000000E+00  0.133333333333E+00
  0.133333333333E+01  0.000000000000E+00  0.133333333333E+00
  0.133333333333E+01  0.000000000000E+00  0.133333333333E+00
  0.133333333333E+01  0.000000000000E+00  0.133333333333E+00
VECTORS dC_f float
  0.183187275832E-02  0.294501662737E-03 -0.178133833738E-01
  0.688408473873E-02 -0.110672228340E-02  0.669417895278E-01
  0.318283629178E-03 -0.511689786255E-04 -0.309503391129E-02
  0.306281596845E-02  0.492394677126E-03  0.297832449343E-01
  0.183187275832E-02 -0.294501662737E-03 -0.178133833738E-01
  0.688408473873E-02  0.110672228340E-02  0.669417895278E-01
  0.318283629178E-03  0.511689786255E-04 -0.309503391129E-02
  0.306281596845E-02 -0.492394677126E-03  0.297832449343E-01
POINT_DATA                   7
SCALARS mu float 1
LOOKUP_TABLE default
 -0.207428446199E+00
 -0.123155710878E+00
 -0.940371169282E-01
 -0.459332194112E-08
 -0.967513892879E-01
 -0.940371169282E-01
 -0.165376148782E+00
SCALARS Phi_u float 1
LOOKUP_TABLE default
  0.547586016849E+00
  0.250367068894E+00
  0.283518379764E+00
 -0.461623141960E-08
  0.284678055925E+00
  0.283518379764E+00
  0.589848052711E+00
VECTORS vertex_outward_normal_vectors float
  0.100000000000E+01  0.000000000000E+00  0.000000000000E+00
  0.000000000000E+00  0.000000000000E+00 -0.100000000000E+01
  0.000000000000E+00  0.100000000000E+01  0.000000000000E+00
 -0.100000000000E+01  0.000000000000E+00  0.000000000000E+00
  0.000000000000E+00  0.000000000000E+00  0.100000000000E+01
  0.000000000000E+00 -0.100000000000E+01  0.000000000000E+00
  0.100000000000E+01  0.000000000000E+00  0.000000000000E+00
VECTORS CFx_sensitivity_adjoint float
 -0.293908648846E-01  0.343167011189E-07 -0.163124370667E-01
  0.649276445043E-02  0.451088064322E-06 -0.995110569308E+00
 -0.221543954097E-02  0.687109584055E-02 -0.308824846305E-02
  0.439017633323E-01 -0.686814527827E-11  0.471048814007E+00
 -0.165727957760E-01 -0.474175972190E-06  0.546550725481E+00
 -0.221541016379E-02 -0.687109512332E-02 -0.308823212613E-02
VECTORS CFy_sensitivity_adjoint float
 -0.333847818109E-16 -0.754658726427E-03  0.102817608856E-15
  0.706650355660E-16 -0.208300124007E-03  0.152591440092E-15
 -0.684473404788E-02 -0.384810333012E-05 -0.429737851520E-01
  0.480112579620E-16  0.114664238192E-02  0.712952768709E-16
  0.824603640749E-16 -0.175987324823E-03  0.101780307861E-16
  0.684473404788E-02 -0.384810333013E-05  0.429737851520E-01
VECTORS CFz_sensitivity_adjoint float
  0.790900635541E-01 -0.964090869670E-05 -0.275731451703E+01
  0.886090542979E-01 -0.126638956141E-03  0.390229309494E+00
 -0.480594868483E-01  0.616658557300E-01  0.107775081492E+00
 -0.221800609157E+00 -0.787730218610E-11  0.190432346351E+01
  0.150223802976E+00  0.133115180409E-03  0.247201392063E+00
 -0.480677360255E-01 -0.616660648720E-01  0.107770495703E+00
SCALARS convex float 1
LOOKUP_TABLE default
  0.100000000000E+01
  0.100000000000E+01
  0.100000000000E+01
  0.100000000000E+01
  0.100000000000E+01
  0.100000000000E+01
  0.100000000000E+01
