# vtk DataFile Version 3.0
MachLine results file. Generated by MachLine, USU AeroLab (c) 2023.
ASCII
DATASET POLYDATA
POINTS                   7 float
  0.567036768980E+00  0.000000000000E+00  0.000000000000E+00
  0.283518384490E+00  0.000000000000E+00 -0.291561459230E-01
  0.283518384490E+00  0.176355406690E+01  0.000000000000E+00
  0.000000000000E+00  0.000000000000E+00  0.000000000000E+00
  0.283518384490E+00  0.000000000000E+00  0.291561459230E-01
  0.283518384490E+00 -0.176355406690E+01  0.000000000000E+00
  0.567036768980E+00  0.000000000000E+00  0.000000000000E+00
POLYGONS                   8                  32
3                   0                   1                   2
3                   1                   3                   2
3                   3                   4                   2
3                   4                   6                   2
3                   0                   5                   1
3                   1                   5                   3
3                   3                   5                   4
3                   4                   5                   6
CELL_DATA                   8
NORMALS normals float
  0.102283551729E+00  0.164436508585E-01 -0.994619365080E+00
 -0.102283551729E+00  0.164436508585E-01 -0.994619365080E+00
 -0.102283551729E+00  0.164436508585E-01  0.994619365080E+00
  0.102283551729E+00  0.164436508585E-01  0.994619365080E+00
  0.102283551729E+00 -0.164436508585E-01 -0.994619365080E+00
 -0.102283551729E+00 -0.164436508585E-01 -0.994619365080E+00
 -0.102283551729E+00 -0.164436508585E-01  0.994619365080E+00
  0.102283551729E+00 -0.164436508585E-01  0.994619365080E+00
SCALARS inclination float 1
LOOKUP_TABLE default
  0.100000000000E+01
  0.100000000000E+01
  0.100000000000E+01
  0.100000000000E+01
  0.100000000000E+01
  0.100000000000E+01
  0.100000000000E+01
  0.100000000000E+01
SCALARS distribution_order float 1
LOOKUP_TABLE default
  0.100000000000E+01
  0.100000000000E+01
  0.100000000000E+01
  0.100000000000E+01
  0.100000000000E+01
  0.100000000000E+01
  0.100000000000E+01
  0.100000000000E+01
SCALARS N_discontinuous_edges float 1
LOOKUP_TABLE default
  0.200000000000E+01
  0.200000000000E+01
  0.200000000000E+01
  0.200000000000E+01
  0.200000000000E+01
  0.200000000000E+01
  0.200000000000E+01
  0.200000000000E+01
VECTORS centroid float
  0.378024512653E+00  0.587851355633E+00 -0.971871530767E-02
  0.189012256327E+00  0.587851355633E+00 -0.971871530767E-02
  0.189012256327E+00  0.587851355633E+00  0.971871530767E-02
  0.378024512653E+00  0.587851355633E+00  0.971871530767E-02
  0.378024512653E+00 -0.587851355633E+00 -0.971871530767E-02
  0.189012256327E+00 -0.587851355633E+00 -0.971871530767E-02
  0.189012256327E+00 -0.587851355633E+00  0.971871530767E-02
  0.378024512653E+00 -0.587851355633E+00  0.971871530767E-02
SCALARS C_p_inc float 1
LOOKUP_TABLE default
 -0.685029206286E-01
 -0.685113159714E-01
 -0.685113159714E-01
 -0.685029206286E-01
 -0.685029206286E-01
 -0.685113159714E-01
 -0.685113159714E-01
 -0.685029206286E-01
SCALARS sigma float 1
LOOKUP_TABLE default
  0.000000000000E+00
  0.000000000000E+00
  0.000000000000E+00
  0.000000000000E+00
  0.000000000000E+00
  0.000000000000E+00
  0.000000000000E+00
  0.000000000000E+00
VECTORS v float
  0.102826276956E+01 -0.174777222774E-02  0.105714439228E+00
  0.102826680914E+01  0.174770516794E-02 -0.105714855754E+00
  0.102826680914E+01  0.174770516794E-02  0.105714855754E+00
  0.102826276956E+01 -0.174777222774E-02 -0.105714439228E+00
  0.102826276956E+01  0.174777222774E-02  0.105714439228E+00
  0.102826680914E+01 -0.174770516794E-02 -0.105714855754E+00
  0.102826680914E+01 -0.174770516794E-02  0.105714855754E+00
  0.102826276956E+01  0.174777222774E-02 -0.105714439228E+00
VECTORS v_inner float
  0.000000000000E+00  0.000000000000E+00  0.000000000000E+00
  0.000000000000E+00  0.000000000000E+00  0.000000000000E+00
  0.000000000000E+00  0.000000000000E+00  0.000000000000E+00
  0.000000000000E+00  0.000000000000E+00  0.000000000000E+00
  0.000000000000E+00  0.000000000000E+00  0.000000000000E+00
  0.000000000000E+00  0.000000000000E+00  0.000000000000E+00
  0.000000000000E+00  0.000000000000E+00  0.000000000000E+00
  0.000000000000E+00  0.000000000000E+00  0.000000000000E+00
VECTORS dC_f float
  0.176115664741E-02  0.283132962510E-03 -0.171257301574E-01
 -0.176137248513E-02  0.283167661735E-03 -0.171278289931E-01
 -0.176137248513E-02  0.283167661735E-03  0.171278289931E-01
  0.176115664741E-02  0.283132962510E-03  0.171257301574E-01
  0.176115664741E-02 -0.283132962510E-03 -0.171257301574E-01
 -0.176137248513E-02 -0.283167661735E-03 -0.171278289931E-01
 -0.176137248513E-02 -0.283167661735E-03  0.171278289931E-01
  0.176115664741E-02 -0.283132962510E-03  0.171257301574E-01
POINT_DATA                   7
SCALARS mu float 1
LOOKUP_TABLE default
  0.578132074655E+00
  0.283518449782E+00
  0.283518384578E+00
 -0.110963325292E-01
  0.283518449782E+00
  0.283518384578E+00
  0.578132074655E+00
SCALARS Phi_u float 1
LOOKUP_TABLE default
  0.578132074655E+00
  0.283518449782E+00
  0.283518384578E+00
 -0.110963325292E-01
  0.283518449782E+00
  0.283518384578E+00
  0.578132074655E+00
VECTORS vertex_outward_normal_vectors float
  0.100000000000E+01 -0.762590528683E-13  0.154587222330E-06
  0.000000000000E+00  0.283136268508E-06 -0.100000000000E+01
  0.000000000000E+00  0.100000000000E+01  0.000000000000E+00
 -0.100000000000E+01 -0.762590528683E-13  0.154587222330E-06
  0.000000000000E+00 -0.283136252772E-06  0.100000000000E+01
  0.000000000000E+00 -0.100000000000E+01 -0.566932989004E-06
VECTORS CFx_sensitivities_central_diff float
  0.113876664500E-02  0.171303943253E-10 -0.511743425413E-10
 -0.825978293205E-02  0.171303943253E-10  0.459082162476E-04
  0.712547973088E-02 -0.265263939286E-06 -0.105709711817E-09
  0.112961738498E-02  0.542101086243E-11 -0.624500451352E-10
 -0.825978305294E-02 -0.199493199737E-10 -0.459083101395E-04
  0.712547982445E-02  0.265192707204E-06 -0.227682456222E-11
VECTORS CFy_sensitivities_central_diff float
 -0.786046575052E-12  0.209594098208E-03  0.542101086243E-13
  0.000000000000E+00 -0.209533225243E-03  0.813151629364E-13
  0.244728635143E-06 -0.572745518547E-07 -0.379470760370E-12
  0.162630325873E-12  0.209586876500E-03 -0.271050543121E-13
 -0.271050543121E-13 -0.209533222831E-03  0.433680868994E-12
 -0.244723403868E-06 -0.572769913096E-07  0.333392168039E-11
VECTORS CFz_sensitivities_central_diff float
  0.607153216592E-10 -0.455017967749E-08  0.681009178671E+00
 -0.172561440068E-01 -0.183013326716E-08 -0.731554329676E+00
  0.252402265755E-08  0.349546780409E-08  0.132447589354E-02
 -0.549907341885E-09  0.834401991945E-09  0.779324659875E+00
  0.172561098744E-01 -0.135828848169E-08 -0.731554318879E+00
 -0.366026653431E-08  0.158206781009E-08  0.132450964259E-02
SCALARS convex float 1
LOOKUP_TABLE default
  0.100000000000E+01
  0.100000000000E+01
  0.100000000000E+01
  0.100000000000E+01
  0.100000000000E+01
  0.100000000000E+01
  0.100000000000E+01
