# vtk DataFile Version 3.0
MachLine results file. Generated by MachLine, USU AeroLab (c) 2023.
ASCII
DATASET POLYDATA
POINTS                  96 float
  0.159855731340E+02 -0.296030577115E+01 -0.718803613250E+00
  0.400316257801E+02 -0.296030577115E+01  0.138495339583E+01
  0.159855731340E+02  0.296030577115E+01 -0.718803613250E+00
  0.400316257801E+02  0.296030577115E+01  0.138495339583E+01
  0.164078598675E+02 -0.285730612245E+01 -0.699192040760E+00
  0.400331307654E+02 -0.285730612245E+01  0.136775133553E+01
  0.173907741930E+02  0.251248979590E+01 -0.632814410795E+00
  0.400348339267E+02  0.251248979590E+01  0.134828411211E+01
  0.164078598675E+02  0.285730612245E+01 -0.699192040760E+00
  0.400331307654E+02  0.285730612245E+01  0.136775133553E+01
  0.173907741930E+02 -0.251248979590E+01 -0.632814410795E+00
  0.400348339267E+02 -0.251248979590E+01  0.134828411211E+01
  0.160719244275E+02  0.298523567935E+01 -0.700000000000E+00
  0.400306491086E+02  0.298523567935E+01  0.139611680213E+01
  0.164810900280E+02  0.347103603890E+01 -0.700000000000E+00
  0.400337571810E+02  0.347103603890E+01  0.136059137169E+01
  0.172086464440E+02  0.433486029055E+01 -0.700000000000E+00
  0.400392837894E+02  0.433486029055E+01  0.129742194879E+01
  0.186637592760E+02  0.606250879385E+01 -0.700000000000E+00
  0.400503370062E+02  0.606250879385E+01  0.117108310301E+01
  0.179362028600E+02  0.519868454220E+01 -0.700000000000E+00
  0.400448103978E+02  0.519868454220E+01  0.123425252590E+01
  0.193913156920E+02  0.692633304550E+01 -0.700000000000E+00
  0.400558636146E+02  0.692633304550E+01  0.110791368011E+01
  0.201188721080E+02  0.779015729710E+01 -0.700000000000E+00
  0.400613902229E+02  0.779015729710E+01  0.104474425722E+01
  0.223015413565E+02  0.103816300521E+02 -0.700000000000E+00
  0.400779700481E+02  0.103816300521E+02  0.855235988492E+00
  0.208464285240E+02  0.865398154875E+01 -0.700000000000E+00
  0.400669168313E+02  0.865398154875E+01  0.981574834324E+00
  0.215739849400E+02  0.951780580040E+01 -0.700000000000E+00
  0.400724434397E+02  0.951780580040E+01  0.918405411430E+00
  0.230290977730E+02  0.112454543035E+02 -0.700000000000E+00
  0.400834966565E+02  0.112454543035E+02  0.792066565555E+00
  0.160719244275E+02 -0.298523567935E+01 -0.700000000000E+00
  0.400306491086E+02 -0.298523567935E+01  0.139611680213E+01
  0.164810900280E+02 -0.347103603890E+01 -0.700000000000E+00
  0.400337571810E+02 -0.347103603890E+01  0.136059137169E+01
  0.172086464440E+02 -0.433486029055E+01 -0.700000000000E+00
  0.400392837894E+02 -0.433486029055E+01  0.129742194879E+01
  0.179362028600E+02 -0.519868454220E+01 -0.700000000000E+00
  0.400448103978E+02 -0.519868454220E+01  0.123425252590E+01
  0.186637592760E+02 -0.606250879385E+01 -0.700000000000E+00
  0.400503370062E+02 -0.606250879385E+01  0.117108310301E+01
  0.193913156920E+02 -0.692633304550E+01 -0.700000000000E+00
  0.400558636146E+02 -0.692633304550E+01  0.110791368011E+01
  0.201188721080E+02 -0.779015729710E+01 -0.700000000000E+00
  0.400613902229E+02 -0.779015729710E+01  0.104474425722E+01
  0.208464285240E+02 -0.865398154875E+01 -0.700000000000E+00
  0.400669168313E+02 -0.865398154875E+01  0.981574834324E+00
  0.223015413565E+02 -0.103816300521E+02 -0.700000000000E+00
  0.400779700481E+02 -0.103816300521E+02  0.855235988492E+00
  0.230290977730E+02 -0.112454543035E+02 -0.700000000000E+00
  0.400834966565E+02 -0.112454543035E+02  0.792066565555E+00
  0.215739849400E+02 -0.951780580040E+01 -0.700000000000E+00
  0.400724434397E+02 -0.951780580040E+01  0.918405411430E+00
  0.284544536295E+02  0.270787016686E+00  0.147540983610E+01
  0.399358303527E+02  0.270787016686E+00  0.247990014105E+01
  0.285103579795E+02  0.807142857155E+00  0.147540983610E+01
  0.399362550091E+02  0.807142857155E+00  0.247504629680E+01
  0.285664436270E+02  0.134523809525E+01  0.147540983610E+01
  0.399366810426E+02  0.134523809525E+01  0.247017671156E+01
  0.286225292745E+02  0.188333333335E+01  0.147540983610E+01
  0.399371070761E+02  0.188333333335E+01  0.246530712632E+01
  0.286786149220E+02  0.242142857145E+01  0.147540983610E+01
  0.399375331096E+02  0.242142857145E+01  0.246043754108E+01
  0.284544536295E+02 -0.270787016686E+00  0.147540983610E+01
  0.399358303527E+02 -0.270787016686E+00  0.247990014105E+01
  0.285103579795E+02 -0.807142857155E+00  0.147540983610E+01
  0.399362550091E+02 -0.807142857155E+00  0.247504629680E+01
  0.285664436270E+02 -0.134523809525E+01  0.147540983610E+01
  0.399366810426E+02 -0.134523809525E+01  0.247017671156E+01
  0.286786149220E+02 -0.242142857145E+01  0.147540983610E+01
  0.399375331096E+02 -0.242142857145E+01  0.246043754108E+01
  0.286225292745E+02 -0.188333333335E+01  0.147540983610E+01
  0.399371070761E+02 -0.188333333335E+01  0.246530712632E+01
  0.289684696145E+02  0.621689745955E-17  0.675300132245E+00
  0.400092036776E+02  0.621689745955E-17  0.164123919977E+01
  0.287232028620E+02  0.299134084165E-16  0.106229352454E+01
  0.399737402524E+02  0.299134084165E-16  0.204658800478E+01
  0.288470483440E+02  0.179480450500E-16  0.866884311435E+00
  0.399916472249E+02  0.179480450500E-16  0.184191037305E+01
  0.285993573805E+02  0.418787717830E-16  0.125770273765E+01
  0.399558332800E+02  0.418787717830E-16  0.225126563646E+01
  0.284755118990E+02  0.538441351495E-16  0.145311195070E+01
  0.399379263075E+02  0.538441351495E-16  0.245594326808E+01
  0.284987323100E+02  0.769185309240E-16  0.182994543100E+01
  0.399053844691E+02  0.769185309240E-16  0.282789818370E+01
  0.286690186135E+02  0.111101959107E-15  0.238820317860E+01
  0.398582077646E+02  0.111101959107E-15  0.336713038337E+01
  0.288393049170E+02  0.145285387290E-15  0.294646092615E+01
  0.398110310601E+02  0.145285387290E-15  0.390636258298E+01
  0.290095912210E+02  0.179468815470E-15  0.350471867370E+01
  0.397638543556E+02  0.179468815470E-15  0.444559478255E+01
  0.291798775245E+02  0.213652243655E-15  0.406297642125E+01
  0.397166776512E+02  0.213652243655E-15  0.498482698217E+01
LINES                  48                 144
2                   0                   1
2                   2                   3
2                   4                   5
2                   6                   7
2                   8                   9
2                  10                  11
2                  12                  13
2                  14                  15
2                  16                  17
2                  18                  19
2                  20                  21
2                  22                  23
2                  24                  25
2                  26                  27
2                  28                  29
2                  30                  31
2                  32                  33
2                  34                  35
2                  36                  37
2                  38                  39
2                  40                  41
2                  42                  43
2                  44                  45
2                  46                  47
2                  48                  49
2                  50                  51
2                  52                  53
2                  54                  55
2                  56                  57
2                  58                  59
2                  60                  61
2                  62                  63
2                  64                  65
2                  66                  67
2                  68                  69
2                  70                  71
2                  72                  73
2                  74                  75
2                  76                  77
2                  78                  79
2                  80                  81
2                  82                  83
2                  84                  85
2                  86                  87
2                  88                  89
2                  90                  91
2                  92                  93
2                  94                  95
POINT_DATA                  96
SCALARS Gamma float 1
LOOKUP_TABLE default
 -0.129705915882E-01
 -0.129705915882E-01
  0.129705915882E-01
  0.129705915882E-01
 -0.331182853418E-01
 -0.331182853418E-01
 -0.460888769301E-01
 -0.460888769301E-01
  0.331182853418E-01
  0.331182853418E-01
  0.460888769300E-01
  0.460888769300E-01
 -0.888107869980E-01
 -0.888107869980E-01
 -0.154306144711E+00
 -0.154306144711E+00
 -0.139007240211E+00
 -0.139007240211E+00
 -0.102593076776E+00
 -0.102593076776E+00
 -0.236653065777E-01
 -0.236653065777E-01
  0.386207581768E-01
  0.386207581768E-01
 -0.561382717225E-01
 -0.561382717225E-01
  0.711727171856E-01
  0.711727171856E-01
  0.859700296956E-01
  0.859700296956E-01
  0.102417267925E+00
  0.102417267925E+00
  0.266340054013E+00
  0.266340054013E+00
  0.888107869980E-01
  0.888107869980E-01
  0.154306144711E+00
  0.154306144711E+00
  0.139007240212E+00
  0.139007240212E+00
  0.236653065776E-01
  0.236653065776E-01
  0.102593076776E+00
  0.102593076776E+00
 -0.386207581769E-01
 -0.386207581769E-01
  0.561382717226E-01
  0.561382717226E-01
 -0.859700296955E-01
 -0.859700296955E-01
 -0.711727171855E-01
 -0.711727171855E-01
 -0.266340054013E+00
 -0.266340054013E+00
 -0.102417267925E+00
 -0.102417267925E+00
 -0.161963323725E-01
 -0.161963323725E-01
 -0.196317142724E-01
 -0.196317142724E-01
 -0.592217780676E-02
 -0.592217780676E-02
 -0.393006864542E-01
 -0.393006864542E-01
  0.810509109058E-01
  0.810509109058E-01
  0.161963323724E-01
  0.161963323724E-01
  0.196317142724E-01
  0.196317142724E-01
  0.592217780673E-02
  0.592217780673E-02
 -0.810509109058E-01
 -0.810509109058E-01
  0.393006864543E-01
  0.393006864543E-01
  0.195399252334E-13
  0.195399252334E-13
  0.196110488959E-13
  0.196110488959E-13
 -0.766400831687E-14
 -0.766400831687E-14
 -0.994516968778E-14
 -0.994516968778E-14
 -0.182839854368E-14
 -0.182839854368E-14
  0.151198498166E-13
  0.151198498166E-13
 -0.285604873085E-13
 -0.285604873085E-13
  0.732747196253E-14
  0.732747196253E-14
 -0.399680288865E-14
 -0.399680288865E-14
 -0.960342916301E-14
 -0.960342916301E-14
