# vtk DataFile Version 3.0
MachLine results file. Generated by MachLine, USU AeroLab (c) 2023.
ASCII
DATASET POLYDATA
POINTS                 178 float
  0.210884300000E+02  0.291656400000E+01 -0.698204050000E+00
  0.400685991727E+02  0.291656400000E+01  0.962345584416E+00
  0.210884300000E+02 -0.291656400000E+01 -0.698204050000E+00
  0.400685991727E+02 -0.291656400000E+01  0.962345584416E+00
  0.214205800000E+02 -0.279351850000E+01 -0.671354950000E+00
  0.400687910765E+02 -0.279351850000E+01  0.960152114230E+00
  0.214205800000E+02  0.279351850000E+01 -0.671354950000E+00
  0.400687910765E+02  0.279351850000E+01  0.960152114230E+00
  0.220309400000E+02 -0.257417650000E+01 -0.623493500000E+00
  0.400692719196E+02 -0.257417650000E+01  0.954656051885E+00
  0.220309400000E+02  0.257417650000E+01 -0.623493500000E+00
  0.400692719196E+02  0.257417650000E+01  0.954656051885E+00
  0.228547800000E+02 -0.229063750000E+01 -0.561623800000E+00
  0.400701581297E+02 -0.229063750000E+01  0.944526624659E+00
  0.228547800000E+02  0.229063750000E+01 -0.561623800000E+00
  0.400701581297E+02  0.229063750000E+01  0.944526624659E+00
  0.212498800000E+02  0.323638250000E+01 -0.705500000000E+00
  0.400704590311E+02  0.323638250000E+01  0.941087306211E+00
  0.217755900000E+02  0.383888700000E+01 -0.705500000000E+00
  0.400744523891E+02  0.383888700000E+01  0.895443014470E+00
  0.223493550000E+02  0.449646350000E+01 -0.705500000000E+00
  0.400788107789E+02  0.449646350000E+01  0.845626391141E+00
  0.229616450000E+02  0.519819250000E+01 -0.705500000000E+00
  0.400834618094E+02  0.519819250000E+01  0.792464869789E+00
  0.235995900000E+02  0.592932200000E+01 -0.705500000000E+00
  0.400883077184E+02  0.592932200000E+01  0.737075876438E+00
  0.242479050000E+02  0.667233900000E+01 -0.705500000000E+00
  0.400932323992E+02  0.667233900000E+01  0.680786517286E+00
  0.248902950000E+02  0.740856550000E+01 -0.705500000000E+00
  0.400981120730E+02  0.740856550000E+01  0.625011590860E+00
  0.255110500000E+02  0.811999300000E+01 -0.705500000000E+00
  0.401028274046E+02  0.811999300000E+01  0.571115103596E+00
  0.266361800000E+02  0.940947350000E+01 -0.705500000000E+00
  0.401113740310E+02  0.940947350000E+01  0.473426716527E+00
  0.260965150000E+02  0.879097700000E+01 -0.705500000000E+00
  0.401072746690E+02  0.879097700000E+01  0.520282638427E+00
  0.275543850000E+02  0.104618050000E+02 -0.705500000000E+00
  0.401183488296E+02  0.104618050000E+02  0.393704404040E+00
  0.271232050000E+02  0.996763950000E+01 -0.705500000000E+00
  0.401150735331E+02  0.996763950000E+01  0.431141214663E+00
  0.279296800000E+02  0.108919250000E+02 -0.705500000000E+00
  0.401211996168E+02  0.108919250000E+02  0.361119757621E+00
  0.282515250000E+02  0.112607800000E+02 -0.705500000000E+00
  0.401236443911E+02  0.112607800000E+02  0.333175858750E+00
  0.285240300000E+02  0.115730900000E+02 -0.705500000000E+00
  0.401257143728E+02  0.115730900000E+02  0.309515860423E+00
  0.287522700000E+02  0.118346700000E+02 -0.705500000000E+00
  0.401274481120E+02  0.118346700000E+02  0.289699130387E+00
  0.289417050000E+02  0.120517750000E+02 -0.705500000000E+00
  0.401288870836E+02  0.120517750000E+02  0.273251609119E+00
  0.212498800000E+02 -0.323638250000E+01 -0.705500000000E+00
  0.400704590311E+02 -0.323638250000E+01  0.941087306211E+00
  0.217755900000E+02 -0.383888700000E+01 -0.705500000000E+00
  0.400744523891E+02 -0.383888700000E+01  0.895443014470E+00
  0.229616450000E+02 -0.519819250000E+01 -0.705500000000E+00
  0.400834618094E+02 -0.519819250000E+01  0.792464869789E+00
  0.235995900000E+02 -0.592932200000E+01 -0.705500000000E+00
  0.400883077184E+02 -0.592932200000E+01  0.737075876438E+00
  0.223493550000E+02 -0.449646350000E+01 -0.705500000000E+00
  0.400788107789E+02 -0.449646350000E+01  0.845626391141E+00
  0.242479050000E+02 -0.667233900000E+01 -0.705500000000E+00
  0.400932323992E+02 -0.667233900000E+01  0.680786517286E+00
  0.248902950000E+02 -0.740856550000E+01 -0.705500000000E+00
  0.400981120730E+02 -0.740856550000E+01  0.625011590860E+00
  0.260965150000E+02 -0.879097700000E+01 -0.705500000000E+00
  0.401072746690E+02 -0.879097700000E+01  0.520282638427E+00
  0.266361800000E+02 -0.940947350000E+01 -0.705500000000E+00
  0.401113740310E+02 -0.940947350000E+01  0.473426716527E+00
  0.275543850000E+02 -0.104618050000E+02 -0.705500000000E+00
  0.401183488296E+02 -0.104618050000E+02  0.393704404040E+00
  0.255110500000E+02 -0.811999300000E+01 -0.705500000000E+00
  0.401028274046E+02 -0.811999300000E+01  0.571115103596E+00
  0.271232050000E+02 -0.996763950000E+01 -0.705500000000E+00
  0.401150735331E+02 -0.996763950000E+01  0.431141214663E+00
  0.279296800000E+02 -0.108919250000E+02 -0.705500000000E+00
  0.401211996168E+02 -0.108919250000E+02  0.361119757621E+00
  0.285240300000E+02 -0.115730900000E+02 -0.705500000000E+00
  0.401257143728E+02 -0.115730900000E+02  0.309515860423E+00
  0.282515250000E+02 -0.112607800000E+02 -0.705500000000E+00
  0.401236443911E+02 -0.112607800000E+02  0.333175858750E+00
  0.289417050000E+02 -0.120517750000E+02 -0.705500000000E+00
  0.401288870836E+02 -0.120517750000E+02  0.273251609119E+00
  0.334360800000E+02  0.168155852404E+00  0.155080000000E+01
  0.399671257195E+02  0.168155852404E+00  0.212219246143E+01
  0.287522700000E+02 -0.118346700000E+02 -0.705500000000E+00
  0.401274481120E+02 -0.118346700000E+02  0.289699130387E+00
  0.289056750000E+02  0.163679985500E+00  0.154927400000E+01
  0.399328446972E+02  0.163679985500E+00  0.251402633929E+01
  0.334366400000E+02  0.504464250000E+00  0.155080000000E+01
  0.399671299734E+02  0.504464250000E+00  0.212214383994E+01
  0.293352550000E+02  0.504464250000E+00  0.155080000000E+01
  0.399359753464E+02  0.504464250000E+00  0.247824285552E+01
  0.334372000000E+02  0.840774000000E+00  0.155080000000E+01
  0.399671342272E+02  0.840774000000E+00  0.212209521845E+01
  0.298015600000E+02  0.840774000000E+00  0.155080000000E+01
  0.399395174568E+02  0.840774000000E+00  0.243775634878E+01
  0.302678650000E+02  0.117708350000E+01  0.155080000000E+01
  0.399430595671E+02  0.117708350000E+01  0.239726984203E+01
  0.334377600000E+02  0.117708350000E+01  0.155080000000E+01
  0.399671384810E+02  0.117708350000E+01  0.212204659696E+01
  0.334383200000E+02  0.151339300000E+01  0.155080000000E+01
  0.399671427349E+02  0.151339300000E+01  0.212199797547E+01
  0.307341700000E+02  0.151339300000E+01  0.155080000000E+01
  0.399466016775E+02  0.151339300000E+01  0.235678333529E+01
  0.334388800000E+02  0.184970250000E+01  0.155080000000E+01
  0.399671469887E+02  0.184970250000E+01  0.212194935398E+01
  0.312004750000E+02  0.184970250000E+01  0.155080000000E+01
  0.399501437879E+02  0.184970250000E+01  0.231629682855E+01
  0.316667800000E+02  0.218601200000E+01  0.155080000000E+01
  0.399536858982E+02  0.218601200000E+01  0.227581032180E+01
  0.334394400000E+02  0.218601200000E+01  0.155080000000E+01
  0.399671512425E+02  0.218601200000E+01  0.212190073249E+01
  0.334400000000E+02  0.252232150000E+01  0.155080000000E+01
  0.399671554963E+02  0.252232150000E+01  0.212185211100E+01
  0.321432550000E+02  0.252232150000E+01  0.155130850000E+01
  0.399572611111E+02  0.252232150000E+01  0.223494545145E+01
  0.334360800000E+02 -0.168153647596E+00  0.155080000000E+01
  0.399671257195E+02 -0.168153647596E+00  0.212219246143E+01
  0.289056750000E+02 -0.172629514500E+00  0.154927400000E+01
  0.399328446972E+02 -0.172629514500E+00  0.251402633929E+01
  0.293352550000E+02 -0.504464250000E+00  0.155080000000E+01
  0.399359753464E+02 -0.504464250000E+00  0.247824285552E+01
  0.334366400000E+02 -0.504464250000E+00  0.155080000000E+01
  0.399671299734E+02 -0.504464250000E+00  0.212214383994E+01
  0.334372000000E+02 -0.840774000000E+00  0.155080000000E+01
  0.399671342272E+02 -0.840774000000E+00  0.212209521845E+01
  0.298015600000E+02 -0.840774000000E+00  0.155080000000E+01
  0.399395174568E+02 -0.840774000000E+00  0.243775634878E+01
  0.334377600000E+02 -0.117708350000E+01  0.155080000000E+01
  0.399671384810E+02 -0.117708350000E+01  0.212204659696E+01
  0.302678650000E+02 -0.117708350000E+01  0.155080000000E+01
  0.399430595671E+02 -0.117708350000E+01  0.239726984203E+01
  0.307341700000E+02 -0.151339300000E+01  0.155080000000E+01
  0.399466016775E+02 -0.151339300000E+01  0.235678333529E+01
  0.334383200000E+02 -0.151339300000E+01  0.155080000000E+01
  0.399671427349E+02 -0.151339300000E+01  0.212199797547E+01
  0.334394400000E+02 -0.218601200000E+01  0.155080000000E+01
  0.399671512425E+02 -0.218601200000E+01  0.212190073249E+01
  0.316667800000E+02 -0.218601200000E+01  0.155080000000E+01
  0.399536858982E+02 -0.218601200000E+01  0.227581032180E+01
  0.334388800000E+02 -0.184970250000E+01  0.155080000000E+01
  0.399671469887E+02 -0.184970250000E+01  0.212194935398E+01
  0.321432550000E+02 -0.252232150000E+01  0.155029150000E+01
  0.399573494112E+02 -0.252232150000E+01  0.223393617670E+01
  0.334400000000E+02 -0.252232150000E+01  0.155080000000E+01
  0.399671554963E+02 -0.252232150000E+01  0.212185211100E+01
  0.323868600000E+02 -0.269069950000E+01  0.155065050000E+01
  0.399591686950E+02 -0.269069950000E+01  0.221314166754E+01
  0.324021550000E+02 -0.269125050000E+01  0.155203300000E+01
  0.399591648435E+02 -0.269125050000E+01  0.221318569146E+01
  0.312004750000E+02 -0.184970250000E+01  0.155080000000E+01
  0.399501437879E+02 -0.184970250000E+01  0.231629682855E+01
  0.339679050000E+02  0.650473750000E-17  0.680000950000E+00
  0.400467718620E+02  0.650473750000E-17  0.121183288751E+01
  0.338537100000E+02  0.179480450000E-16  0.866884300000E+00
  0.400296784461E+02  0.179480450000E-16  0.140721152533E+01
  0.337343100000E+02  0.299134100000E-16  0.106229345000E+01
  0.400118052475E+02  0.299134100000E-16  0.161150311950E+01
  0.336149100000E+02  0.418787700000E-16  0.125770250000E+01
  0.399939320577E+02  0.418787700000E-16  0.181579461443E+01
  0.334955050000E+02  0.110240400002E-05  0.145310350000E+01
  0.399760595288E+02  0.110240400002E-05  0.202007855463E+01
  0.334876300000E+02  0.110240400004E-05  0.172526400000E+01
  0.399523696219E+02  0.110240400004E-05  0.229085542956E+01
  0.335912850000E+02  0.918737800000E-16  0.207418350000E+01
  0.399228623804E+02  0.918737800000E-16  0.262812474302E+01
  0.336949400000E+02  0.113238400000E-15  0.242309450000E+01
  0.398933558769E+02  0.113238400000E-15  0.296538562105E+01
  0.337985900000E+02  0.134603050000E-15  0.277200550000E+01
  0.398638493355E+02  0.134603050000E-15  0.330264693320E+01
  0.339022400000E+02  0.155967700000E-15  0.312091650000E+01
  0.398343427940E+02  0.155967700000E-15  0.363990824534E+01
  0.340058950000E+02  0.177332350000E-15  0.346982750000E+01
  0.398048362905E+02  0.177332350000E-15  0.397716912337E+01
  0.342131950000E+02  0.220061650000E-15  0.416764950000E+01
  0.397458232076E+02  0.220061650000E-15  0.465169174767E+01
  0.341095450000E+02  0.198697000000E-15  0.381873850000E+01
  0.397753297491E+02  0.198697000000E-15  0.431443043552E+01
LINES                  89                 267
2                   0                   1
2                   2                   3
2                   4                   5
2                   6                   7
2                   8                   9
2                  10                  11
2                  12                  13
2                  14                  15
2                  16                  17
2                  18                  19
2                  20                  21
2                  22                  23
2                  24                  25
2                  26                  27
2                  28                  29
2                  30                  31
2                  32                  33
2                  34                  35
2                  36                  37
2                  38                  39
2                  40                  41
2                  42                  43
2                  44                  45
2                  46                  47
2                  48                  49
2                  50                  51
2                  52                  53
2                  54                  55
2                  56                  57
2                  58                  59
2                  60                  61
2                  62                  63
2                  64                  65
2                  66                  67
2                  68                  69
2                  70                  71
2                  72                  73
2                  74                  75
2                  76                  77
2                  78                  79
2                  80                  81
2                  82                  83
2                  84                  85
2                  86                  87
2                  88                  89
2                  90                  91
2                  92                  93
2                  94                  95
2                  96                  97
2                  98                  99
2                 100                 101
2                 102                 103
2                 104                 105
2                 106                 107
2                 108                 109
2                 110                 111
2                 112                 113
2                 114                 115
2                 116                 117
2                 118                 119
2                 120                 121
2                 122                 123
2                 124                 125
2                 126                 127
2                 128                 129
2                 130                 131
2                 132                 133
2                 134                 135
2                 136                 137
2                 138                 139
2                 140                 141
2                 142                 143
2                 144                 145
2                 146                 147
2                 148                 149
2                 150                 151
2                 152                 153
2                 154                 155
2                 156                 157
2                 158                 159
2                 160                 161
2                 162                 163
2                 164                 165
2                 166                 167
2                 168                 169
2                 170                 171
2                 172                 173
2                 174                 175
2                 176                 177
POINT_DATA                 178
SCALARS Gamma float 1
LOOKUP_TABLE default
 -0.113558354890E-03
 -0.113558354890E-03
  0.758619493332E-03
  0.758619493332E-03
  0.591162741359E-01
  0.591162741359E-01
 -0.615215123670E-01
 -0.615215123670E-01
  0.271550897349E+00
  0.271550897349E+00
 -0.265553259771E+00
 -0.265553259771E+00
  0.420006607665E+00
  0.420006607665E+00
 -0.425023272794E+00
 -0.425023272794E+00
 -0.159415993951E-01
 -0.159415993951E-01
  0.491670540143E-01
  0.491670540143E-01
 -0.424355364895E-01
 -0.424355364895E-01
 -0.385287343890E-02
 -0.385287343890E-02
  0.911381234688E-02
  0.911381234688E-02
  0.254960704764E-01
  0.254960704764E-01
  0.136735827565E-01
  0.136735827565E-01
  0.576604010351E-01
  0.576604010351E-01
  0.667167094230E-01
  0.667167094230E-01
  0.590963927321E-01
  0.590963927321E-01
  0.664111752074E-01
  0.664111752074E-01
  0.789795980882E-01
  0.789795980882E-01
  0.681538427959E-01
  0.681538427959E-01
  0.607821133770E-01
  0.607821133770E-01
  0.463040968786E-01
  0.463040968786E-01
  0.510467373875E-01
  0.510467373875E-01
  0.161840026091E+00
  0.161840026091E+00
  0.155005823361E-01
  0.155005823361E-01
 -0.481085281139E-01
 -0.481085281139E-01
  0.389544982088E-02
  0.389544982088E-02
 -0.913118827307E-02
 -0.913118827307E-02
  0.420594521386E-01
  0.420594521386E-01
 -0.249573227535E-01
 -0.249573227535E-01
 -0.133190334960E-01
 -0.133190334960E-01
 -0.589317523812E-01
 -0.589317523812E-01
 -0.668130520882E-01
 -0.668130520882E-01
 -0.664275940299E-01
 -0.664275940299E-01
 -0.580542265702E-01
 -0.580542265702E-01
 -0.789849409504E-01
 -0.789849409504E-01
 -0.681756272097E-01
 -0.681756272097E-01
 -0.463115066891E-01
 -0.463115066891E-01
 -0.607815384943E-01
 -0.607815384943E-01
 -0.161848119688E+00
 -0.161848119688E+00
 -0.209304975707E+00
 -0.209304975707E+00
 -0.510434522015E-01
 -0.510434522015E-01
  0.141427228777E-03
  0.141427228777E-03
 -0.270097696239E-01
 -0.270097696239E-01
 -0.508234944100E-02
 -0.508234944100E-02
 -0.129430619912E-01
 -0.129430619912E-01
  0.477275505672E-02
  0.477275505672E-02
 -0.289463176691E-02
 -0.289463176691E-02
 -0.110966380930E-01
 -0.110966380930E-01
 -0.371429916281E-02
 -0.371429916281E-02
  0.328113204946E-03
  0.328113204946E-03
  0.149823247991E-01
  0.149823247991E-01
 -0.237046171010E-03
 -0.237046171010E-03
  0.520109840035E-02
  0.520109840035E-02
  0.564696470079E-01
  0.564696470079E-01
  0.929242684029E-01
  0.929242684029E-01
 -0.536125331614E-02
 -0.536125331614E-02
  0.101073504639E-01
  0.101073504639E-01
  0.192207260268E-02
  0.192207260268E-02
  0.318041905214E-02
  0.318041905214E-02
  0.268748531139E-01
  0.268748531139E-01
  0.133269559984E-01
  0.133269559984E-01
 -0.375517732840E-02
 -0.375517732840E-02
  0.104856594885E-01
  0.104856594885E-01
  0.314642919026E-02
  0.314642919026E-02
 -0.145351477400E-03
 -0.145351477400E-03
  0.216755675213E-02
  0.216755675213E-02
 -0.567812570856E-01
 -0.567812570856E-01
 -0.483168029350E-02
 -0.483168029350E-02
 -0.151095297504E-01
 -0.151095297504E-01
  0.385335079688E-02
  0.385335079688E-02
 -0.916459677158E-01
 -0.916459677158E-01
  0.132202018330E-03
  0.132202018330E-03
  0.480546914782E-03
  0.480546914782E-03
  0.374573194704E-03
  0.374573194704E-03
  0.749248505914E-04
  0.749248505914E-04
  0.376521244891E-03
  0.376521244891E-03
  0.257356179953E-04
  0.257356179953E-04
 -0.685042782578E-04
 -0.685042782578E-04
  0.290622938135E-03
  0.290622938135E-03
 -0.423035893633E-03
 -0.423035893633E-03
 -0.117555238940E-02
 -0.117555238940E-02
  0.615844076989E-03
  0.615844076989E-03
 -0.191663295053E-03
 -0.191663295053E-03
  0.580185640641E-03
  0.580185640641E-03
  0.257796623553E-04
  0.257796623553E-04
 -0.119805796932E-03
 -0.119805796932E-03
  0.870821988866E-03
  0.870821988866E-03
