# vtk DataFile Version 3.0
MachLine results file. Generated by MachLine, USU AeroLab (c) 2023.
ASCII
DATASET POLYDATA
POINTS                 328 float
  0.100003000695E+01  0.396644899107E-07  0.245492682927E-01
  0.999999166550E+00  0.406561021585E-07  0.000000000000E+00
  0.289750992947E+02  0.559501389721E+01  0.245492682927E-01
  0.289751129353E+02  0.559502279441E+01  0.000000000000E+00
  0.100006084734E+01  0.386728776629E-07  0.490985365854E-01
  0.100003000695E+01  0.396644899107E-07  0.245492682927E-01
  0.289750856540E+02  0.559500500001E+01  0.490985365854E-01
  0.289750992947E+02  0.559501389721E+01  0.245492682927E-01
  0.100009168774E+01  0.376812654152E-07  0.736478048780E-01
  0.100006084734E+01  0.386728776629E-07  0.490985365854E-01
  0.289750720134E+02  0.559499610280E+01  0.736478048780E-01
  0.289750856540E+02  0.559500500001E+01  0.490985365854E-01
  0.100012252813E+01  0.366896531674E-07  0.981970731707E-01
  0.100009168774E+01  0.376812654152E-07  0.736478048780E-01
  0.289750583727E+02  0.559498720560E+01  0.981970731707E-01
  0.289750720134E+02  0.559499610280E+01  0.736478048780E-01
  0.100015336853E+01  0.356980409196E-07  0.122746341463E+00
  0.100012252813E+01  0.366896531674E-07  0.981970731707E-01
  0.289750447320E+02  0.559497830840E+01  0.122746341463E+00
  0.289750583727E+02  0.559498720560E+01  0.981970731707E-01
  0.100018420892E+01  0.347064286719E-07  0.147295609756E+00
  0.100015336853E+01  0.356980409196E-07  0.122746341463E+00
  0.289750310914E+02  0.559496941120E+01  0.147295609756E+00
  0.289750447320E+02  0.559497830840E+01  0.122746341463E+00
  0.100021504932E+01  0.337148164241E-07  0.171844878049E+00
  0.100018420892E+01  0.347064286719E-07  0.147295609756E+00
  0.289750174507E+02  0.559496051400E+01  0.171844878049E+00
  0.289750310914E+02  0.559496941120E+01  0.147295609756E+00
  0.100024588971E+01  0.327232041763E-07  0.196394146341E+00
  0.100021504932E+01  0.337148164241E-07  0.171844878049E+00
  0.289750038101E+02  0.559495161680E+01  0.196394146341E+00
  0.289750174507E+02  0.559496051400E+01  0.171844878049E+00
  0.100027673011E+01  0.317315919286E-07  0.220943414634E+00
  0.100024588971E+01  0.327232041763E-07  0.196394146341E+00
  0.289749901694E+02  0.559494271959E+01  0.220943414634E+00
  0.289750038101E+02  0.559495161680E+01  0.196394146341E+00
  0.100030757050E+01  0.307399796808E-07  0.245492682927E+00
  0.100027673011E+01  0.317315919286E-07  0.220943414634E+00
  0.289749765288E+02  0.559493382239E+01  0.245492682927E+00
  0.289749901694E+02  0.559494271959E+01  0.220943414634E+00
  0.100033841090E+01  0.297483674330E-07  0.270041951220E+00
  0.100030757050E+01  0.307399796808E-07  0.245492682927E+00
  0.289749628881E+02  0.559492492519E+01  0.270041951220E+00
  0.289749765288E+02  0.559493382239E+01  0.245492682927E+00
  0.100036925129E+01  0.287567551853E-07  0.294591219512E+00
  0.100033841090E+01  0.297483674330E-07  0.270041951220E+00
  0.289749492474E+02  0.559491602799E+01  0.294591219512E+00
  0.289749628881E+02  0.559492492519E+01  0.270041951220E+00
  0.100040009169E+01  0.277651429375E-07  0.319140487805E+00
  0.100036925129E+01  0.287567551853E-07  0.294591219512E+00
  0.289749356068E+02  0.559490713078E+01  0.319140487805E+00
  0.289749492474E+02  0.559491602799E+01  0.294591219512E+00
  0.100043093208E+01  0.267735306897E-07  0.343689756098E+00
  0.100040009169E+01  0.277651429375E-07  0.319140487805E+00
  0.289749219661E+02  0.559489823358E+01  0.343689756098E+00
  0.289749356068E+02  0.559490713078E+01  0.319140487805E+00
  0.100046177248E+01  0.257819184420E-07  0.368239024390E+00
  0.100043093208E+01  0.267735306897E-07  0.343689756098E+00
  0.289749083255E+02  0.559488933638E+01  0.368239024390E+00
  0.289749219661E+02  0.559489823358E+01  0.343689756098E+00
  0.100049261288E+01  0.247903061942E-07  0.392788292683E+00
  0.100046177248E+01  0.257819184420E-07  0.368239024390E+00
  0.289748946848E+02  0.559488043917E+01  0.392788292683E+00
  0.289749083255E+02  0.559488933638E+01  0.368239024390E+00
  0.100052345327E+01  0.237986939464E-07  0.417337560976E+00
  0.100049261288E+01  0.247903061942E-07  0.392788292683E+00
  0.289748810441E+02  0.559487154197E+01  0.417337560976E+00
  0.289748946848E+02  0.559488043917E+01  0.392788292683E+00
  0.100055429367E+01  0.228070816987E-07  0.441886829268E+00
  0.100052345327E+01  0.237986939464E-07  0.417337560976E+00
  0.289748674035E+02  0.559486264477E+01  0.441886829268E+00
  0.289748810441E+02  0.559487154197E+01  0.417337560976E+00
  0.100058513406E+01  0.218154694509E-07  0.466436097561E+00
  0.100055429367E+01  0.228070816987E-07  0.441886829268E+00
  0.289748537628E+02  0.559485374757E+01  0.466436097561E+00
  0.289748674035E+02  0.559486264477E+01  0.441886829268E+00
  0.100061597446E+01  0.208238572031E-07  0.490985365854E+00
  0.100058513406E+01  0.218154694509E-07  0.466436097561E+00
  0.289748401222E+02  0.559484485037E+01  0.490985365854E+00
  0.289748537628E+02  0.559485374757E+01  0.466436097561E+00
  0.100064681485E+01  0.198322449554E-07  0.515534634146E+00
  0.100061597446E+01  0.208238572031E-07  0.490985365854E+00
  0.289748264815E+02  0.559483595317E+01  0.515534634146E+00
  0.289748401222E+02  0.559484485037E+01  0.490985365854E+00
  0.100067765525E+01  0.188406327076E-07  0.540083902439E+00
  0.100064681485E+01  0.198322449554E-07  0.515534634146E+00
  0.289748128409E+02  0.559482705596E+01  0.540083902439E+00
  0.289748264815E+02  0.559483595317E+01  0.515534634146E+00
  0.100070849564E+01  0.178490204598E-07  0.564633170732E+00
  0.100067765525E+01  0.188406327076E-07  0.540083902439E+00
  0.289747992002E+02  0.559481815876E+01  0.564633170732E+00
  0.289748128409E+02  0.559482705596E+01  0.540083902439E+00
  0.100073933604E+01  0.168574082121E-07  0.589182439024E+00
  0.100070849564E+01  0.178490204598E-07  0.564633170732E+00
  0.289747855595E+02  0.559480926156E+01  0.589182439024E+00
  0.289747992002E+02  0.559481815876E+01  0.564633170732E+00
  0.100077017643E+01  0.158657959643E-07  0.613731707317E+00
  0.100073933604E+01  0.168574082121E-07  0.589182439024E+00
  0.289747719189E+02  0.559480036436E+01  0.613731707317E+00
  0.289747855595E+02  0.559480926156E+01  0.589182439024E+00
  0.100080101683E+01  0.148741837165E-07  0.638280975610E+00
  0.100077017643E+01  0.158657959643E-07  0.613731707317E+00
  0.289747582782E+02  0.559479146715E+01  0.638280975610E+00
  0.289747719189E+02  0.559480036436E+01  0.613731707317E+00
  0.100083185722E+01  0.138825714687E-07  0.662830243902E+00
  0.100080101683E+01  0.148741837165E-07  0.638280975610E+00
  0.289747446376E+02  0.559478256995E+01  0.662830243902E+00
  0.289747582782E+02  0.559479146715E+01  0.638280975610E+00
  0.100086269762E+01  0.128909592210E-07  0.687379512195E+00
  0.100083185722E+01  0.138825714687E-07  0.662830243902E+00
  0.289747309969E+02  0.559477367275E+01  0.687379512195E+00
  0.289747446376E+02  0.559478256995E+01  0.662830243902E+00
  0.100089353801E+01  0.118993469732E-07  0.711928780488E+00
  0.100086269762E+01  0.128909592210E-07  0.687379512195E+00
  0.289747173563E+02  0.559476477555E+01  0.711928780488E+00
  0.289747309969E+02  0.559477367275E+01  0.687379512195E+00
  0.100092437841E+01  0.109077347254E-07  0.736478048780E+00
  0.100089353801E+01  0.118993469732E-07  0.711928780488E+00
  0.289747037156E+02  0.559475587834E+01  0.736478048780E+00
  0.289747173563E+02  0.559476477555E+01  0.711928780488E+00
  0.100095521881E+01  0.991612247768E-08  0.761027317073E+00
  0.100092437841E+01  0.109077347254E-07  0.736478048780E+00
  0.289746900749E+02  0.559474698114E+01  0.761027317073E+00
  0.289747037156E+02  0.559475587834E+01  0.736478048780E+00
  0.100101689960E+01  0.793289798214E-08  0.810125853659E+00
  0.100098605920E+01  0.892451022991E-08  0.785576585366E+00
  0.289746627936E+02  0.559472918674E+01  0.810125853659E+00
  0.289746764343E+02  0.559473808394E+01  0.785576585366E+00
  0.100098605920E+01  0.892451022991E-08  0.785576585366E+00
  0.100095521881E+01  0.991612247768E-08  0.761027317073E+00
  0.289746764343E+02  0.559473808394E+01  0.785576585366E+00
  0.289746900749E+02  0.559474698114E+01  0.761027317073E+00
  0.100104773999E+01  0.694128573437E-08  0.834675121951E+00
  0.100101689960E+01  0.793289798214E-08  0.810125853659E+00
  0.289746491530E+02  0.559472028954E+01  0.834675121951E+00
  0.289746627936E+02  0.559472918674E+01  0.810125853659E+00
  0.100107858039E+01  0.594967348661E-08  0.859224390244E+00
  0.100104773999E+01  0.694128573437E-08  0.834675121951E+00
  0.289746355123E+02  0.559471139233E+01  0.859224390244E+00
  0.289746491530E+02  0.559472028954E+01  0.834675121951E+00
  0.100110942078E+01  0.495806123884E-08  0.883773658537E+00
  0.100107858039E+01  0.594967348661E-08  0.859224390244E+00
  0.289746218716E+02  0.559470249513E+01  0.883773658537E+00
  0.289746355123E+02  0.559471139233E+01  0.859224390244E+00
  0.100114026118E+01  0.396644899107E-08  0.908322926829E+00
  0.100110942078E+01  0.495806123884E-08  0.883773658537E+00
  0.289746082310E+02  0.559469359793E+01  0.908322926829E+00
  0.289746218716E+02  0.559470249513E+01  0.883773658537E+00
  0.100120194197E+01  0.198322449554E-08  0.957421463415E+00
  0.100117110157E+01  0.297483674330E-08  0.932872195122E+00
  0.289745809497E+02  0.559467580352E+01  0.957421463415E+00
  0.289745945903E+02  0.559468470073E+01  0.932872195122E+00
  0.100117110157E+01  0.297483674330E-08  0.932872195122E+00
  0.100114026118E+01  0.396644899107E-08  0.908322926829E+00
  0.289745945903E+02  0.559468470073E+01  0.932872195122E+00
  0.289746082310E+02  0.559469359793E+01  0.908322926829E+00
  0.100123278236E+01  0.991612247768E-09  0.981970731707E+00
  0.100120194197E+01  0.198322449554E-08  0.957421463415E+00
  0.289745673090E+02  0.559466690632E+01  0.981970731707E+00
  0.289745809497E+02  0.559467580352E+01  0.957421463415E+00
  0.100126362276E+01  0.000000000000E+00  0.100652000000E+01
[...]
POINT_DATA                 328
SCALARS mu float 1
LOOKUP_TABLE default
  0.575018853294E-01
  0.163621237802E-01
  0.575018853294E-01
  0.163621237802E-01
  0.325182977253E-01
  0.575018853294E-01
  0.325182977253E-01
  0.575018853294E-01
  0.207768497186E+00
  0.325182977253E-01
  0.207768497186E+00
  0.325182977253E-01
  0.143357331812E+00
  0.207768497186E+00
  0.143357331812E+00
  0.207768497186E+00
  0.408983951754E-01
  0.143357331812E+00
  0.408983951754E-01
  0.143357331812E+00
  0.122156721154E+00
  0.408983951754E-01
  0.122156721154E+00
  0.408983951754E-01
  0.411709956119E-01
  0.122156721154E+00
  0.411709956119E-01
  0.122156721154E+00
  0.176687460702E+00
  0.411709956119E-01
  0.176687460702E+00
  0.411709956119E-01
  0.183510429151E+00
  0.176687460702E+00
  0.183510429151E+00
  0.176687460702E+00
  0.583197600325E-01
  0.183510429151E+00
  0.583197600325E-01
  0.183510429151E+00
  0.119677809141E+00
  0.583197600325E-01
  0.119677809141E+00
  0.583197600325E-01
  0.436031698936E-01
  0.119677809141E+00
  0.436031698936E-01
  0.119677809141E+00
  0.125486593042E+00
  0.436031698936E-01
  0.125486593042E+00
  0.436031698936E-01
  0.194935081937E+00
  0.125486593042E+00
  0.194935081937E+00
  0.125486593042E+00
  0.873835679596E-01
  0.194935081937E+00
  0.873835679596E-01
  0.194935081937E+00
  0.883442954002E-01
  0.873835679596E-01
  0.883442954002E-01
  0.873835679596E-01
  0.735458073536E-01
  0.883442954002E-01
  0.735458073536E-01
  0.883442954002E-01
  0.904230278209E-01
  0.735458073536E-01
  0.904230278209E-01
  0.735458073536E-01
  0.175240284270E+00
  0.904230278209E-01
  0.175240284270E+00
  0.904230278209E-01
  0.126718306857E+00
  0.175240284270E+00
  0.126718306857E+00
  0.175240284270E+00
  0.873640264166E-01
  0.126718306857E+00
  0.873640264166E-01
  0.126718306857E+00
  0.135729850343E+00
  0.873640264166E-01
  0.135729850343E+00
  0.873640264166E-01
  0.858722447237E-01
  0.135729850343E+00
  0.858722447237E-01
  0.135729850343E+00
  0.129578709378E+00
  0.858722447237E-01
  0.129578709378E+00
  0.858722447237E-01
  0.136682289678E+00
  0.129578709378E+00
  0.136682289678E+00
  0.129578709378E+00
  0.992897178459E-01
  0.136682289678E+00
  0.992897178459E-01
  0.136682289678E+00
  0.100921461881E+00
  0.992897178459E-01
  0.100921461881E+00
  0.992897178459E-01
  0.112621853937E+00
  0.100921461881E+00
  0.112621853937E+00
  0.100921461881E+00
  0.850252992228E-01
  0.112621853937E+00
  0.850252992228E-01
  0.112621853937E+00
  0.100111905359E+00
  0.850252992228E-01
  0.100111905359E+00
  0.850252992228E-01
  0.986203281672E-01
  0.100111905359E+00
  0.986203281672E-01
  0.100111905359E+00
  0.680143334574E-01
  0.717332245141E-01
  0.680143334574E-01
  0.717332245141E-01
  0.717332245141E-01
  0.986203281672E-01
  0.717332245141E-01
  0.986203281672E-01
  0.532383118400E-01
  0.680143334574E-01
  0.532383118400E-01
  0.680143334574E-01
  0.522051785090E-01
  0.532383118400E-01
  0.522051785090E-01
  0.532383118400E-01
  0.594647768503E-01
  0.522051785090E-01
  0.594647768503E-01
  0.522051785090E-01
  0.471053084624E-01
  0.594647768503E-01
  0.471053084624E-01
  0.594647768503E-01
  0.256739522296E-01
  0.380355463190E-01
  0.256739522296E-01
  0.380355463190E-01
  0.380355463190E-01
  0.471053084624E-01
  0.380355463190E-01
  0.471053084624E-01
  0.417023349909E-02
  0.256739522296E-01
  0.417023349909E-02
  0.256739522296E-01
  0.000000000000E+00
  0.417023349909E-02
  0.000000000000E+00
  0.417023349909E-02
  0.163621237802E-01
  0.575018847193E-01
  0.163621237802E-01
  0.575018847193E-01
  0.575018847193E-01
  0.325182973103E-01
  0.575018847193E-01
  0.325182973103E-01
  0.325182973103E-01
  0.207768497469E+00
  0.325182973103E-01
  0.207768497469E+00
  0.207768497469E+00
  0.143357331037E+00
  0.207768497469E+00
  0.143357331037E+00
  0.143357331037E+00
  0.408983934182E-01
  0.143357331037E+00
  0.408983934182E-01
  0.408983934182E-01
  0.122156721129E+00
  0.408983934182E-01
  0.122156721129E+00
  0.122156721129E+00
  0.411709977966E-01
  0.122156721129E+00
  0.411709977966E-01
  0.411709977966E-01
  0.176687458747E+00
  0.411709977966E-01
  0.176687458747E+00
  0.176687458747E+00
  0.183510429421E+00
  0.176687458747E+00
  0.183510429421E+00
  0.183510429421E+00
  0.583197589249E-01
  0.183510429421E+00
  0.583197589249E-01
  0.583197589249E-01
  0.119677809771E+00
  0.583197589249E-01
  0.119677809771E+00
  0.119677809771E+00
  0.436031692852E-01
  0.119677809771E+00
  0.436031692852E-01
  0.436031692852E-01
  0.125486592904E+00
  0.436031692852E-01
  0.125486592904E+00
  0.125486592904E+00
  0.194935081717E+00
  0.125486592904E+00
  0.194935081717E+00
  0.194935081717E+00
  0.873835669313E-01
  0.194935081717E+00
  0.873835669313E-01
  0.873835669313E-01
  0.883442979809E-01
  0.873835669313E-01
  0.883442979809E-01
  0.883442979809E-01
  0.735458071019E-01
  0.883442979809E-01
  0.735458071019E-01
  0.735458071019E-01
  0.904230266518E-01
  0.735458071019E-01
  0.904230266518E-01
  0.904230266518E-01
  0.175240284921E+00
  0.904230266518E-01
  0.175240284921E+00
  0.175240284921E+00
  0.126718306138E+00
  0.175240284921E+00
  0.126718306138E+00
  0.126718306138E+00
  0.873640267330E-01
  0.126718306138E+00
  0.873640267330E-01
  0.873640267330E-01
  0.135729851761E+00
  0.873640267330E-01
  0.135729851761E+00
  0.135729851761E+00
  0.858722441569E-01
  0.135729851761E+00
  0.858722441569E-01
  0.858722441569E-01
  0.129578709500E+00
  0.858722441569E-01
  0.129578709500E+00
  0.129578709500E+00
  0.136682289827E+00
  0.129578709500E+00
  0.136682289827E+00
  0.136682289827E+00
  0.992897182495E-01
  0.136682289827E+00
  0.992897182495E-01
  0.992897182495E-01
  0.100921461337E+00
  0.992897182495E-01
  0.100921461337E+00
  0.100921461337E+00
  0.112621854409E+00
  0.100921461337E+00
  0.112621854409E+00
  0.112621854409E+00
  0.850252989182E-01
  0.112621854409E+00
  0.850252989182E-01
  0.850252989182E-01
  0.100111904825E+00
  0.850252989182E-01
  0.100111904825E+00
  0.100111904825E+00
  0.986203289829E-01
  0.100111904825E+00
  0.986203289829E-01
  0.986203289829E-01
  0.717332233795E-01
  0.986203289829E-01
  0.717332233795E-01
  0.717332233795E-01
  0.680143348382E-01
  0.717332233795E-01
  0.680143348382E-01
  0.532383113910E-01
  0.522051781521E-01
  0.532383113910E-01
  0.522051781521E-01
  0.680143348382E-01
  0.532383113910E-01
  0.680143348382E-01
  0.532383113910E-01
  0.522051781521E-01
  0.594647775488E-01
  0.522051781521E-01
  0.594647775488E-01
  0.594647775488E-01
  0.471053082580E-01
  0.594647775488E-01
  0.471053082580E-01
  0.380355462337E-01
  0.256739520993E-01
  0.380355462337E-01
  0.256739520993E-01
  0.471053082580E-01
  0.380355462337E-01
  0.471053082580E-01
  0.380355462337E-01
  0.417023357726E-02
  0.000000000000E+00
  0.417023357726E-02
  0.000000000000E+00
  0.256739520993E-01
  0.417023357726E-02
  0.256739520993E-01
  0.417023357726E-02
