# vtk DataFile Version 3.0
MachLine results file. Generated by MachLine, USU AeroLab (c) 2023.
ASCII
DATASET POLYDATA
POINTS                 224 float
  0.100004432570E+01  0.392040985100E-07  0.359471428571E-01
  0.999999166550E+00  0.406561021585E-07  0.000000000000E+00
  0.597121328377E+02  0.587120889040E+01  0.359471428571E-01
  0.597121323904E+02  0.587121336304E+01  0.000000000000E+00
  0.100008948485E+01  0.377520948614E-07  0.718942857143E-01
  0.100004432570E+01  0.392040985100E-07  0.359471428571E-01
  0.597121332849E+02  0.587120441776E+01  0.718942857143E-01
  0.597121328377E+02  0.587120889040E+01  0.359471428571E-01
  0.100013464400E+01  0.363000912129E-07  0.107841428571E+00
  0.100008948485E+01  0.377520948614E-07  0.718942857143E-01
  0.597121337322E+02  0.587119994512E+01  0.107841428571E+00
  0.597121332849E+02  0.587120441776E+01  0.718942857143E-01
  0.100017980315E+01  0.348480875644E-07  0.143788571429E+00
  0.100013464400E+01  0.363000912129E-07  0.107841428571E+00
  0.597121341795E+02  0.587119547248E+01  0.143788571429E+00
  0.597121337322E+02  0.587119994512E+01  0.107841428571E+00
  0.100022496230E+01  0.333960839159E-07  0.179735714286E+00
  0.100017980315E+01  0.348480875644E-07  0.143788571429E+00
  0.597121346267E+02  0.587119099984E+01  0.179735714286E+00
  0.597121341795E+02  0.587119547248E+01  0.143788571429E+00
  0.100027012145E+01  0.319440802674E-07  0.215682857143E+00
  0.100022496230E+01  0.333960839159E-07  0.179735714286E+00
  0.597121350740E+02  0.587118652720E+01  0.215682857143E+00
  0.597121346267E+02  0.587119099984E+01  0.179735714286E+00
  0.100031528060E+01  0.304920766189E-07  0.251630000000E+00
  0.100027012145E+01  0.319440802674E-07  0.215682857143E+00
  0.597121355213E+02  0.587118205456E+01  0.251630000000E+00
  0.597121350740E+02  0.587118652720E+01  0.215682857143E+00
  0.100036043975E+01  0.290400729703E-07  0.287577142857E+00
  0.100031528060E+01  0.304920766189E-07  0.251630000000E+00
  0.597121359685E+02  0.587117758192E+01  0.287577142857E+00
  0.597121355213E+02  0.587118205456E+01  0.251630000000E+00
  0.100040559890E+01  0.275880693218E-07  0.323524285714E+00
  0.100036043975E+01  0.290400729703E-07  0.287577142857E+00
  0.597121364158E+02  0.587117310928E+01  0.323524285714E+00
  0.597121359685E+02  0.587117758192E+01  0.287577142857E+00
  0.100045075805E+01  0.261360656733E-07  0.359471428571E+00
  0.100040559890E+01  0.275880693218E-07  0.323524285714E+00
  0.597121368631E+02  0.587116863664E+01  0.359471428571E+00
  0.597121364158E+02  0.587117310928E+01  0.323524285714E+00
  0.100049591720E+01  0.246840620248E-07  0.395418571429E+00
  0.100045075805E+01  0.261360656733E-07  0.359471428571E+00
  0.597121373103E+02  0.587116416400E+01  0.395418571429E+00
  0.597121368631E+02  0.587116863664E+01  0.359471428571E+00
  0.100054107635E+01  0.232320583763E-07  0.431365714286E+00
  0.100049591720E+01  0.246840620248E-07  0.395418571429E+00
  0.597121377576E+02  0.587115969136E+01  0.431365714286E+00
  0.597121373103E+02  0.587116416400E+01  0.395418571429E+00
  0.100058623550E+01  0.217800547278E-07  0.467312857143E+00
  0.100054107635E+01  0.232320583763E-07  0.431365714286E+00
  0.597121382049E+02  0.587115521872E+01  0.467312857143E+00
  0.597121377576E+02  0.587115969136E+01  0.431365714286E+00
  0.100063139465E+01  0.203280510792E-07  0.503260000000E+00
  0.100058623550E+01  0.217800547278E-07  0.467312857143E+00
  0.597121386521E+02  0.587115074607E+01  0.503260000000E+00
  0.597121382049E+02  0.587115521872E+01  0.467312857143E+00
  0.100067655380E+01  0.188760474307E-07  0.539207142857E+00
  0.100063139465E+01  0.203280510792E-07  0.503260000000E+00
  0.597121390994E+02  0.587114627343E+01  0.539207142857E+00
  0.597121386521E+02  0.587115074607E+01  0.503260000000E+00
  0.100076687211E+01  0.159720401337E-07  0.611101428571E+00
  0.100072171295E+01  0.174240437822E-07  0.575154285714E+00
  0.597121399939E+02  0.587113732815E+01  0.611101428571E+00
  0.597121395466E+02  0.587114180079E+01  0.575154285714E+00
  0.100072171295E+01  0.174240437822E-07  0.575154285714E+00
  0.100067655380E+01  0.188760474307E-07  0.539207142857E+00
  0.597121395466E+02  0.587114180079E+01  0.575154285714E+00
  0.597121390994E+02  0.587114627343E+01  0.539207142857E+00
  0.100081203126E+01  0.145200364852E-07  0.647048571429E+00
  0.100076687211E+01  0.159720401337E-07  0.611101428571E+00
  0.597121404412E+02  0.587113285551E+01  0.647048571429E+00
  0.597121399939E+02  0.587113732815E+01  0.611101428571E+00
  0.100085719041E+01  0.130680328367E-07  0.682995714286E+00
  0.100081203126E+01  0.145200364852E-07  0.647048571429E+00
  0.597121408884E+02  0.587112838287E+01  0.682995714286E+00
  0.597121404412E+02  0.587113285551E+01  0.647048571429E+00
  0.100090234956E+01  0.116160291881E-07  0.718942857143E+00
  0.100085719041E+01  0.130680328367E-07  0.682995714286E+00
  0.597121413357E+02  0.587112391023E+01  0.718942857143E+00
  0.597121408884E+02  0.587112838287E+01  0.682995714286E+00
  0.100094750871E+01  0.101640255396E-07  0.754890000000E+00
  0.100090234956E+01  0.116160291881E-07  0.718942857143E+00
  0.597121417830E+02  0.587111943759E+01  0.754890000000E+00
  0.597121413357E+02  0.587112391023E+01  0.718942857143E+00
  0.100099266786E+01  0.871202189110E-08  0.790837142857E+00
  0.100094750871E+01  0.101640255396E-07  0.754890000000E+00
  0.597121422302E+02  0.587111496495E+01  0.790837142857E+00
  0.597121417830E+02  0.587111943759E+01  0.754890000000E+00
  0.100103782701E+01  0.726001824259E-08  0.826784285714E+00
  0.100099266786E+01  0.871202189110E-08  0.790837142857E+00
  0.597121426775E+02  0.587111049231E+01  0.826784285714E+00
  0.597121422302E+02  0.587111496495E+01  0.790837142857E+00
  0.100117330446E+01  0.290400729703E-08  0.934625714286E+00
  0.100112814531E+01  0.435601094555E-08  0.898678571429E+00
  0.597121440193E+02  0.587109707439E+01  0.934625714286E+00
  0.597121435720E+02  0.587110154703E+01  0.898678571429E+00
  0.100108298616E+01  0.580801459407E-08  0.862731428571E+00
  0.100103782701E+01  0.726001824259E-08  0.826784285714E+00
  0.597121431248E+02  0.587110601967E+01  0.862731428571E+00
  0.597121426775E+02  0.587111049231E+01  0.826784285714E+00
  0.100121846361E+01  0.145200364852E-08  0.970572857143E+00
  0.100117330446E+01  0.290400729703E-08  0.934625714286E+00
  0.597121444666E+02  0.587109260175E+01  0.970572857143E+00
  0.597121440193E+02  0.587109707439E+01  0.934625714286E+00
  0.100126362276E+01  0.000000000000E+00  0.100652000000E+01
  0.100121846361E+01  0.145200364852E-08  0.970572857143E+00
  0.597121449138E+02  0.587108812911E+01  0.100652000000E+01
  0.597121444666E+02  0.587109260175E+01  0.970572857143E+00
  0.100112814531E+01  0.435601094555E-08  0.898678571429E+00
  0.100108298616E+01  0.580801459407E-08  0.862731428571E+00
  0.597121435720E+02  0.587110154703E+01  0.898678571429E+00
  0.597121431248E+02  0.587110601967E+01  0.862731428571E+00
  0.999999166550E+00  0.406561021585E-07  0.000000000000E+00
  0.100004432570E+01  0.392040985100E-07 -0.359471428571E-01
  0.597121323904E+02  0.587121336304E+01  0.000000000000E+00
  0.597121328377E+02  0.587120889040E+01 -0.359471428571E-01
  0.100004432570E+01  0.392040985100E-07 -0.359471428571E-01
  0.100008948485E+01  0.377520948614E-07 -0.718942857143E-01
  0.597121328377E+02  0.587120889040E+01 -0.359471428571E-01
  0.597121332849E+02  0.587120441776E+01 -0.718942857143E-01
  0.100008948485E+01  0.377520948614E-07 -0.718942857143E-01
  0.100013464400E+01  0.363000912129E-07 -0.107841428571E+00
  0.597121332849E+02  0.587120441776E+01 -0.718942857143E-01
  0.597121337322E+02  0.587119994512E+01 -0.107841428571E+00
  0.100013464400E+01  0.363000912129E-07 -0.107841428571E+00
  0.100017980315E+01  0.348480875644E-07 -0.143788571429E+00
  0.597121337322E+02  0.587119994512E+01 -0.107841428571E+00
  0.597121341795E+02  0.587119547248E+01 -0.143788571429E+00
  0.100017980315E+01  0.348480875644E-07 -0.143788571429E+00
  0.100022496230E+01  0.333960839159E-07 -0.179735714286E+00
  0.597121341795E+02  0.587119547248E+01 -0.143788571429E+00
  0.597121346267E+02  0.587119099984E+01 -0.179735714286E+00
  0.100022496230E+01  0.333960839159E-07 -0.179735714286E+00
  0.100027012145E+01  0.319440802674E-07 -0.215682857143E+00
  0.597121346267E+02  0.587119099984E+01 -0.179735714286E+00
  0.597121350740E+02  0.587118652720E+01 -0.215682857143E+00
  0.100027012145E+01  0.319440802674E-07 -0.215682857143E+00
  0.100031528060E+01  0.304920766189E-07 -0.251630000000E+00
  0.597121350740E+02  0.587118652720E+01 -0.215682857143E+00
  0.597121355213E+02  0.587118205456E+01 -0.251630000000E+00
  0.100031528060E+01  0.304920766189E-07 -0.251630000000E+00
  0.100036043975E+01  0.290400729703E-07 -0.287577142857E+00
  0.597121355213E+02  0.587118205456E+01 -0.251630000000E+00
  0.597121359685E+02  0.587117758192E+01 -0.287577142857E+00
  0.100036043975E+01  0.290400729703E-07 -0.287577142857E+00
  0.100040559890E+01  0.275880693218E-07 -0.323524285714E+00
  0.597121359685E+02  0.587117758192E+01 -0.287577142857E+00
  0.597121364158E+02  0.587117310928E+01 -0.323524285714E+00
  0.100040559890E+01  0.275880693218E-07 -0.323524285714E+00
  0.100045075805E+01  0.261360656733E-07 -0.359471428571E+00
  0.597121364158E+02  0.587117310928E+01 -0.323524285714E+00
  0.597121368631E+02  0.587116863664E+01 -0.359471428571E+00
  0.100045075805E+01  0.261360656733E-07 -0.359471428571E+00
  0.100049591720E+01  0.246840620248E-07 -0.395418571429E+00
  0.597121368631E+02  0.587116863664E+01 -0.359471428571E+00
  0.597121373103E+02  0.587116416400E+01 -0.395418571429E+00
  0.100049591720E+01  0.246840620248E-07 -0.395418571429E+00
  0.100054107635E+01  0.232320583763E-07 -0.431365714286E+00
  0.597121373103E+02  0.587116416400E+01 -0.395418571429E+00
  0.597121377576E+02  0.587115969136E+01 -0.431365714286E+00
  0.100054107635E+01  0.232320583763E-07 -0.431365714286E+00
[...]
POINT_DATA                 224
SCALARS mu float 1
POINTS                 112 float
  0.100002174613E+01  0.399301003343E-07  0.179735714286E-01
  0.199106450057E+02  0.189106236588E+01  0.179735714286E-01
  0.100011206443E+01  0.370260930372E-07  0.898678571426E-01
  0.199106459002E+02  0.189105342060E+01  0.898678571426E-01
  0.100006690527E+01  0.384780966857E-07  0.539207142857E-01
  0.199106454529E+02  0.189105789324E+01  0.539207142857E-01
  0.100015722358E+01  0.355740893887E-07  0.125815000000E+00
  0.199106463474E+02  0.189104894796E+01  0.125815000000E+00
  0.100020238272E+01  0.341220857401E-07  0.161762142858E+00
  0.199106467947E+02  0.189104447532E+01  0.161762142858E+00
  0.100024754187E+01  0.326700820917E-07  0.197709285714E+00
  0.199106472420E+02  0.189104000268E+01  0.197709285714E+00
  0.100029270103E+01  0.312180784431E-07  0.233656428572E+00
  0.199106476892E+02  0.189103553004E+01  0.233656428572E+00
  0.100033786018E+01  0.297660747946E-07  0.269603571428E+00
  0.199106481365E+02  0.189103105740E+01  0.269603571428E+00
  0.100042817847E+01  0.268620674975E-07  0.341497857143E+00
  0.199106490310E+02  0.189102211212E+01  0.341497857143E+00
  0.100038301933E+01  0.283140711461E-07  0.305550714285E+00
  0.199106485838E+02  0.189102658476E+01  0.305550714285E+00
  0.100047333762E+01  0.254100638491E-07  0.377445000000E+00
  0.199106494783E+02  0.189101763948E+01  0.377445000000E+00
  0.100051849678E+01  0.239580602006E-07  0.413392142858E+00
  0.199106499256E+02  0.189101316684E+01  0.413392142858E+00
  0.100056365592E+01  0.225060565520E-07  0.449339285714E+00
  0.199106503728E+02  0.189100869420E+01  0.449339285714E+00
  0.100060881508E+01  0.210540529035E-07  0.485286428572E+00
  0.199106508201E+02  0.189100422156E+01  0.485286428572E+00
  0.100065397423E+01  0.196020492550E-07  0.521233571429E+00
  0.199106512674E+02  0.189099974891E+01  0.521233571429E+00
  0.100069913337E+01  0.181500456064E-07  0.557180714285E+00
  0.199106517146E+02  0.189099527627E+01  0.557180714285E+00
  0.100074429253E+01  0.166980419580E-07  0.593127857143E+00
  0.199106521619E+02  0.189099080363E+01  0.593127857143E+00
  0.100083461084E+01  0.137940346609E-07  0.665022142858E+00
  0.199106530564E+02  0.189098185835E+01  0.665022142858E+00
  0.100078945168E+01  0.152460383094E-07  0.629075000000E+00
  0.199106526091E+02  0.189098633099E+01  0.629075000000E+00
  0.100087976999E+01  0.123420310124E-07  0.700969285715E+00
  0.199106535037E+02  0.189097738571E+01  0.700969285715E+00
  0.100092492913E+01  0.108900273638E-07  0.736916428571E+00
  0.199106539509E+02  0.189097291307E+01  0.736916428571E+00
  0.100106040658E+01  0.653401641833E-08  0.844757857143E+00
  0.199106552927E+02  0.189095949515E+01  0.844757857143E+00
  0.100097008828E+01  0.943802371535E-08  0.772863571428E+00
  0.199106543982E+02  0.189096844043E+01  0.772863571428E+00
  0.100101524744E+01  0.798602006685E-08  0.808810714285E+00
  0.199106548455E+02  0.189096396779E+01  0.808810714285E+00
  0.100115072489E+01  0.363000912129E-08  0.916652142858E+00
  0.199106561873E+02  0.189095054987E+01  0.916652142858E+00
  0.100119588403E+01  0.217800547278E-08  0.952599285715E+00
  0.199106566345E+02  0.189094607723E+01  0.952599285715E+00
  0.100124104319E+01  0.726001824260E-09  0.988546428571E+00
  0.199106570818E+02  0.189094160459E+01  0.988546428571E+00
  0.100110556574E+01  0.508201276981E-08  0.880705000000E+00
  0.199106557400E+02  0.189095502251E+01  0.880705000000E+00
  0.100002174613E+01  0.399301003343E-07 -0.179735714286E-01
  0.199106450057E+02  0.189106236588E+01 -0.179735714286E-01
  0.100006690527E+01  0.384780966857E-07 -0.539207142857E-01
  0.199106454529E+02  0.189105789324E+01 -0.539207142857E-01
  0.100011206443E+01  0.370260930372E-07 -0.898678571426E-01
  0.199106459002E+02  0.189105342060E+01 -0.898678571426E-01
  0.100015722358E+01  0.355740893887E-07 -0.125815000000E+00
  0.199106463474E+02  0.189104894796E+01 -0.125815000000E+00
  0.100020238272E+01  0.341220857401E-07 -0.161762142858E+00
  0.199106467947E+02  0.189104447532E+01 -0.161762142858E+00
  0.100024754187E+01  0.326700820917E-07 -0.197709285714E+00
  0.199106472420E+02  0.189104000268E+01 -0.197709285714E+00
  0.100033786018E+01  0.297660747946E-07 -0.269603571428E+00
  0.199106481365E+02  0.189103105740E+01 -0.269603571428E+00
  0.100029270103E+01  0.312180784431E-07 -0.233656428572E+00
  0.199106476892E+02  0.189103553004E+01 -0.233656428572E+00
  0.100038301933E+01  0.283140711461E-07 -0.305550714285E+00
  0.199106485838E+02  0.189102658476E+01 -0.305550714285E+00
  0.100042817847E+01  0.268620674975E-07 -0.341497857143E+00
  0.199106490310E+02  0.189102211212E+01 -0.341497857143E+00
  0.100047333762E+01  0.254100638491E-07 -0.377445000000E+00
  0.199106494783E+02  0.189101763948E+01 -0.377445000000E+00
  0.100051849678E+01  0.239580602006E-07 -0.413392142858E+00
  0.199106499256E+02  0.189101316684E+01 -0.413392142858E+00
  0.100056365592E+01  0.225060565520E-07 -0.449339285714E+00
  0.199106503728E+02  0.189100869420E+01 -0.449339285714E+00
  0.100060881508E+01  0.210540529035E-07 -0.485286428572E+00
  0.199106508201E+02  0.189100422156E+01 -0.485286428572E+00
  0.100065397423E+01  0.196020492550E-07 -0.521233571429E+00
  0.199106512674E+02  0.189099974891E+01 -0.521233571429E+00
  0.100069913337E+01  0.181500456064E-07 -0.557180714285E+00
  0.199106517146E+02  0.189099527627E+01 -0.557180714285E+00
  0.100074429253E+01  0.166980419580E-07 -0.593127857143E+00
  0.199106521619E+02  0.189099080363E+01 -0.593127857143E+00
  0.100078945168E+01  0.152460383094E-07 -0.629075000000E+00
  0.199106526091E+02  0.189098633099E+01 -0.629075000000E+00
  0.100087976999E+01  0.123420310124E-07 -0.700969285715E+00
  0.199106535037E+02  0.189097738571E+01 -0.700969285715E+00
  0.100092492913E+01  0.108900273638E-07 -0.736916428571E+00
  0.199106539509E+02  0.189097291307E+01 -0.736916428571E+00
  0.100083461084E+01  0.137940346609E-07 -0.665022142858E+00
  0.199106530564E+02  0.189098185835E+01 -0.665022142858E+00
  0.100106040658E+01  0.653401641833E-08 -0.844757857143E+00
  0.199106552927E+02  0.189095949515E+01 -0.844757857143E+00
  0.100115072489E+01  0.363000912129E-08 -0.916652142858E+00
  0.199106561873E+02  0.189095054987E+01 -0.916652142858E+00
  0.100119588403E+01  0.217800547278E-08 -0.952599285715E+00
  0.199106566345E+02  0.189094607723E+01 -0.952599285715E+00
  0.100110556574E+01  0.508201276981E-08 -0.880705000000E+00
  0.199106557400E+02  0.189095502251E+01 -0.880705000000E+00
  0.100124104319E+01  0.726001824260E-09 -0.988546428571E+00
  0.199106570818E+02  0.189094160459E+01 -0.988546428571E+00
  0.100097008828E+01  0.943802371535E-08 -0.772863571428E+00
  0.199106543982E+02  0.189096844043E+01 -0.772863571428E+00
  0.100101524744E+01  0.798602006685E-08 -0.808810714285E+00
  0.199106548455E+02  0.189096396779E+01 -0.808810714285E+00
LINES                  56                 168
2                   0                   1
2                   2                   3
2                   4                   5
2                   6                   7
2                   8                   9
2                  10                  11
2                  12                  13
2                  14                  15
2                  16                  17
2                  18                  19
2                  20                  21
2                  22                  23
2                  24                  25
2                  26                  27
2                  28                  29
2                  30                  31
2                  32                  33
2                  34                  35
2                  36                  37
2                  38                  39
2                  40                  41
2                  42                  43
2                  44                  45
2                  46                  47
2                  48                  49
2                  50                  51
2                  52                  53
2                  54                  55
2                  56                  57
2                  58                  59
2                  60                  61
2                  62                  63
2                  64                  65
2                  66                  67
2                  68                  69
2                  70                  71
2                  72                  73
2                  74                  75
2                  76                  77
2                  78                  79
2                  80                  81
2                  82                  83
2                  84                  85
2                  86                  87
2                  88                  89
2                  90                  91
2                  92                  93
2                  94                  95
2                  96                  97
2                  98                  99
2                 100                 101
2                 102                 103
2                 104                 105
2                 106                 107
2                 108                 109
2                 110                 111
POINT_DATA                 112
SCALARS Gamma float 1
LOOKUP_TABLE default
  0.943762975127E-02
  0.943762975127E-02
 -0.155957302863E-01
 -0.155957302863E-01
 -0.105899544502E-02
 -0.105899544502E-02
  0.115246087774E-01
  0.115246087774E-01
 -0.144353258452E-01
 -0.144353258452E-01
  0.960142494100E-02
  0.960142494100E-02
  0.987978770619E-02
  0.987978770619E-02
 -0.215655559505E-01
 -0.215655559505E-01
  0.465226381563E-02
  0.465226381563E-02
 -0.925757357074E-02
 -0.925757357074E-02
 -0.822155855435E-02
 -0.822155855435E-02
  0.209359461235E-01
  0.209359461235E-01
 -0.489746731507E-02
 -0.489746731507E-02
 -0.265594063987E-01
 -0.265594063987E-01
  0.592359788662E-02
  0.592359788662E-02
 -0.108809416461E-01
 -0.108809416461E-01
  0.528574065312E-02
  0.528574065312E-02
 -0.242586254615E-01
 -0.242586254615E-01
  0.149797522666E-01
  0.149797522666E-01
 -0.105457505212E-01
 -0.105457505212E-01
  0.107494238671E-02
  0.107494238671E-02
 -0.550702242347E-02
 -0.550702242347E-02
 -0.901296960378E-02
 -0.901296960378E-02
  0.912775545967E-02
  0.912775545967E-02
 -0.425977004679E-02
 -0.425977004679E-02
 -0.907960557417E-02
 -0.907960557417E-02
 -0.982712088676E-02
 -0.982712088676E-02
 -0.678522797542E-02
 -0.678522797542E-02
 -0.943762975126E-02
 -0.943762975126E-02
  0.105899544502E-02
  0.105899544502E-02
  0.155957302863E-01
  0.155957302863E-01
 -0.115246087774E-01
 -0.115246087774E-01
  0.144353258452E-01
  0.144353258452E-01
 -0.960142494102E-02
 -0.960142494102E-02
  0.215655559506E-01
  0.215655559506E-01
 -0.987978770619E-02
 -0.987978770619E-02
  0.925757357073E-02
  0.925757357073E-02
 -0.465226381563E-02
 -0.465226381563E-02
  0.822155855433E-02
  0.822155855433E-02
 -0.209359461235E-01
 -0.209359461235E-01
  0.489746731509E-02
  0.489746731509E-02
  0.265594063987E-01
  0.265594063987E-01
 -0.592359788661E-02
 -0.592359788661E-02
  0.108809416461E-01
  0.108809416461E-01
 -0.528574065313E-02
 -0.528574065313E-02
 -0.149797522666E-01
 -0.149797522666E-01
  0.105457505212E-01
  0.105457505212E-01
 -0.107494238671E-02
 -0.107494238671E-02
  0.242586254615E-01
  0.242586254615E-01
  0.550702242345E-02
  0.550702242345E-02
  0.425977004679E-02
  0.425977004679E-02
  0.907960557416E-02
  0.907960557416E-02
  0.678522797544E-02
  0.678522797544E-02
  0.982712088676E-02
  0.982712088676E-02
  0.901296960379E-02
  0.901296960379E-02
 -0.912775545965E-02
 -0.912775545965E-02
