# vtk DataFile Version 3.0
MachLine results file. Generated by MachLine, USU AeroLab (c) 2023.
ASCII
DATASET POLYDATA
POINTS                 224 float
  0.100004432570E+01  0.392040985100E-07  0.359471428571E-01
  0.999999166550E+00  0.406561021585E-07  0.000000000000E+00
  0.597121328377E+02  0.587120889040E+01  0.359471428571E-01
  0.597121323904E+02  0.587121336304E+01  0.000000000000E+00
  0.100008948485E+01  0.377520948614E-07  0.718942857143E-01
  0.100004432570E+01  0.392040985100E-07  0.359471428571E-01
  0.597121332849E+02  0.587120441776E+01  0.718942857143E-01
  0.597121328377E+02  0.587120889040E+01  0.359471428571E-01
  0.100013464400E+01  0.363000912129E-07  0.107841428571E+00
  0.100008948485E+01  0.377520948614E-07  0.718942857143E-01
  0.597121337322E+02  0.587119994512E+01  0.107841428571E+00
  0.597121332849E+02  0.587120441776E+01  0.718942857143E-01
  0.100017980315E+01  0.348480875644E-07  0.143788571429E+00
  0.100013464400E+01  0.363000912129E-07  0.107841428571E+00
  0.597121341795E+02  0.587119547248E+01  0.143788571429E+00
  0.597121337322E+02  0.587119994512E+01  0.107841428571E+00
  0.100022496230E+01  0.333960839159E-07  0.179735714286E+00
  0.100017980315E+01  0.348480875644E-07  0.143788571429E+00
  0.597121346267E+02  0.587119099984E+01  0.179735714286E+00
  0.597121341795E+02  0.587119547248E+01  0.143788571429E+00
  0.100027012145E+01  0.319440802674E-07  0.215682857143E+00
  0.100022496230E+01  0.333960839159E-07  0.179735714286E+00
  0.597121350740E+02  0.587118652720E+01  0.215682857143E+00
  0.597121346267E+02  0.587119099984E+01  0.179735714286E+00
  0.100031528060E+01  0.304920766189E-07  0.251630000000E+00
  0.100027012145E+01  0.319440802674E-07  0.215682857143E+00
  0.597121355213E+02  0.587118205456E+01  0.251630000000E+00
  0.597121350740E+02  0.587118652720E+01  0.215682857143E+00
  0.100036043975E+01  0.290400729703E-07  0.287577142857E+00
  0.100031528060E+01  0.304920766189E-07  0.251630000000E+00
  0.597121359685E+02  0.587117758192E+01  0.287577142857E+00
  0.597121355213E+02  0.587118205456E+01  0.251630000000E+00
  0.100040559890E+01  0.275880693218E-07  0.323524285714E+00
  0.100036043975E+01  0.290400729703E-07  0.287577142857E+00
  0.597121364158E+02  0.587117310928E+01  0.323524285714E+00
  0.597121359685E+02  0.587117758192E+01  0.287577142857E+00
  0.100045075805E+01  0.261360656733E-07  0.359471428571E+00
  0.100040559890E+01  0.275880693218E-07  0.323524285714E+00
  0.597121368631E+02  0.587116863664E+01  0.359471428571E+00
  0.597121364158E+02  0.587117310928E+01  0.323524285714E+00
  0.100049591720E+01  0.246840620248E-07  0.395418571429E+00
  0.100045075805E+01  0.261360656733E-07  0.359471428571E+00
  0.597121373103E+02  0.587116416400E+01  0.395418571429E+00
  0.597121368631E+02  0.587116863664E+01  0.359471428571E+00
  0.100054107635E+01  0.232320583763E-07  0.431365714286E+00
  0.100049591720E+01  0.246840620248E-07  0.395418571429E+00
  0.597121377576E+02  0.587115969136E+01  0.431365714286E+00
  0.597121373103E+02  0.587116416400E+01  0.395418571429E+00
  0.100058623550E+01  0.217800547278E-07  0.467312857143E+00
  0.100054107635E+01  0.232320583763E-07  0.431365714286E+00
  0.597121382049E+02  0.587115521872E+01  0.467312857143E+00
  0.597121377576E+02  0.587115969136E+01  0.431365714286E+00
  0.100063139465E+01  0.203280510792E-07  0.503260000000E+00
  0.100058623550E+01  0.217800547278E-07  0.467312857143E+00
  0.597121386521E+02  0.587115074607E+01  0.503260000000E+00
  0.597121382049E+02  0.587115521872E+01  0.467312857143E+00
  0.100067655380E+01  0.188760474307E-07  0.539207142857E+00
  0.100063139465E+01  0.203280510792E-07  0.503260000000E+00
  0.597121390994E+02  0.587114627343E+01  0.539207142857E+00
  0.597121386521E+02  0.587115074607E+01  0.503260000000E+00
  0.100076687211E+01  0.159720401337E-07  0.611101428571E+00
  0.100072171295E+01  0.174240437822E-07  0.575154285714E+00
  0.597121399939E+02  0.587113732815E+01  0.611101428571E+00
  0.597121395466E+02  0.587114180079E+01  0.575154285714E+00
  0.100072171295E+01  0.174240437822E-07  0.575154285714E+00
  0.100067655380E+01  0.188760474307E-07  0.539207142857E+00
  0.597121395466E+02  0.587114180079E+01  0.575154285714E+00
  0.597121390994E+02  0.587114627343E+01  0.539207142857E+00
  0.100081203126E+01  0.145200364852E-07  0.647048571429E+00
  0.100076687211E+01  0.159720401337E-07  0.611101428571E+00
  0.597121404412E+02  0.587113285551E+01  0.647048571429E+00
  0.597121399939E+02  0.587113732815E+01  0.611101428571E+00
  0.100085719041E+01  0.130680328367E-07  0.682995714286E+00
  0.100081203126E+01  0.145200364852E-07  0.647048571429E+00
  0.597121408884E+02  0.587112838287E+01  0.682995714286E+00
  0.597121404412E+02  0.587113285551E+01  0.647048571429E+00
  0.100090234956E+01  0.116160291881E-07  0.718942857143E+00
  0.100085719041E+01  0.130680328367E-07  0.682995714286E+00
  0.597121413357E+02  0.587112391023E+01  0.718942857143E+00
  0.597121408884E+02  0.587112838287E+01  0.682995714286E+00
  0.100094750871E+01  0.101640255396E-07  0.754890000000E+00
  0.100090234956E+01  0.116160291881E-07  0.718942857143E+00
  0.597121417830E+02  0.587111943759E+01  0.754890000000E+00
  0.597121413357E+02  0.587112391023E+01  0.718942857143E+00
  0.100099266786E+01  0.871202189110E-08  0.790837142857E+00
  0.100094750871E+01  0.101640255396E-07  0.754890000000E+00
  0.597121422302E+02  0.587111496495E+01  0.790837142857E+00
  0.597121417830E+02  0.587111943759E+01  0.754890000000E+00
  0.100103782701E+01  0.726001824259E-08  0.826784285714E+00
  0.100099266786E+01  0.871202189110E-08  0.790837142857E+00
  0.597121426775E+02  0.587111049231E+01  0.826784285714E+00
  0.597121422302E+02  0.587111496495E+01  0.790837142857E+00
  0.100117330446E+01  0.290400729703E-08  0.934625714286E+00
  0.100112814531E+01  0.435601094555E-08  0.898678571429E+00
  0.597121440193E+02  0.587109707439E+01  0.934625714286E+00
  0.597121435720E+02  0.587110154703E+01  0.898678571429E+00
  0.100108298616E+01  0.580801459407E-08  0.862731428571E+00
  0.100103782701E+01  0.726001824259E-08  0.826784285714E+00
  0.597121431248E+02  0.587110601967E+01  0.862731428571E+00
  0.597121426775E+02  0.587111049231E+01  0.826784285714E+00
  0.100121846361E+01  0.145200364852E-08  0.970572857143E+00
  0.100117330446E+01  0.290400729703E-08  0.934625714286E+00
  0.597121444666E+02  0.587109260175E+01  0.970572857143E+00
  0.597121440193E+02  0.587109707439E+01  0.934625714286E+00
  0.100126362276E+01  0.000000000000E+00  0.100652000000E+01
  0.100121846361E+01  0.145200364852E-08  0.970572857143E+00
  0.597121449138E+02  0.587108812911E+01  0.100652000000E+01
  0.597121444666E+02  0.587109260175E+01  0.970572857143E+00
  0.100112814531E+01  0.435601094555E-08  0.898678571429E+00
  0.100108298616E+01  0.580801459407E-08  0.862731428571E+00
  0.597121435720E+02  0.587110154703E+01  0.898678571429E+00
  0.597121431248E+02  0.587110601967E+01  0.862731428571E+00
  0.999999166550E+00  0.406561021585E-07  0.000000000000E+00
  0.100004432570E+01  0.392040985100E-07 -0.359471428571E-01
  0.597121323904E+02  0.587121336304E+01  0.000000000000E+00
  0.597121328377E+02  0.587120889040E+01 -0.359471428571E-01
  0.100004432570E+01  0.392040985100E-07 -0.359471428571E-01
  0.100008948485E+01  0.377520948614E-07 -0.718942857143E-01
  0.597121328377E+02  0.587120889040E+01 -0.359471428571E-01
  0.597121332849E+02  0.587120441776E+01 -0.718942857143E-01
  0.100008948485E+01  0.377520948614E-07 -0.718942857143E-01
  0.100013464400E+01  0.363000912129E-07 -0.107841428571E+00
  0.597121332849E+02  0.587120441776E+01 -0.718942857143E-01
  0.597121337322E+02  0.587119994512E+01 -0.107841428571E+00
  0.100013464400E+01  0.363000912129E-07 -0.107841428571E+00
  0.100017980315E+01  0.348480875644E-07 -0.143788571429E+00
  0.597121337322E+02  0.587119994512E+01 -0.107841428571E+00
  0.597121341795E+02  0.587119547248E+01 -0.143788571429E+00
  0.100017980315E+01  0.348480875644E-07 -0.143788571429E+00
  0.100022496230E+01  0.333960839159E-07 -0.179735714286E+00
  0.597121341795E+02  0.587119547248E+01 -0.143788571429E+00
  0.597121346267E+02  0.587119099984E+01 -0.179735714286E+00
  0.100022496230E+01  0.333960839159E-07 -0.179735714286E+00
  0.100027012145E+01  0.319440802674E-07 -0.215682857143E+00
  0.597121346267E+02  0.587119099984E+01 -0.179735714286E+00
  0.597121350740E+02  0.587118652720E+01 -0.215682857143E+00
  0.100027012145E+01  0.319440802674E-07 -0.215682857143E+00
  0.100031528060E+01  0.304920766189E-07 -0.251630000000E+00
  0.597121350740E+02  0.587118652720E+01 -0.215682857143E+00
  0.597121355213E+02  0.587118205456E+01 -0.251630000000E+00
  0.100031528060E+01  0.304920766189E-07 -0.251630000000E+00
  0.100036043975E+01  0.290400729703E-07 -0.287577142857E+00
  0.597121355213E+02  0.587118205456E+01 -0.251630000000E+00
  0.597121359685E+02  0.587117758192E+01 -0.287577142857E+00
  0.100036043975E+01  0.290400729703E-07 -0.287577142857E+00
  0.100040559890E+01  0.275880693218E-07 -0.323524285714E+00
  0.597121359685E+02  0.587117758192E+01 -0.287577142857E+00
  0.597121364158E+02  0.587117310928E+01 -0.323524285714E+00
  0.100040559890E+01  0.275880693218E-07 -0.323524285714E+00
  0.100045075805E+01  0.261360656733E-07 -0.359471428571E+00
  0.597121364158E+02  0.587117310928E+01 -0.323524285714E+00
  0.597121368631E+02  0.587116863664E+01 -0.359471428571E+00
  0.100045075805E+01  0.261360656733E-07 -0.359471428571E+00
  0.100049591720E+01  0.246840620248E-07 -0.395418571429E+00
  0.597121368631E+02  0.587116863664E+01 -0.359471428571E+00
  0.597121373103E+02  0.587116416400E+01 -0.395418571429E+00
  0.100049591720E+01  0.246840620248E-07 -0.395418571429E+00
  0.100054107635E+01  0.232320583763E-07 -0.431365714286E+00
  0.597121373103E+02  0.587116416400E+01 -0.395418571429E+00
  0.597121377576E+02  0.587115969136E+01 -0.431365714286E+00
  0.100054107635E+01  0.232320583763E-07 -0.431365714286E+00
  0.100058623550E+01  0.217800547278E-07 -0.467312857143E+00
  0.597121377576E+02  0.587115969136E+01 -0.431365714286E+00
  0.597121382049E+02  0.587115521872E+01 -0.467312857143E+00
  0.100058623550E+01  0.217800547278E-07 -0.467312857143E+00
  0.100063139465E+01  0.203280510792E-07 -0.503260000000E+00
  0.597121382049E+02  0.587115521872E+01 -0.467312857143E+00
  0.597121386521E+02  0.587115074607E+01 -0.503260000000E+00
  0.100063139465E+01  0.203280510792E-07 -0.503260000000E+00
  0.100067655380E+01  0.188760474307E-07 -0.539207142857E+00
  0.597121386521E+02  0.587115074607E+01 -0.503260000000E+00
  0.597121390994E+02  0.587114627343E+01 -0.539207142857E+00
  0.100067655380E+01  0.188760474307E-07 -0.539207142857E+00
  0.100072171295E+01  0.174240437822E-07 -0.575154285714E+00
  0.597121390994E+02  0.587114627343E+01 -0.539207142857E+00
  0.597121395466E+02  0.587114180079E+01 -0.575154285714E+00
  0.100076687211E+01  0.159720401337E-07 -0.611101428571E+00
  0.100081203126E+01  0.145200364852E-07 -0.647048571429E+00
  0.597121399939E+02  0.587113732815E+01 -0.611101428571E+00
  0.597121404412E+02  0.587113285551E+01 -0.647048571429E+00
  0.100081203126E+01  0.145200364852E-07 -0.647048571429E+00
  0.100085719041E+01  0.130680328367E-07 -0.682995714286E+00
  0.597121404412E+02  0.587113285551E+01 -0.647048571429E+00
  0.597121408884E+02  0.587112838287E+01 -0.682995714286E+00
  0.100085719041E+01  0.130680328367E-07 -0.682995714286E+00
  0.100090234956E+01  0.116160291881E-07 -0.718942857143E+00
  0.597121408884E+02  0.587112838287E+01 -0.682995714286E+00
  0.597121413357E+02  0.587112391023E+01 -0.718942857143E+00
  0.100072171295E+01  0.174240437822E-07 -0.575154285714E+00
  0.100076687211E+01  0.159720401337E-07 -0.611101428571E+00
  0.597121395466E+02  0.587114180079E+01 -0.575154285714E+00
  0.597121399939E+02  0.587113732815E+01 -0.611101428571E+00
  0.100090234956E+01  0.116160291881E-07 -0.718942857143E+00
  0.100094750871E+01  0.101640255396E-07 -0.754890000000E+00
  0.597121413357E+02  0.587112391023E+01 -0.718942857143E+00
  0.597121417830E+02  0.587111943759E+01 -0.754890000000E+00
  0.100099266786E+01  0.871202189110E-08 -0.790837142857E+00
  0.100103782701E+01  0.726001824259E-08 -0.826784285714E+00
  0.597121422302E+02  0.587111496495E+01 -0.790837142857E+00
  0.597121426775E+02  0.587111049231E+01 -0.826784285714E+00
  0.100094750871E+01  0.101640255396E-07 -0.754890000000E+00
  0.100099266786E+01  0.871202189110E-08 -0.790837142857E+00
  0.597121417830E+02  0.587111943759E+01 -0.754890000000E+00
  0.597121422302E+02  0.587111496495E+01 -0.790837142857E+00
  0.100112814531E+01  0.435601094555E-08 -0.898678571429E+00
  0.100117330446E+01  0.290400729703E-08 -0.934625714286E+00
  0.597121435720E+02  0.587110154703E+01 -0.898678571429E+00
  0.597121440193E+02  0.587109707439E+01 -0.934625714286E+00
  0.100103782701E+01  0.726001824259E-08 -0.826784285714E+00
  0.100108298616E+01  0.580801459407E-08 -0.862731428571E+00
  0.597121426775E+02  0.587111049231E+01 -0.826784285714E+00
  0.597121431248E+02  0.587110601967E+01 -0.862731428571E+00
  0.100108298616E+01  0.580801459407E-08 -0.862731428571E+00
  0.100112814531E+01  0.435601094555E-08 -0.898678571429E+00
  0.597121431248E+02  0.587110601967E+01 -0.862731428571E+00
  0.597121435720E+02  0.587110154703E+01 -0.898678571429E+00
  0.100117330446E+01  0.290400729703E-08 -0.934625714286E+00
  0.100121846361E+01  0.145200364852E-08 -0.970572857143E+00
  0.597121440193E+02  0.587109707439E+01 -0.934625714286E+00
  0.597121444666E+02  0.587109260175E+01 -0.970572857143E+00
  0.100121846361E+01  0.145200364852E-08 -0.970572857143E+00
  0.100126362276E+01  0.000000000000E+00 -0.100652000000E+01
  0.597121444666E+02  0.587109260175E+01 -0.970572857143E+00
  0.597121449138E+02  0.587108812911E+01 -0.100652000000E+01
POLYGONS                 112                 448
3                   0                   3                   1
3                   0                   2                   3
3                   4                   7                   5
3                   4                   6                   7
3                   8                  11                   9
3                   8                  10                  11
3                  12                  15                  13
3                  12                  14                  15
3                  16                  19                  17
3                  16                  18                  19
3                  20                  23                  21
3                  20                  22                  23
3                  24                  27                  25
3                  24                  26                  27
3                  28                  31                  29
3                  28                  30                  31
3                  32                  35                  33
3                  32                  34                  35
3                  36                  39                  37
3                  36                  38                  39
3                  40                  43                  41
3                  40                  42                  43
3                  44                  47                  45
3                  44                  46                  47
3                  48                  51                  49
3                  48                  50                  51
3                  52                  55                  53
3                  52                  54                  55
3                  56                  59                  57
3                  56                  58                  59
3                  60                  63                  61
3                  60                  62                  63
3                  64                  67                  65
3                  64                  66                  67
3                  68                  71                  69
3                  68                  70                  71
3                  72                  75                  73
3                  72                  74                  75
3                  76                  79                  77
3                  76                  78                  79
3                  80                  83                  81
3                  80                  82                  83
3                  84                  87                  85
3                  84                  86                  87
3                  88                  91                  89
3                  88                  90                  91
3                  92                  95                  93
3                  92                  94                  95
3                  96                  99                  97
3                  96                  98                  99
3                 100                 103                 101
3                 100                 102                 103
3                 104                 107                 105
3                 104                 106                 107
3                 108                 111                 109
3                 108                 110                 111
3                 112                 114                 113
3                 114                 115                 113
3                 116                 118                 117
3                 118                 119                 117
3                 120                 122                 121
3                 122                 123                 121
3                 124                 126                 125
3                 126                 127                 125
3                 128                 130                 129
3                 130                 131                 129
3                 132                 134                 133
3                 134                 135                 133
3                 136                 138                 137
3                 138                 139                 137
3                 140                 142                 141
3                 142                 143                 141
3                 144                 146                 145
3                 146                 147                 145
3                 148                 150                 149
3                 150                 151                 149
3                 152                 154                 153
3                 154                 155                 153
3                 156                 158                 157
3                 158                 159                 157
3                 160                 162                 161
3                 162                 163                 161
3                 164                 166                 165
3                 166                 167                 165
3                 168                 170                 169
3                 170                 171                 169
3                 172                 174                 173
3                 174                 175                 173
3                 176                 178                 177
3                 178                 179                 177
3                 180                 182                 181
3                 182                 183                 181
3                 184                 186                 185
3                 186                 187                 185
3                 188                 190                 189
3                 190                 191                 189
3                 192                 194                 193
3                 194                 195                 193
3                 196                 198                 197
3                 198                 199                 197
3                 200                 202                 201
3                 202                 203                 201
3                 204                 206                 205
3                 206                 207                 205
3                 208                 210                 209
3                 210                 211                 209
3                 212                 214                 213
3                 214                 215                 213
3                 216                 218                 217
3                 218                 219                 217
3                 220                 222                 221
3                 222                 223                 221
POINT_DATA                 224
SCALARS mu float 1
LOOKUP_TABLE default
  0.993015529669E-01
  0.631086935134E-01
  0.993015529669E-01
  0.631086935134E-01
  0.107840417606E+00
  0.993015529669E-01
  0.107840417606E+00
  0.993015529669E-01
  0.710160398742E-01
  0.107840417606E+00
  0.710160398742E-01
  0.107840417606E+00
  0.100745123609E+00
  0.710160398742E-01
  0.100745123609E+00
  0.710160398742E-01
  0.654374796839E-01
  0.100745123609E+00
  0.654374796839E-01
  0.100745123609E+00
  0.867827521592E-01
  0.654374796839E-01
  0.867827521592E-01
  0.654374796839E-01
  0.106126670755E+00
  0.867827521592E-01
  0.106126670755E+00
  0.867827521592E-01
  0.679565383296E-01
  0.106126670755E+00
  0.679565383296E-01
  0.106126670755E+00
  0.637391722912E-01
  0.679565383296E-01
  0.637391722912E-01
  0.679565383296E-01
  0.576514219318E-01
  0.637391722912E-01
  0.576514219318E-01
  0.637391722912E-01
  0.590941265447E-01
  0.576514219318E-01
  0.590941265447E-01
  0.576514219318E-01
  0.929403467681E-01
  0.590941265447E-01
  0.929403467681E-01
  0.590941265447E-01
  0.747725796481E-01
  0.929403467681E-01
  0.747725796481E-01
  0.929403467681E-01
  0.500487835082E-01
  0.747725796481E-01
  0.500487835082E-01
  0.747725796481E-01
  0.677569745666E-01
  0.500487835082E-01
  0.677569745666E-01
  0.500487835082E-01
  0.613961334920E-01
  0.397930807468E-01
  0.613961334920E-01
  0.397930807468E-01
  0.397930807468E-01
  0.677569745666E-01
  0.397930807468E-01
  0.677569745666E-01
  0.705828348660E-01
  0.613961334920E-01
  0.705828348660E-01
  0.613961334920E-01
  0.406195296997E-01
  0.705828348660E-01
  0.406195296997E-01
  0.705828348660E-01
  0.398159155171E-01
  0.406195296997E-01
  0.398159155171E-01
  0.406195296997E-01
  0.291432622004E-01
  0.398159155171E-01
  0.291432622004E-01
  0.398159155171E-01
  0.308485410247E-01
  0.291432622004E-01
  0.308485410247E-01
  0.291432622004E-01
  0.409419194936E-01
  0.308485410247E-01
  0.409419194936E-01
  0.308485410247E-01
  0.173439162037E-01
  0.248861122545E-01
  0.173439162037E-01
  0.248861122545E-01
  0.303256905042E-01
  0.409419194936E-01
  0.303256905042E-01
  0.409419194936E-01
  0.334307172285E-02
  0.173439162037E-01
  0.334307172285E-02
  0.173439162037E-01
  0.000000000000E+00
  0.334307172285E-02
  0.000000000000E+00
  0.334307172285E-02
  0.248861122545E-01
  0.303256905042E-01
  0.248861122545E-01
  0.303256905042E-01
  0.631086935134E-01
  0.993015529669E-01
  0.631086935134E-01
  0.993015529669E-01
  0.993015529669E-01
  0.107840417606E+00
  0.993015529669E-01
  0.107840417606E+00
  0.107840417606E+00
  0.710160398742E-01
  0.107840417606E+00
  0.710160398742E-01
  0.710160398742E-01
  0.100745123609E+00
  0.710160398742E-01
  0.100745123609E+00
  0.100745123609E+00
  0.654374796839E-01
  0.100745123609E+00
  0.654374796839E-01
  0.654374796839E-01
  0.867827521592E-01
  0.654374796839E-01
  0.867827521592E-01
  0.867827521592E-01
  0.106126670755E+00
  0.867827521592E-01
  0.106126670755E+00
  0.106126670755E+00
  0.679565383296E-01
  0.106126670755E+00
  0.679565383296E-01
  0.679565383296E-01
  0.637391722912E-01
  0.679565383296E-01
  0.637391722912E-01
  0.637391722912E-01
  0.576514219318E-01
  0.637391722912E-01
  0.576514219318E-01
  0.576514219318E-01
  0.590941265447E-01
  0.576514219318E-01
  0.590941265447E-01
  0.590941265447E-01
  0.929403467681E-01
  0.590941265447E-01
  0.929403467681E-01
  0.929403467681E-01
  0.747725796481E-01
  0.929403467681E-01
  0.747725796481E-01
  0.747725796481E-01
  0.500487835082E-01
  0.747725796481E-01
  0.500487835082E-01
  0.500487835082E-01
  0.677569745666E-01
  0.500487835082E-01
  0.677569745666E-01
  0.677569745666E-01
  0.397930807467E-01
  0.677569745666E-01
  0.397930807467E-01
  0.613961334920E-01
  0.705828348660E-01
  0.613961334920E-01
  0.705828348660E-01
  0.705828348660E-01
  0.406195296997E-01
  0.705828348660E-01
  0.406195296997E-01
  0.406195296997E-01
  0.398159155170E-01
  0.406195296997E-01
  0.398159155170E-01
  0.397930807467E-01
  0.613961334920E-01
  0.397930807467E-01
  0.613961334920E-01
  0.398159155170E-01
  0.291432622003E-01
  0.398159155170E-01
  0.291432622003E-01
  0.308485410247E-01
  0.409419194936E-01
  0.308485410247E-01
  0.409419194936E-01
  0.291432622003E-01
  0.308485410247E-01
  0.291432622003E-01
  0.308485410247E-01
  0.248861122545E-01
  0.173439162037E-01
  0.248861122545E-01
  0.173439162037E-01
  0.409419194936E-01
  0.303256905042E-01
  0.409419194936E-01
  0.303256905042E-01
  0.303256905042E-01
  0.248861122545E-01
  0.303256905042E-01
  0.248861122545E-01
  0.173439162037E-01
  0.334307172283E-02
  0.173439162037E-01
  0.334307172283E-02
  0.334307172283E-02
  0.000000000000E+00
  0.334307172283E-02
  0.000000000000E+00
