# vtk DataFile Version 3.0
MachLine results file. Generated by MachLine, USU AeroLab (c) 2023.
ASCII
DATASET POLYDATA
POINTS                 104 float
  0.409150635095E+01  0.375000000000E+00  0.000000000000E+00
  0.200000000000E+02  0.375000000000E+00  0.000000000000E+00
  0.427451905285E+01  0.112500000000E+01  0.000000000000E+00
  0.200000000000E+02  0.112500000000E+01  0.000000000000E+00
  0.445753175475E+01  0.187500000000E+01  0.000000000000E+00
  0.200000000000E+02  0.187500000000E+01  0.000000000000E+00
  0.464054445665E+01  0.262500000000E+01  0.000000000000E+00
  0.200000000000E+02  0.262500000000E+01  0.000000000000E+00
  0.482355715855E+01  0.337500000000E+01  0.000000000000E+00
  0.200000000000E+02  0.337500000000E+01  0.000000000000E+00
  0.500656986045E+01  0.412500000000E+01  0.000000000000E+00
  0.200000000000E+02  0.412500000000E+01  0.000000000000E+00
  0.518958256230E+01  0.487500000000E+01  0.000000000000E+00
  0.200000000000E+02  0.487500000000E+01  0.000000000000E+00
  0.537259526415E+01  0.562500000000E+01  0.000000000000E+00
  0.200000000000E+02  0.562500000000E+01  0.000000000000E+00
  0.555560796605E+01  0.637500000000E+01  0.000000000000E+00
  0.200000000000E+02  0.637500000000E+01  0.000000000000E+00
  0.573862066795E+01  0.712500000000E+01  0.000000000000E+00
  0.200000000000E+02  0.712500000000E+01  0.000000000000E+00
  0.592163336985E+01  0.787500000000E+01  0.000000000000E+00
  0.200000000000E+02  0.787500000000E+01  0.000000000000E+00
  0.610464607175E+01  0.862500000000E+01  0.000000000000E+00
  0.200000000000E+02  0.862500000000E+01  0.000000000000E+00
  0.409150635095E+01 -0.375000000000E+00  0.000000000000E+00
  0.200000000000E+02 -0.375000000000E+00  0.000000000000E+00
  0.427451905285E+01 -0.112500000000E+01  0.000000000000E+00
  0.200000000000E+02 -0.112500000000E+01  0.000000000000E+00
  0.445753175475E+01 -0.187500000000E+01  0.000000000000E+00
  0.200000000000E+02 -0.187500000000E+01  0.000000000000E+00
  0.464054445665E+01 -0.262500000000E+01  0.000000000000E+00
  0.200000000000E+02 -0.262500000000E+01  0.000000000000E+00
  0.482355715855E+01 -0.337500000000E+01  0.000000000000E+00
  0.200000000000E+02 -0.337500000000E+01  0.000000000000E+00
  0.500656986045E+01 -0.412500000000E+01  0.000000000000E+00
  0.200000000000E+02 -0.412500000000E+01  0.000000000000E+00
  0.518958256230E+01 -0.487500000000E+01  0.000000000000E+00
  0.200000000000E+02 -0.487500000000E+01  0.000000000000E+00
  0.537259526415E+01 -0.562500000000E+01  0.000000000000E+00
  0.200000000000E+02 -0.562500000000E+01  0.000000000000E+00
  0.555560796605E+01 -0.637500000000E+01  0.000000000000E+00
  0.200000000000E+02 -0.637500000000E+01  0.000000000000E+00
  0.573862066795E+01 -0.712500000000E+01  0.000000000000E+00
  0.200000000000E+02 -0.712500000000E+01  0.000000000000E+00
  0.592163336985E+01 -0.787500000000E+01  0.000000000000E+00
  0.200000000000E+02 -0.787500000000E+01  0.000000000000E+00
  0.610464607175E+01 -0.862500000000E+01  0.000000000000E+00
  0.200000000000E+02 -0.862500000000E+01  0.000000000000E+00
  0.569728647410E+01  0.321428571430E+00 -0.273565573770E+01
  0.200000000000E+02  0.321428571430E+00 -0.273565573770E+01
  0.585415450430E+01  0.964285714280E+00 -0.273565573770E+01
  0.200000000000E+02  0.964285714280E+00 -0.273565573770E+01
  0.601102253450E+01  0.160714285715E+01 -0.273565573770E+01
  0.200000000000E+02  0.160714285715E+01 -0.273565573770E+01
  0.616789056470E+01  0.225000000000E+01 -0.273565573770E+01
  0.200000000000E+02  0.225000000000E+01 -0.273565573770E+01
  0.632475859490E+01  0.289285714285E+01 -0.273565573770E+01
  0.200000000000E+02  0.289285714285E+01 -0.273565573770E+01
  0.648162662510E+01  0.353571428570E+01 -0.273565573770E+01
  0.200000000000E+02  0.353571428570E+01 -0.273565573770E+01
  0.663849465530E+01  0.417857142855E+01 -0.273565573770E+01
  0.200000000000E+02  0.417857142855E+01 -0.273565573770E+01
  0.679536268550E+01  0.482142857145E+01 -0.273565573770E+01
  0.200000000000E+02  0.482142857145E+01 -0.273565573770E+01
  0.695223071570E+01  0.546428571430E+01 -0.273565573770E+01
  0.200000000000E+02  0.546428571430E+01 -0.273565573770E+01
  0.710909874585E+01  0.610714285715E+01 -0.273565573770E+01
  0.200000000000E+02  0.610714285715E+01 -0.273565573770E+01
  0.726596677600E+01  0.675000000000E+01 -0.273565573770E+01
  0.200000000000E+02  0.675000000000E+01 -0.273565573770E+01
  0.742283480620E+01  0.739285714285E+01 -0.273565573770E+01
  0.200000000000E+02  0.739285714285E+01 -0.273565573770E+01
  0.757970283640E+01  0.803571428570E+01 -0.273565573770E+01
  0.200000000000E+02  0.803571428570E+01 -0.273565573770E+01
  0.773657086660E+01  0.867857142855E+01 -0.273565573770E+01
  0.200000000000E+02  0.867857142855E+01 -0.273565573770E+01
  0.569728647410E+01 -0.321428571430E+00 -0.273565573770E+01
  0.200000000000E+02 -0.321428571430E+00 -0.273565573770E+01
  0.585415450430E+01 -0.964285714280E+00 -0.273565573770E+01
  0.200000000000E+02 -0.964285714280E+00 -0.273565573770E+01
  0.601102253450E+01 -0.160714285715E+01 -0.273565573770E+01
  0.200000000000E+02 -0.160714285715E+01 -0.273565573770E+01
  0.616789056470E+01 -0.225000000000E+01 -0.273565573770E+01
  0.200000000000E+02 -0.225000000000E+01 -0.273565573770E+01
  0.632475859490E+01 -0.289285714285E+01 -0.273565573770E+01
  0.200000000000E+02 -0.289285714285E+01 -0.273565573770E+01
  0.648162662510E+01 -0.353571428570E+01 -0.273565573770E+01
  0.200000000000E+02 -0.353571428570E+01 -0.273565573770E+01
  0.663849465530E+01 -0.417857142855E+01 -0.273565573770E+01
  0.200000000000E+02 -0.417857142855E+01 -0.273565573770E+01
  0.679536268550E+01 -0.482142857145E+01 -0.273565573770E+01
  0.200000000000E+02 -0.482142857145E+01 -0.273565573770E+01
  0.695223071570E+01 -0.546428571430E+01 -0.273565573770E+01
  0.200000000000E+02 -0.546428571430E+01 -0.273565573770E+01
  0.710909874585E+01 -0.610714285715E+01 -0.273565573770E+01
  0.200000000000E+02 -0.610714285715E+01 -0.273565573770E+01
  0.726596677600E+01 -0.675000000000E+01 -0.273565573770E+01
  0.200000000000E+02 -0.675000000000E+01 -0.273565573770E+01
  0.742283480620E+01 -0.739285714285E+01 -0.273565573770E+01
  0.200000000000E+02 -0.739285714285E+01 -0.273565573770E+01
  0.757970283640E+01 -0.803571428570E+01 -0.273565573770E+01
  0.200000000000E+02 -0.803571428570E+01 -0.273565573770E+01
  0.773657086660E+01 -0.867857142855E+01 -0.273565573770E+01
  0.200000000000E+02 -0.867857142855E+01 -0.273565573770E+01
LINES                  52                 156
2                   0                   1
2                   2                   3
2                   4                   5
2                   6                   7
2                   8                   9
2                  10                  11
2                  12                  13
2                  14                  15
2                  16                  17
2                  18                  19
2                  20                  21
2                  22                  23
2                  24                  25
2                  26                  27
2                  28                  29
2                  30                  31
2                  32                  33
2                  34                  35
2                  36                  37
2                  38                  39
2                  40                  41
2                  42                  43
2                  44                  45
2                  46                  47
2                  48                  49
2                  50                  51
2                  52                  53
2                  54                  55
2                  56                  57
2                  58                  59
2                  60                  61
2                  62                  63
2                  64                  65
2                  66                  67
2                  68                  69
2                  70                  71
2                  72                  73
2                  74                  75
2                  76                  77
2                  78                  79
2                  80                  81
2                  82                  83
2                  84                  85
2                  86                  87
2                  88                  89
2                  90                  91
2                  92                  93
2                  94                  95
2                  96                  97
2                  98                  99
2                 100                 101
2                 102                 103
POINT_DATA                 104
SCALARS Gamma float 1
LOOKUP_TABLE default
 -0.434769350242E-02
 -0.434769350242E-02
 -0.102127089485E-01
 -0.102127089485E-01
 -0.360348883583E-01
 -0.360348883583E-01
 -0.169289367190E-01
 -0.169289367190E-01
 -0.686440633112E-01
 -0.686440633112E-01
  0.162670562076E-01
  0.162670562076E-01
 -0.100101559169E-01
 -0.100101559169E-01
  0.593489007950E-01
  0.593489007950E-01
  0.432154725592E-01
  0.432154725592E-01
  0.626595541063E-01
  0.626595541063E-01
  0.377501778126E-01
  0.377501778126E-01
  0.190764177898E-01
  0.190764177898E-01
  0.434770489709E-02
  0.434770489709E-02
  0.102127304772E-01
  0.102127304772E-01
  0.360349140457E-01
  0.360349140457E-01
  0.169289007690E-01
  0.169289007690E-01
  0.686440153009E-01
  0.686440153009E-01
 -0.162670068698E-01
 -0.162670068698E-01
  0.100101509788E-01
  0.100101509788E-01
 -0.593489189434E-01
 -0.593489189434E-01
 -0.432154609469E-01
 -0.432154609469E-01
 -0.626595359431E-01
 -0.626595359431E-01
 -0.377502382895E-01
 -0.377502382895E-01
 -0.190763879903E-01
 -0.190763879903E-01
 -0.343486879057E-01
 -0.343486879057E-01
  0.565483474423E-01
  0.565483474423E-01
 -0.946651969544E-01
 -0.946651969544E-01
  0.160169951593E-01
  0.160169951593E-01
 -0.104005216924E+00
 -0.104005216924E+00
  0.207003931514E-01
  0.207003931514E-01
 -0.143021188230E+00
 -0.143021188230E+00
  0.102916143393E-03
  0.102916143393E-03
  0.129266480030E-01
  0.129266480030E-01
 -0.222478600018E-01
 -0.222478600018E-01
 -0.133773690706E-01
 -0.133773690706E-01
 -0.509966453631E-01
 -0.509966453631E-01
 -0.340358241468E-01
 -0.340358241468E-01
  0.476785420551E-02
  0.476785420551E-02
  0.343483957400E-01
  0.343483957400E-01
 -0.565482079520E-01
 -0.565482079520E-01
  0.946655204238E-01
  0.946655204238E-01
 -0.160170969881E-01
 -0.160170969881E-01
  0.104005281443E+00
  0.104005281443E+00
 -0.207004760516E-01
 -0.207004760516E-01
  0.143021061425E+00
  0.143021061425E+00
 -0.102993064791E-03
 -0.102993064791E-03
 -0.129264993541E-01
 -0.129264993541E-01
  0.222478002866E-01
  0.222478002866E-01
  0.133773319541E-01
  0.133773319541E-01
  0.509967247221E-01
  0.509967247221E-01
  0.340358763011E-01
  0.340358763011E-01
 -0.476788439325E-02
 -0.476788439325E-02
