# vtk DataFile Version 3.0
MachLine results file. Generated by MachLine, USU AeroLab (c) 2023.
ASCII
DATASET POLYDATA
POINTS                 224 float
  0.100004432570E+01  0.392040985100E-07  0.359471428571E-01
  0.999999166550E+00  0.406561021585E-07  0.000000000000E+00
  0.293659456811E+02  0.283659017474E+01  0.359471428571E-01
  0.293659675898E+02  0.283659688298E+01  0.000000000000E+00
  0.100008948485E+01  0.377520948614E-07  0.718942857143E-01
  0.100004432570E+01  0.392040985100E-07  0.359471428571E-01
  0.293659237724E+02  0.283658346651E+01  0.718942857143E-01
  0.293659456811E+02  0.283659017474E+01  0.359471428571E-01
  0.100013464400E+01  0.363000912129E-07  0.107841428571E+00
  0.100008948485E+01  0.377520948614E-07  0.718942857143E-01
  0.293659018637E+02  0.283657675827E+01  0.107841428571E+00
  0.293659237724E+02  0.283658346651E+01  0.718942857143E-01
  0.100017980315E+01  0.348480875644E-07  0.143788571429E+00
  0.100013464400E+01  0.363000912129E-07  0.107841428571E+00
  0.293658799550E+02  0.283657005004E+01  0.143788571429E+00
  0.293659018637E+02  0.283657675827E+01  0.107841428571E+00
  0.100022496230E+01  0.333960839159E-07  0.179735714286E+00
  0.100017980315E+01  0.348480875644E-07  0.143788571429E+00
  0.293658580464E+02  0.283656334180E+01  0.179735714286E+00
  0.293658799550E+02  0.283657005004E+01  0.143788571429E+00
  0.100027012145E+01  0.319440802674E-07  0.215682857143E+00
  0.100022496230E+01  0.333960839159E-07  0.179735714286E+00
  0.293658361377E+02  0.283655663357E+01  0.215682857143E+00
  0.293658580464E+02  0.283656334180E+01  0.179735714286E+00
  0.100031528060E+01  0.304920766189E-07  0.251630000000E+00
  0.100027012145E+01  0.319440802674E-07  0.215682857143E+00
  0.293658142290E+02  0.283654992533E+01  0.251630000000E+00
  0.293658361377E+02  0.283655663357E+01  0.215682857143E+00
  0.100036043975E+01  0.290400729703E-07  0.287577142857E+00
  0.100031528060E+01  0.304920766189E-07  0.251630000000E+00
  0.293657923203E+02  0.283654321710E+01  0.287577142857E+00
  0.293658142290E+02  0.283654992533E+01  0.251630000000E+00
  0.100040559890E+01  0.275880693218E-07  0.323524285714E+00
  0.100036043975E+01  0.290400729703E-07  0.287577142857E+00
  0.293657704116E+02  0.283653650886E+01  0.323524285714E+00
  0.293657923203E+02  0.283654321710E+01  0.287577142857E+00
  0.100045075805E+01  0.261360656733E-07  0.359471428571E+00
  0.100040559890E+01  0.275880693218E-07  0.323524285714E+00
  0.293657485030E+02  0.283652980063E+01  0.359471428571E+00
  0.293657704116E+02  0.283653650886E+01  0.323524285714E+00
  0.100049591720E+01  0.246840620248E-07  0.395418571429E+00
  0.100045075805E+01  0.261360656733E-07  0.359471428571E+00
  0.293657265943E+02  0.283652309239E+01  0.395418571429E+00
  0.293657485030E+02  0.283652980063E+01  0.359471428571E+00
  0.100054107635E+01  0.232320583763E-07  0.431365714286E+00
  0.100049591720E+01  0.246840620248E-07  0.395418571429E+00
  0.293657046856E+02  0.283651638416E+01  0.431365714286E+00
  0.293657265943E+02  0.283652309239E+01  0.395418571429E+00
  0.100058623550E+01  0.217800547278E-07  0.467312857143E+00
  0.100054107635E+01  0.232320583763E-07  0.431365714286E+00
  0.293656827769E+02  0.283650967592E+01  0.467312857143E+00
  0.293657046856E+02  0.283651638416E+01  0.431365714286E+00
  0.100063139465E+01  0.203280510792E-07  0.503260000000E+00
  0.100058623550E+01  0.217800547278E-07  0.467312857143E+00
  0.293656608683E+02  0.283650296769E+01  0.503260000000E+00
  0.293656827769E+02  0.283650967592E+01  0.467312857143E+00
  0.100067655380E+01  0.188760474307E-07  0.539207142857E+00
  0.100063139465E+01  0.203280510792E-07  0.503260000000E+00
  0.293656389596E+02  0.283649625945E+01  0.539207142857E+00
  0.293656608683E+02  0.283650296769E+01  0.503260000000E+00
  0.100072171295E+01  0.174240437822E-07  0.575154285714E+00
  0.100067655380E+01  0.188760474307E-07  0.539207142857E+00
  0.293656170509E+02  0.283648955122E+01  0.575154285714E+00
  0.293656389596E+02  0.283649625945E+01  0.539207142857E+00
  0.100076687211E+01  0.159720401337E-07  0.611101428571E+00
  0.100072171295E+01  0.174240437822E-07  0.575154285714E+00
  0.293655951422E+02  0.283648284298E+01  0.611101428571E+00
  0.293656170509E+02  0.283648955122E+01  0.575154285714E+00
  0.100081203126E+01  0.145200364852E-07  0.647048571429E+00
  0.100076687211E+01  0.159720401337E-07  0.611101428571E+00
  0.293655732335E+02  0.283647613475E+01  0.647048571429E+00
  0.293655951422E+02  0.283648284298E+01  0.611101428571E+00
  0.100085719041E+01  0.130680328367E-07  0.682995714286E+00
  0.100081203126E+01  0.145200364852E-07  0.647048571429E+00
  0.293655513249E+02  0.283646942651E+01  0.682995714286E+00
  0.293655732335E+02  0.283647613475E+01  0.647048571429E+00
  0.100094750871E+01  0.101640255396E-07  0.754890000000E+00
  0.100090234956E+01  0.116160291881E-07  0.718942857143E+00
  0.293655075075E+02  0.283645601004E+01  0.754890000000E+00
  0.293655294162E+02  0.283646271828E+01  0.718942857143E+00
  0.100090234956E+01  0.116160291881E-07  0.718942857143E+00
  0.100085719041E+01  0.130680328367E-07  0.682995714286E+00
  0.293655294162E+02  0.283646271828E+01  0.718942857143E+00
  0.293655513249E+02  0.283646942651E+01  0.682995714286E+00
  0.100099266786E+01  0.871202189110E-08  0.790837142857E+00
  0.100094750871E+01  0.101640255396E-07  0.754890000000E+00
  0.293654855988E+02  0.283644930181E+01  0.790837142857E+00
  0.293655075075E+02  0.283645601004E+01  0.754890000000E+00
  0.100103782701E+01  0.726001824259E-08  0.826784285714E+00
  0.100099266786E+01  0.871202189110E-08  0.790837142857E+00
  0.293654636901E+02  0.283644259357E+01  0.826784285714E+00
  0.293654855988E+02  0.283644930181E+01  0.790837142857E+00
  0.100108298616E+01  0.580801459407E-08  0.862731428571E+00
  0.100103782701E+01  0.726001824259E-08  0.826784285714E+00
  0.293654417815E+02  0.283643588534E+01  0.862731428571E+00
  0.293654636901E+02  0.283644259357E+01  0.826784285714E+00
  0.100121846361E+01  0.145200364852E-08  0.970572857143E+00
  0.100117330446E+01  0.290400729703E-08  0.934625714286E+00
  0.293653760554E+02  0.283641576063E+01  0.970572857143E+00
  0.293653979641E+02  0.283642246887E+01  0.934625714286E+00
  0.100117330446E+01  0.290400729703E-08  0.934625714286E+00
  0.100112814531E+01  0.435601094555E-08  0.898678571429E+00
  0.293653979641E+02  0.283642246887E+01  0.934625714286E+00
  0.293654198728E+02  0.283642917710E+01  0.898678571429E+00
  0.100126362276E+01  0.000000000000E+00  0.100652000000E+01
  0.100121846361E+01  0.145200364852E-08  0.970572857143E+00
  0.293653541467E+02  0.283640905240E+01  0.100652000000E+01
  0.293653760554E+02  0.283641576063E+01  0.970572857143E+00
  0.100112814531E+01  0.435601094555E-08  0.898678571429E+00
  0.100108298616E+01  0.580801459407E-08  0.862731428571E+00
  0.293654198728E+02  0.283642917710E+01  0.898678571429E+00
  0.293654417815E+02  0.283643588534E+01  0.862731428571E+00
  0.999999166550E+00  0.406561021585E-07  0.000000000000E+00
  0.100004432570E+01  0.392040985100E-07 -0.359471428571E-01
  0.293659675898E+02  0.283659688298E+01  0.000000000000E+00
  0.293659456811E+02  0.283659017474E+01 -0.359471428571E-01
  0.100004432570E+01  0.392040985100E-07 -0.359471428571E-01
  0.100008948485E+01  0.377520948614E-07 -0.718942857143E-01
  0.293659456811E+02  0.283659017474E+01 -0.359471428571E-01
  0.293659237724E+02  0.283658346651E+01 -0.718942857143E-01
  0.100008948485E+01  0.377520948614E-07 -0.718942857143E-01
  0.100013464400E+01  0.363000912129E-07 -0.107841428571E+00
  0.293659237724E+02  0.283658346651E+01 -0.718942857143E-01
  0.293659018637E+02  0.283657675827E+01 -0.107841428571E+00
  0.100013464400E+01  0.363000912129E-07 -0.107841428571E+00
  0.100017980315E+01  0.348480875644E-07 -0.143788571429E+00
  0.293659018637E+02  0.283657675827E+01 -0.107841428571E+00
  0.293658799550E+02  0.283657005004E+01 -0.143788571429E+00
  0.100017980315E+01  0.348480875644E-07 -0.143788571429E+00
  0.100022496230E+01  0.333960839159E-07 -0.179735714286E+00
  0.293658799550E+02  0.283657005004E+01 -0.143788571429E+00
  0.293658580464E+02  0.283656334180E+01 -0.179735714286E+00
  0.100022496230E+01  0.333960839159E-07 -0.179735714286E+00
  0.100027012145E+01  0.319440802674E-07 -0.215682857143E+00
  0.293658580464E+02  0.283656334180E+01 -0.179735714286E+00
  0.293658361377E+02  0.283655663357E+01 -0.215682857143E+00
  0.100027012145E+01  0.319440802674E-07 -0.215682857143E+00
  0.100031528060E+01  0.304920766189E-07 -0.251630000000E+00
  0.293658361377E+02  0.283655663357E+01 -0.215682857143E+00
  0.293658142290E+02  0.283654992533E+01 -0.251630000000E+00
  0.100031528060E+01  0.304920766189E-07 -0.251630000000E+00
  0.100036043975E+01  0.290400729703E-07 -0.287577142857E+00
  0.293658142290E+02  0.283654992533E+01 -0.251630000000E+00
  0.293657923203E+02  0.283654321710E+01 -0.287577142857E+00
  0.100036043975E+01  0.290400729703E-07 -0.287577142857E+00
  0.100040559890E+01  0.275880693218E-07 -0.323524285714E+00
  0.293657923203E+02  0.283654321710E+01 -0.287577142857E+00
  0.293657704116E+02  0.283653650886E+01 -0.323524285714E+00
  0.100040559890E+01  0.275880693218E-07 -0.323524285714E+00
  0.100045075805E+01  0.261360656733E-07 -0.359471428571E+00
  0.293657704116E+02  0.283653650886E+01 -0.323524285714E+00
  0.293657485030E+02  0.283652980063E+01 -0.359471428571E+00
  0.100045075805E+01  0.261360656733E-07 -0.359471428571E+00
  0.100049591720E+01  0.246840620248E-07 -0.395418571429E+00
  0.293657485030E+02  0.283652980063E+01 -0.359471428571E+00
  0.293657265943E+02  0.283652309239E+01 -0.395418571429E+00
  0.100049591720E+01  0.246840620248E-07 -0.395418571429E+00
  0.100054107635E+01  0.232320583763E-07 -0.431365714286E+00
  0.293657265943E+02  0.283652309239E+01 -0.395418571429E+00
  0.293657046856E+02  0.283651638416E+01 -0.431365714286E+00
  0.100054107635E+01  0.232320583763E-07 -0.431365714286E+00
  0.100058623550E+01  0.217800547278E-07 -0.467312857143E+00
  0.293657046856E+02  0.283651638416E+01 -0.431365714286E+00
  0.293656827769E+02  0.283650967592E+01 -0.467312857143E+00
  0.100058623550E+01  0.217800547278E-07 -0.467312857143E+00
  0.100063139465E+01  0.203280510792E-07 -0.503260000000E+00
  0.293656827769E+02  0.283650967592E+01 -0.467312857143E+00
  0.293656608683E+02  0.283650296769E+01 -0.503260000000E+00
  0.100063139465E+01  0.203280510792E-07 -0.503260000000E+00
  0.100067655380E+01  0.188760474307E-07 -0.539207142857E+00
  0.293656608683E+02  0.283650296769E+01 -0.503260000000E+00
  0.293656389596E+02  0.283649625945E+01 -0.539207142857E+00
  0.100067655380E+01  0.188760474307E-07 -0.539207142857E+00
  0.100072171295E+01  0.174240437822E-07 -0.575154285714E+00
  0.293656389596E+02  0.283649625945E+01 -0.539207142857E+00
  0.293656170509E+02  0.283648955122E+01 -0.575154285714E+00
  0.100072171295E+01  0.174240437822E-07 -0.575154285714E+00
  0.100076687211E+01  0.159720401337E-07 -0.611101428571E+00
  0.293656170509E+02  0.283648955122E+01 -0.575154285714E+00
  0.293655951422E+02  0.283648284298E+01 -0.611101428571E+00
  0.100076687211E+01  0.159720401337E-07 -0.611101428571E+00
  0.100081203126E+01  0.145200364852E-07 -0.647048571429E+00
  0.293655951422E+02  0.283648284298E+01 -0.611101428571E+00
  0.293655732335E+02  0.283647613475E+01 -0.647048571429E+00
  0.100085719041E+01  0.130680328367E-07 -0.682995714286E+00
  0.100090234956E+01  0.116160291881E-07 -0.718942857143E+00
  0.293655513249E+02  0.283646942651E+01 -0.682995714286E+00
  0.293655294162E+02  0.283646271828E+01 -0.718942857143E+00
  0.100081203126E+01  0.145200364852E-07 -0.647048571429E+00
  0.100085719041E+01  0.130680328367E-07 -0.682995714286E+00
  0.293655732335E+02  0.283647613475E+01 -0.647048571429E+00
  0.293655513249E+02  0.283646942651E+01 -0.682995714286E+00
  0.100090234956E+01  0.116160291881E-07 -0.718942857143E+00
  0.100094750871E+01  0.101640255396E-07 -0.754890000000E+00
  0.293655294162E+02  0.283646271828E+01 -0.718942857143E+00
  0.293655075075E+02  0.283645601004E+01 -0.754890000000E+00
  0.100094750871E+01  0.101640255396E-07 -0.754890000000E+00
  0.100099266786E+01  0.871202189110E-08 -0.790837142857E+00
  0.293655075075E+02  0.283645601004E+01 -0.754890000000E+00
  0.293654855988E+02  0.283644930181E+01 -0.790837142857E+00
  0.100103782701E+01  0.726001824259E-08 -0.826784285714E+00
  0.100108298616E+01  0.580801459407E-08 -0.862731428571E+00
  0.293654636901E+02  0.283644259357E+01 -0.826784285714E+00
  0.293654417815E+02  0.283643588534E+01 -0.862731428571E+00
  0.100108298616E+01  0.580801459407E-08 -0.862731428571E+00
  0.100112814531E+01  0.435601094555E-08 -0.898678571429E+00
  0.293654417815E+02  0.283643588534E+01 -0.862731428571E+00
  0.293654198728E+02  0.283642917710E+01 -0.898678571429E+00
  0.100112814531E+01  0.435601094555E-08 -0.898678571429E+00
  0.100117330446E+01  0.290400729703E-08 -0.934625714286E+00
  0.293654198728E+02  0.283642917710E+01 -0.898678571429E+00
  0.293653979641E+02  0.283642246887E+01 -0.934625714286E+00
  0.100099266786E+01  0.871202189110E-08 -0.790837142857E+00
  0.100103782701E+01  0.726001824259E-08 -0.826784285714E+00
  0.293654855988E+02  0.283644930181E+01 -0.790837142857E+00
  0.293654636901E+02  0.283644259357E+01 -0.826784285714E+00
  0.100121846361E+01  0.145200364852E-08 -0.970572857143E+00
  0.100126362276E+01  0.000000000000E+00 -0.100652000000E+01
  0.293653760554E+02  0.283641576063E+01 -0.970572857143E+00
  0.293653541467E+02  0.283640905240E+01 -0.100652000000E+01
  0.100117330446E+01  0.290400729703E-08 -0.934625714286E+00
  0.100121846361E+01  0.145200364852E-08 -0.970572857143E+00
  0.293653979641E+02  0.283642246887E+01 -0.934625714286E+00
  0.293653760554E+02  0.283641576063E+01 -0.970572857143E+00
POLYGONS                 112                 448
3                   0                   3                   1
3                   0                   2                   3
3                   4                   7                   5
3                   4                   6                   7
3                   8                  11                   9
3                   8                  10                  11
3                  12                  15                  13
3                  12                  14                  15
3                  16                  19                  17
3                  16                  18                  19
3                  20                  23                  21
3                  20                  22                  23
3                  24                  27                  25
3                  24                  26                  27
3                  28                  31                  29
3                  28                  30                  31
3                  32                  35                  33
3                  32                  34                  35
3                  36                  39                  37
3                  36                  38                  39
3                  40                  43                  41
3                  40                  42                  43
3                  44                  47                  45
3                  44                  46                  47
3                  48                  51                  49
3                  48                  50                  51
3                  52                  55                  53
3                  52                  54                  55
3                  56                  59                  57
3                  56                  58                  59
3                  60                  63                  61
3                  60                  62                  63
3                  64                  67                  65
3                  64                  66                  67
3                  68                  71                  69
3                  68                  70                  71
3                  72                  75                  73
3                  72                  74                  75
3                  76                  79                  77
3                  76                  78                  79
3                  80                  83                  81
3                  80                  82                  83
3                  84                  87                  85
3                  84                  86                  87
3                  88                  91                  89
3                  88                  90                  91
3                  92                  95                  93
3                  92                  94                  95
3                  96                  99                  97
3                  96                  98                  99
3                 100                 103                 101
3                 100                 102                 103
3                 104                 107                 105
3                 104                 106                 107
3                 108                 111                 109
3                 108                 110                 111
3                 112                 114                 113
3                 114                 115                 113
3                 116                 118                 117
3                 118                 119                 117
3                 120                 122                 121
3                 122                 123                 121
3                 124                 126                 125
3                 126                 127                 125
3                 128                 130                 129
3                 130                 131                 129
3                 132                 134                 133
3                 134                 135                 133
3                 136                 138                 137
3                 138                 139                 137
3                 140                 142                 141
3                 142                 143                 141
3                 144                 146                 145
3                 146                 147                 145
3                 148                 150                 149
3                 150                 151                 149
3                 152                 154                 153
3                 154                 155                 153
3                 156                 158                 157
3                 158                 159                 157
3                 160                 162                 161
3                 162                 163                 161
3                 164                 166                 165
3                 166                 167                 165
3                 168                 170                 169
3                 170                 171                 169
3                 172                 174                 173
3                 174                 175                 173
3                 176                 178                 177
3                 178                 179                 177
3                 180                 182                 181
3                 182                 183                 181
3                 184                 186                 185
3                 186                 187                 185
3                 188                 190                 189
3                 190                 191                 189
3                 192                 194                 193
3                 194                 195                 193
3                 196                 198                 197
3                 198                 199                 197
3                 200                 202                 201
3                 202                 203                 201
3                 204                 206                 205
3                 206                 207                 205
3                 208                 210                 209
3                 210                 211                 209
3                 212                 214                 213
3                 214                 215                 213
3                 216                 218                 217
3                 218                 219                 217
3                 220                 222                 221
3                 222                 223                 221
POINT_DATA                 224
SCALARS mu float 1
LOOKUP_TABLE default
  0.109977578488E+00
  0.110063447567E+00
  0.109977578488E+00
  0.110063447567E+00
  0.109708752730E+00
  0.109977578488E+00
  0.109708752730E+00
  0.109977578488E+00
  0.109301233792E+00
  0.109708752730E+00
  0.109301233792E+00
  0.109708752730E+00
  0.108696923882E+00
  0.109301233792E+00
  0.108696923882E+00
  0.109301233792E+00
  0.107889138018E+00
  0.108696923882E+00
  0.107889138018E+00
  0.108696923882E+00
  0.106911986345E+00
  0.107889138018E+00
  0.106911986345E+00
  0.107889138018E+00
  0.105790604662E+00
  0.106911986345E+00
  0.105790604662E+00
  0.106911986345E+00
  0.104463418966E+00
  0.105790604662E+00
  0.104463418966E+00
  0.105790604662E+00
  0.102898529313E+00
  0.104463418966E+00
  0.102898529313E+00
  0.104463418966E+00
  0.101216834347E+00
  0.102898529313E+00
  0.101216834347E+00
  0.102898529313E+00
  0.992612817036E-01
  0.101216834347E+00
  0.992612817036E-01
  0.101216834347E+00
  0.971148195022E-01
  0.992612817036E-01
  0.971148195022E-01
  0.992612817036E-01
  0.946664570367E-01
  0.971148195022E-01
  0.946664570367E-01
  0.971148195022E-01
  0.919945649608E-01
  0.946664570367E-01
  0.919945649608E-01
  0.946664570367E-01
  0.890666270253E-01
  0.919945649608E-01
  0.890666270253E-01
  0.919945649608E-01
  0.856580575962E-01
  0.890666270253E-01
  0.856580575962E-01
  0.890666270253E-01
  0.819636883117E-01
  0.856580575962E-01
  0.819636883117E-01
  0.856580575962E-01
  0.781832723360E-01
  0.819636883117E-01
  0.781832723360E-01
  0.819636883117E-01
  0.744095598320E-01
  0.781832723360E-01
  0.744095598320E-01
  0.781832723360E-01
  0.636419285268E-01
  0.704047089105E-01
  0.636419285268E-01
  0.704047089105E-01
  0.704047089105E-01
  0.744095598320E-01
  0.704047089105E-01
  0.744095598320E-01
  0.555522531004E-01
  0.636419285268E-01
  0.555522531004E-01
  0.636419285268E-01
  0.465187312436E-01
  0.555522531004E-01
  0.465187312436E-01
  0.555522531004E-01
  0.371298810145E-01
  0.465187312436E-01
  0.371298810145E-01
  0.465187312436E-01
  0.940400636827E-02
  0.187110148416E-01
  0.940400636827E-02
  0.187110148416E-01
  0.187110148416E-01
  0.279146742734E-01
  0.187110148416E-01
  0.279146742734E-01
  0.000000000000E+00
  0.940400636827E-02
  0.000000000000E+00
  0.940400636827E-02
  0.279146742734E-01
  0.371298810145E-01
  0.279146742734E-01
  0.371298810145E-01
  0.110063447567E+00
  0.109977579822E+00
  0.110063447567E+00
  0.109977579822E+00
  0.109977579822E+00
  0.109708751339E+00
  0.109977579822E+00
  0.109708751339E+00
  0.109708751339E+00
  0.109301233150E+00
  0.109708751339E+00
  0.109301233150E+00
  0.109301233150E+00
  0.108696923291E+00
  0.109301233150E+00
  0.108696923291E+00
  0.108696923291E+00
  0.107889139016E+00
  0.108696923291E+00
  0.107889139016E+00
  0.107889139016E+00
  0.106911985406E+00
  0.107889139016E+00
  0.106911985406E+00
  0.106911985406E+00
  0.105790604109E+00
  0.106911985406E+00
  0.105790604109E+00
  0.105790604109E+00
  0.104463418151E+00
  0.105790604109E+00
  0.104463418151E+00
  0.104463418151E+00
  0.102898530972E+00
  0.104463418151E+00
  0.102898530972E+00
  0.102898530972E+00
  0.101216832676E+00
  0.102898530972E+00
  0.101216832676E+00
  0.101216832676E+00
  0.992612817353E-01
  0.101216832676E+00
  0.992612817353E-01
  0.992612817353E-01
  0.971148189740E-01
  0.992612817353E-01
  0.971148189740E-01
  0.971148189740E-01
  0.946664556659E-01
  0.971148189740E-01
  0.946664556659E-01
  0.946664556659E-01
  0.919945645129E-01
  0.946664556659E-01
  0.919945645129E-01
  0.919945645129E-01
  0.890666294736E-01
  0.919945645129E-01
  0.890666294736E-01
  0.890666294736E-01
  0.856580593132E-01
  0.890666294736E-01
  0.856580593132E-01
  0.856580593132E-01
  0.819636890480E-01
  0.856580593132E-01
  0.819636890480E-01
  0.819636890480E-01
  0.781832725338E-01
  0.819636890480E-01
  0.781832725338E-01
  0.744095589833E-01
  0.704047072501E-01
  0.744095589833E-01
  0.704047072501E-01
  0.781832725338E-01
  0.744095589833E-01
  0.781832725338E-01
  0.744095589833E-01
  0.704047072501E-01
  0.636419307758E-01
  0.704047072501E-01
  0.636419307758E-01
  0.636419307758E-01
  0.555522553940E-01
  0.636419307758E-01
  0.555522553940E-01
  0.465187299250E-01
  0.371298815972E-01
  0.465187299250E-01
  0.371298815972E-01
  0.371298815972E-01
  0.279146733142E-01
  0.371298815972E-01
  0.279146733142E-01
  0.279146733142E-01
  0.187110151025E-01
  0.279146733142E-01
  0.187110151025E-01
  0.555522553940E-01
  0.465187299250E-01
  0.555522553940E-01
  0.465187299250E-01
  0.940400715835E-02
  0.000000000000E+00
  0.940400715835E-02
  0.000000000000E+00
  0.187110151025E-01
  0.940400715835E-02
  0.187110151025E-01
  0.940400715835E-02
