# vtk DataFile Version 3.0
MachLine results file. Generated by MachLine, USU AeroLab (c) 2023.
ASCII
DATASET POLYDATA
POINTS                  76 float
  0.400000000000E+01  0.210526317358E+00  0.000000000000E+00
  0.199403477646E+02  0.210526317358E+00 -0.159403477646E+01
  0.400000000000E+01  0.631578952074E+00  0.000000000000E+00
  0.199403477646E+02  0.631578952074E+00 -0.159403477646E+01
  0.400000000000E+01  0.105263155699E+01  0.000000000000E+00
  0.199403477646E+02  0.105263155699E+01 -0.159403477646E+01
  0.400000000000E+01  0.147368419170E+01  0.000000000000E+00
  0.199403477646E+02  0.147368419170E+01 -0.159403477646E+01
  0.400000000000E+01  0.189473688602E+01  0.000000000000E+00
  0.199403477646E+02  0.189473688602E+01 -0.159403477646E+01
  0.400000000000E+01  0.231578946114E+01  0.000000000000E+00
  0.199403477646E+02  0.231578946114E+01 -0.159403477646E+01
  0.400000000000E+01  0.273684203625E+01  0.000000000000E+00
  0.199403477646E+02  0.273684203625E+01 -0.159403477646E+01
  0.400000000000E+01  0.315789473057E+01  0.000000000000E+00
  0.199403477646E+02  0.315789473057E+01 -0.159403477646E+01
  0.400000000000E+01  0.357894742489E+01  0.000000000000E+00
  0.199403477646E+02  0.357894742489E+01 -0.159403477646E+01
  0.400000000000E+01  0.400000011921E+01  0.000000000000E+00
  0.199403477646E+02  0.400000011921E+01 -0.159403477646E+01
  0.400000000000E+01  0.442105269432E+01  0.000000000000E+00
  0.199403477646E+02  0.442105269432E+01 -0.159403477646E+01
  0.400000000000E+01  0.484210515022E+01  0.000000000000E+00
  0.199403477646E+02  0.484210515022E+01 -0.159403477646E+01
  0.400000000000E+01  0.526315784454E+01  0.000000000000E+00
  0.199403477646E+02  0.526315784454E+01 -0.159403477646E+01
  0.400000000000E+01  0.568421053887E+01  0.000000000000E+00
  0.199403477646E+02  0.568421053887E+01 -0.159403477646E+01
  0.400000000000E+01  0.610526323319E+01  0.000000000000E+00
  0.199403477646E+02  0.610526323319E+01 -0.159403477646E+01
  0.400000000000E+01  0.652631592750E+01  0.000000000000E+00
  0.199403477646E+02  0.652631592750E+01 -0.159403477646E+01
  0.400000000000E+01  0.694736838341E+01  0.000000000000E+00
  0.199403477646E+02  0.694736838341E+01 -0.159403477646E+01
  0.400000000000E+01  0.736842107773E+01  0.000000000000E+00
  0.199403477646E+02  0.736842107773E+01 -0.159403477646E+01
  0.400000000000E+01  0.778947377205E+01  0.000000000000E+00
  0.199403477646E+02  0.778947377205E+01 -0.159403477646E+01
  0.400000000000E+01 -0.210526317358E+00  0.000000000000E+00
  0.199403477646E+02 -0.210526317358E+00 -0.159403477646E+01
  0.400000000000E+01 -0.631578952074E+00  0.000000000000E+00
  0.199403477646E+02 -0.631578952074E+00 -0.159403477646E+01
  0.400000000000E+01 -0.105263155699E+01  0.000000000000E+00
  0.199403477646E+02 -0.105263155699E+01 -0.159403477646E+01
  0.400000000000E+01 -0.147368419170E+01  0.000000000000E+00
  0.199403477646E+02 -0.147368419170E+01 -0.159403477646E+01
  0.400000000000E+01 -0.189473688602E+01  0.000000000000E+00
  0.199403477646E+02 -0.189473688602E+01 -0.159403477646E+01
  0.400000000000E+01 -0.231578946114E+01  0.000000000000E+00
  0.199403477646E+02 -0.231578946114E+01 -0.159403477646E+01
  0.400000000000E+01 -0.273684203625E+01  0.000000000000E+00
  0.199403477646E+02 -0.273684203625E+01 -0.159403477646E+01
  0.400000000000E+01 -0.315789473057E+01  0.000000000000E+00
  0.199403477646E+02 -0.315789473057E+01 -0.159403477646E+01
  0.400000000000E+01 -0.357894742489E+01  0.000000000000E+00
  0.199403477646E+02 -0.357894742489E+01 -0.159403477646E+01
  0.400000000000E+01 -0.400000011921E+01  0.000000000000E+00
  0.199403477646E+02 -0.400000011921E+01 -0.159403477646E+01
  0.400000000000E+01 -0.442105269432E+01  0.000000000000E+00
  0.199403477646E+02 -0.442105269432E+01 -0.159403477646E+01
  0.400000000000E+01 -0.484210515022E+01  0.000000000000E+00
  0.199403477646E+02 -0.484210515022E+01 -0.159403477646E+01
  0.400000000000E+01 -0.526315784454E+01  0.000000000000E+00
  0.199403477646E+02 -0.526315784454E+01 -0.159403477646E+01
  0.400000000000E+01 -0.568421053887E+01  0.000000000000E+00
  0.199403477646E+02 -0.568421053887E+01 -0.159403477646E+01
  0.400000000000E+01 -0.610526323319E+01  0.000000000000E+00
  0.199403477646E+02 -0.610526323319E+01 -0.159403477646E+01
  0.400000000000E+01 -0.652631592750E+01  0.000000000000E+00
  0.199403477646E+02 -0.652631592750E+01 -0.159403477646E+01
  0.400000000000E+01 -0.694736838341E+01  0.000000000000E+00
  0.199403477646E+02 -0.694736838341E+01 -0.159403477646E+01
  0.400000000000E+01 -0.736842107773E+01  0.000000000000E+00
  0.199403477646E+02 -0.736842107773E+01 -0.159403477646E+01
  0.400000000000E+01 -0.778947377205E+01  0.000000000000E+00
  0.199403477646E+02 -0.778947377205E+01 -0.159403477646E+01
LINES                  38                 114
2                   0                   1
2                   2                   3
2                   4                   5
2                   6                   7
2                   8                   9
2                  10                  11
2                  12                  13
2                  14                  15
2                  16                  17
2                  18                  19
2                  20                  21
2                  22                  23
2                  24                  25
2                  26                  27
2                  28                  29
2                  30                  31
2                  32                  33
2                  34                  35
2                  36                  37
2                  38                  39
2                  40                  41
2                  42                  43
2                  44                  45
2                  46                  47
2                  48                  49
2                  50                  51
2                  52                  53
2                  54                  55
2                  56                  57
2                  58                  59
2                  60                  61
2                  62                  63
2                  64                  65
2                  66                  67
2                  68                  69
2                  70                  71
2                  72                  73
2                  74                  75
POINT_DATA                  76
SCALARS Gamma float 1
LOOKUP_TABLE default
 -0.566100392601E-01
 -0.566100392601E-01
  0.118258318717E+00
  0.118258318717E+00
 -0.180747694698E-01
 -0.180747694698E-01
 -0.655695928187E-01
 -0.655695928187E-01
  0.544256839819E-01
  0.544256839819E-01
  0.258376356896E-03
  0.258376356896E-03
 -0.505809154347E-01
 -0.505809154347E-01
  0.191731262805E-01
  0.191731262805E-01
 -0.314237004475E-02
 -0.314237004475E-02
 -0.406345033400E-01
 -0.406345033400E-01
 -0.135205363276E-02
 -0.135205363276E-02
 -0.183301370941E-01
 -0.183301370941E-01
 -0.441519139449E-01
 -0.441519139449E-01
 -0.135524099664E-01
 -0.135524099664E-01
 -0.442912375003E-01
 -0.442912375003E-01
 -0.760275419103E-01
 -0.760275419103E-01
 -0.424231889328E-01
 -0.424231889328E-01
 -0.354089608159E-01
 -0.354089608159E-01
 -0.388803358770E+00
 -0.388803358770E+00
  0.566100392602E-01
  0.566100392602E-01
 -0.118258318717E+00
 -0.118258318717E+00
  0.180747694697E-01
  0.180747694697E-01
  0.655695928190E-01
  0.655695928190E-01
 -0.544256839820E-01
 -0.544256839820E-01
 -0.258376357301E-03
 -0.258376357301E-03
  0.505809154352E-01
  0.505809154352E-01
 -0.191731262805E-01
 -0.191731262805E-01
  0.314237004418E-02
  0.314237004418E-02
  0.406345033404E-01
  0.406345033404E-01
  0.135205363298E-02
  0.135205363298E-02
  0.183301370936E-01
  0.183301370936E-01
  0.441519139451E-01
  0.441519139451E-01
  0.135524099667E-01
  0.135524099667E-01
  0.442912375000E-01
  0.442912375000E-01
  0.760275419103E-01
  0.760275419103E-01
  0.424231889329E-01
  0.424231889329E-01
  0.354089608159E-01
  0.354089608159E-01
  0.388803358770E+00
  0.388803358770E+00
