# vtk DataFile Version 3.0
MachLine results file. Generated by MachLine, USU AeroLab (c) 2023.
ASCII
DATASET POLYDATA
POINTS                   4 float
  0.369259364885E+01 -0.765628016050E+01  0.000000000000E+00
  0.200000000000E+02 -0.765628016050E+01  0.000000000000E+00
  0.369259364885E+01  0.765628016050E+01  0.000000000000E+00
  0.200000000000E+02  0.765628016050E+01  0.000000000000E+00
LINES                   2                   6
2                   0                   1
2                   2                   3
POINT_DATA                   4
SCALARS Gamma float 1
LOOKUP_TABLE default
  0.944830909166E+04
  0.944830909166E+04
 -0.944830909166E+04
 -0.944830909166E+04
