# vtk DataFile Version 3.0
MachLine results file. Generated by MachLine, USU AeroLab (c) 2023.
ASCII
DATASET POLYDATA
POINTS                  16 float
  0.266666666667E+01  0.300000000000E+01 -0.666666666667E-01
  0.133333333333E+01  0.300000000000E+01 -0.666666666667E-01
  0.133333333333E+01  0.300000000000E+01  0.666666666667E-01
  0.266666666667E+01  0.300000000000E+01  0.666666666667E-01
  0.266666666667E+01 -0.300000000000E+01 -0.666666666667E-01
  0.133333333333E+01 -0.300000000000E+01 -0.666666666667E-01
  0.133333333333E+01 -0.300000000000E+01  0.666666666667E-01
  0.266666666667E+01 -0.300000000000E+01  0.666666666667E-01
  0.109921609330E+02  0.300000000000E+01  0.136332007542E+00
  0.967908392890E+01  0.300000000000E+01 -0.951988960143E-01
  0.965593083857E+01  0.300000000000E+01  0.361088043890E-01
  0.109690078427E+02  0.300000000000E+01  0.267639707946E+00
  0.109921609330E+02 -0.300000000000E+01  0.136332007542E+00
  0.967908392890E+01 -0.300000000000E+01 -0.951988960143E-01
  0.965593083857E+01 -0.300000000000E+01  0.361088043890E-01
  0.109690078427E+02 -0.300000000000E+01  0.267639707946E+00
VERTICES                  16                  32
1                   0
1                   1
1                   2
1                   3
1                   4
1                   5
1                   6
1                   7
1                   8
1                   9
1                  10
1                  11
1                  12
1                  13
1                  14
1                  15
POINT_DATA                  16
SCALARS BC_type int 1
LOOKUP_TABLE default
           3
           3
           3
           3
           3
           3
           3
           3
           3
           3
           3
           3
           3
           3
           3
           3
SCALARS residual float 1
LOOKUP_TABLE default
  0.382685137369E-04
  0.150384547453E-04
 -0.150377229783E-04
 -0.382668565359E-04
 -0.355593575627E-04
 -0.177695506918E-04
  0.177687862566E-04
  0.355577581063E-04
  0.694048480354E-07
 -0.477577027619E-06
  0.375626341809E-06
  0.273281711427E-07
  0.257091687939E-07
  0.405870637182E-06
 -0.298971528645E-06
 -0.120386591307E-06
