# vtk DataFile Version 3.0
MachLine results file. Generated by MachLine, USU AeroLab (c) 2023.
ASCII
DATASET POLYDATA
POINTS                  17 float
  0.400000000000E+01  0.000000000000E+00  0.000000000000E+00
  0.200000000000E+01  0.000000000000E+00 -0.200000000000E+00
  0.200000000000E+01  0.900000000000E+01  0.000000000000E+00
  0.000000000000E+00  0.000000000000E+00  0.000000000000E+00
  0.200000000000E+01  0.000000000000E+00  0.200000000000E+00
  0.200000000000E+01 -0.900000000000E+01  0.000000000000E+00
  0.122936613920E+02  0.000000000000E+00  0.433516761300E+00
  0.103587755210E+02  0.000000000000E+00 -0.110741144640E+00
  0.103240458860E+02  0.900000000000E+01  0.862204059670E-01
  0.835443037970E+01  0.000000000000E+00 -0.261075949370E+00
  0.102893162500E+02  0.000000000000E+00  0.283181956570E+00
  0.103240458860E+02 -0.900000000000E+01  0.862204059670E-01
  0.400000000000E+01  0.000000000000E+00  0.000000000000E+00
  0.122936613920E+02  0.000000000000E+00  0.433516761300E+00
  0.103240458860E+02  0.900000000000E+01  0.862204059670E-01
  0.835443037970E+01  0.000000000000E+00 -0.261075949370E+00
  0.103240458860E+02 -0.900000000000E+01  0.862204059670E-01
POLYGONS                  16                  64
3                   0                   1                   2
3                   1                   3                   2
3                   3                   4                   2
3                   4                  12                   2
3                   0                   5                   1
3                   1                   5                   3
3                   3                   5                   4
3                   4                   5                  12
3                   6                   7                   8
3                   7                   9                   8
3                  15                  10                  14
3                  10                  13                  14
3                   6                  11                   7
3                   7                  11                   9
3                  15                  16                  10
3                  10                  16                  13
CELL_DATA                  16
NORMALS normals float
  0.994794023738E-01  0.221065338608E-01 -0.994794023738E+00
 -0.994794023738E-01  0.221065338608E-01 -0.994794023738E+00
 -0.994794023738E-01  0.221065338608E-01  0.994794023738E+00
  0.994794023738E-01  0.221065338608E-01  0.994794023738E+00
  0.994794023738E-01 -0.221065338608E-01 -0.994794023738E+00
 -0.994794023738E-01 -0.221065338608E-01 -0.994794023738E+00
 -0.994794023738E-01 -0.221065338608E-01  0.994794023738E+00
  0.994794023738E-01 -0.221065338608E-01  0.994794023738E+00
  0.270712256034E+00  0.221065338454E-01 -0.962406450308E+00
  0.747760826622E-01  0.221065338569E-01 -0.996955284164E+00
 -0.270712256125E+00  0.221065338749E-01  0.962406450282E+00
 -0.747760826362E-01  0.221065338647E-01  0.996955284166E+00
  0.270712256034E+00 -0.221065338454E-01 -0.962406450308E+00
  0.747760826622E-01 -0.221065338569E-01 -0.996955284164E+00
 -0.270712256125E+00 -0.221065338749E-01  0.962406450282E+00
 -0.747760826362E-01 -0.221065338647E-01  0.996955284166E+00
SCALARS inclination float 1
LOOKUP_TABLE default
  0.100000000000E+01
  0.100000000000E+01
  0.100000000000E+01
  0.100000000000E+01
  0.100000000000E+01
  0.100000000000E+01
  0.100000000000E+01
  0.100000000000E+01
  0.100000000000E+01
  0.100000000000E+01
  0.100000000000E+01
  0.100000000000E+01
  0.100000000000E+01
  0.100000000000E+01
  0.100000000000E+01
  0.100000000000E+01
SCALARS distribution_order float 1
LOOKUP_TABLE default
  0.100000000000E+01
  0.100000000000E+01
  0.100000000000E+01
  0.100000000000E+01
  0.100000000000E+01
  0.100000000000E+01
  0.100000000000E+01
  0.100000000000E+01
  0.100000000000E+01
  0.100000000000E+01
  0.100000000000E+01
  0.100000000000E+01
  0.100000000000E+01
  0.100000000000E+01
  0.100000000000E+01
  0.100000000000E+01
SCALARS N_discontinuous_edges float 1
LOOKUP_TABLE default
  0.200000000000E+01
  0.200000000000E+01
  0.200000000000E+01
  0.200000000000E+01
  0.200000000000E+01
  0.200000000000E+01
  0.200000000000E+01
  0.200000000000E+01
  0.200000000000E+01
  0.200000000000E+01
  0.200000000000E+01
  0.200000000000E+01
  0.200000000000E+01
  0.200000000000E+01
  0.200000000000E+01
  0.200000000000E+01
VECTORS centroid float
  0.266666666667E+01  0.300000000000E+01 -0.666666666667E-01
  0.133333333333E+01  0.300000000000E+01 -0.666666666667E-01
  0.133333333333E+01  0.300000000000E+01  0.666666666667E-01
  0.266666666667E+01  0.300000000000E+01  0.666666666667E-01
  0.266666666667E+01 -0.300000000000E+01 -0.666666666667E-01
  0.133333333333E+01 -0.300000000000E+01 -0.666666666667E-01
  0.133333333333E+01 -0.300000000000E+01  0.666666666667E-01
  0.266666666667E+01 -0.300000000000E+01  0.666666666667E-01
  0.109921609330E+02  0.300000000000E+01  0.136332007542E+00
  0.967908392890E+01  0.300000000000E+01 -0.951988960143E-01
  0.965593083857E+01  0.300000000000E+01  0.361088043890E-01
  0.109690078427E+02  0.300000000000E+01  0.267639707946E+00
  0.109921609330E+02 -0.300000000000E+01  0.136332007542E+00
  0.967908392890E+01 -0.300000000000E+01 -0.951988960143E-01
  0.965593083857E+01 -0.300000000000E+01  0.361088043890E-01
  0.109690078427E+02 -0.300000000000E+01  0.267639707946E+00
SCALARS C_p_ise float 1
LOOKUP_TABLE default
 -0.753789236917E-01
 -0.977586189437E-01
 -0.771391285841E-01
 -0.871076967055E-01
 -0.808986319339E-01
 -0.923900356536E-01
 -0.708687290456E-01
 -0.917084141889E-01
  0.618418066513E+00
 -0.100671704963E+01
  0.547030871365E+00
 -0.975636120908E+00
  0.578040264292E+00
 -0.103601095381E+01
  0.589521971876E+00
 -0.945690644895E+00
SCALARS sigma float 1
LOOKUP_TABLE default
  0.000000000000E+00
  0.000000000000E+00
  0.000000000000E+00
  0.000000000000E+00
  0.000000000000E+00
  0.000000000000E+00
  0.000000000000E+00
  0.000000000000E+00
  0.000000000000E+00
  0.000000000000E+00
  0.000000000000E+00
  0.000000000000E+00
  0.000000000000E+00
  0.000000000000E+00
  0.000000000000E+00
  0.000000000000E+00
VECTORS v float
  0.103293910807E+03  0.916040026265E+01  0.104249972579E+02
  0.104255349734E+03  0.107607498274E+02 -0.101932446878E+02
  0.103240949869E+03  0.109918046305E+02  0.100265931177E+02
  0.103823198426E+03  0.939174182269E+01 -0.106548790326E+02
  0.103443134419E+03  0.108540760529E+02  0.999089930685E+01
  0.104096352151E+03  0.925226711640E+01 -0.106223621134E+02
  0.103081671003E+03  0.902132104554E+01  0.104572001124E+02
  0.103971752595E+03  0.106234293761E+02 -0.102275469574E+02
  0.599738103378E+02  0.238059287780E+00  0.177904631575E+02
  0.142535281537E+03  0.182393369431E+01  0.105970942477E+02
  0.623643900945E+02  0.201949525140E+02  0.180117647040E+02
  0.140211727345E+03  0.186153477733E+02  0.101022278384E+02
  0.601953807986E+02  0.197574828604E+02  0.173185491138E+02
  0.142501871577E+03  0.181353891029E+02  0.100967673291E+02
  0.621557469792E+02 -0.135442694761E+00  0.183445896908E+02
  0.140310104194E+03  0.148303416798E+01  0.103402518651E+02
VECTORS v_inner float
 -0.163242594365E+02 -0.101800233978E+01 -0.999907414621E+00
 -0.159893272109E+02  0.828345244145E-01  0.859922164319E+00
 -0.159179675656E+02  0.726094363622E-01 -0.919059521014E+00
 -0.163930527350E+02 -0.102896862683E+01  0.831281835295E+00
 -0.162200440691E+02 -0.862648454848E+00 -0.983922925632E+00
 -0.161034596987E+02 -0.196497650161E+01  0.879455691901E+00
 -0.160323221956E+02 -0.195462953902E+01 -0.937694883335E+00
 -0.162894608278E+02 -0.850997502790E+00  0.808991291877E+00
 -0.413555840685E+01 -0.344146608023E+02  0.147201114377E+00
 -0.304044722888E+02 -0.333523749422E+02 -0.231094224371E+01
 -0.233569981278E+02 -0.342069153521E+02 -0.327708474933E+01
 -0.111116613206E+02 -0.352742639951E+02  0.653106879356E+00
 -0.400042669580E+01  0.354204502494E+02 -0.174153892859E-01
 -0.304639587854E+02  0.343225955697E+02 -0.246360262979E+01
 -0.234164861179E+02  0.351961812797E+02 -0.347451966545E+01
 -0.109817752963E+02  0.362995372031E+02  0.471033488879E+00
VECTORS dC_f float
  0.678410313226E-01  0.150757847383E-01 -0.678410313226E+00
 -0.879827570493E-01  0.195517237887E-01 -0.879827570493E+00
 -0.694252157257E-01  0.154278257168E-01  0.694252157257E+00
  0.783969270350E-01  0.174215393411E-01  0.783969270350E+00
  0.728087687405E-01 -0.161797263868E-01 -0.728087687405E+00
 -0.831510320882E-01 -0.184780071307E-01 -0.831510320882E+00
 -0.637818561411E-01 -0.141737458091E-01  0.637818561411E+00
  0.825375727700E-01 -0.183416828378E-01  0.825375727700E+00
 -0.151460514844E+01 -0.123683613247E+00  0.538455770670E+01
  0.681050749836E+00  0.201343409865E+00 -0.908013792192E+01
  0.133976644440E+01 -0.109406174333E+00 -0.476299036630E+01
 -0.660024295759E+00  0.195127224259E+00  0.879980183686E+01
 -0.141571342707E+01  0.115608052806E+00  0.503298873112E+01
  0.700868269973E+00 -0.207202190698E+00 -0.934435584717E+01
  0.144383397263E+01  0.117904394439E+00 -0.513295980126E+01
 -0.639765982959E+00 -0.189138129054E+00  0.852970702469E+01
POINT_DATA                  17
SCALARS mu float 1
LOOKUP_TABLE default
  0.207941332844E+01
 -0.323813641999E+00
  0.610432789459E+00
 -0.273876877587E+01
 -0.345635025124E+00
 -0.135124482638E+01
  0.851520810234E+00
 -0.478314519822E+00
  0.263737608062E+01
 -0.394673040480E+01
 -0.185541974993E+01
  0.936148040189E+00
  0.206961610480E+01
  0.117670564332E+01
  0.300434983349E+01
 -0.362109063151E+01
  0.129545489374E+01
SCALARS Phi_u float 1
LOOKUP_TABLE default
  0.208978453157E+03
 -0.325428682651E+02
  0.613477360912E+02
 -0.275242855525E+03
 -0.347358901280E+02
 -0.135798424388E+03
  0.855767823165E+02
 -0.480700143198E+02
  0.265053015764E+03
 -0.396641496784E+03
 -0.186467377117E+03
  0.940817136686E+02
  0.207993844368E+03
  0.118257453580E+03
  0.301933421490E+03
 -0.363915104594E+03
  0.130191605548E+03
SCALARS convex float 1
LOOKUP_TABLE default
  0.100000000000E+01
  0.100000000000E+01
  0.100000000000E+01
  0.100000000000E+01
  0.100000000000E+01
  0.100000000000E+01
  0.100000000000E+01
  0.100000000000E+01
  0.100000000000E+01
  0.100000000000E+01
  0.100000000000E+01
  0.100000000000E+01
  0.100000000000E+01
  0.100000000000E+01
  0.100000000000E+01
  0.100000000000E+01
  0.100000000000E+01
