# vtk DataFile Version 3.0
MachLine results file. Generated by MachLine, USU AeroLab (c) 2023.
ASCII
DATASET POLYDATA
POINTS                  17 float
  0.400000000000E+01  0.000000000000E+00  0.000000000000E+00
  0.200000000000E+01  0.000000000000E+00 -0.200000000000E+00
  0.200000000000E+01  0.900000000000E+01  0.000000000000E+00
  0.000000000000E+00  0.000000000000E+00  0.000000000000E+00
  0.200000000000E+01  0.000000000000E+00  0.200000000000E+00
  0.200000000000E+01 -0.900000000000E+01  0.000000000000E+00
  0.122936613920E+02  0.000000000000E+00  0.433516761300E+00
  0.103587755210E+02  0.000000000000E+00 -0.110741144640E+00
  0.103240458860E+02  0.900000000000E+01  0.862204059670E-01
  0.835443037970E+01  0.000000000000E+00 -0.261075949370E+00
  0.102893162500E+02  0.000000000000E+00  0.283181956570E+00
  0.103240458860E+02 -0.900000000000E+01  0.862204059670E-01
  0.400000000000E+01  0.000000000000E+00  0.000000000000E+00
  0.122936613920E+02  0.000000000000E+00  0.433516761300E+00
  0.103240458860E+02  0.900000000000E+01  0.862204059670E-01
  0.835443037970E+01  0.000000000000E+00 -0.261075949370E+00
  0.103240458860E+02 -0.900000000000E+01  0.862204059670E-01
VERTICES                  17                  34
1                   0
1                   1
1                   2
1                   3
1                   4
1                   5
1                   6
1                   7
1                   8
1                   9
1                  10
1                  11
1                  12
1                  13
1                  14
1                  15
1                  16
POINT_DATA                  17
SCALARS BC_type int 1
LOOKUP_TABLE default
           3
           3
           3
           3
           3
           3
           3
           3
           3
           3
           3
           3
           3
           3
           3
           3
           3
