# vtk DataFile Version 3.0
MachLine results file. Generated by MachLine, USU AeroLab (c) 2023.
ASCII
DATASET POLYDATA
POINTS                  17 float
  0.400000000000E+01  0.000000000000E+00  0.000000000000E+00
  0.200000000000E+01  0.000000000000E+00 -0.200000000000E+00
  0.200000000000E+01  0.900000000000E+01  0.000000000000E+00
  0.000000000000E+00  0.000000000000E+00  0.000000000000E+00
  0.200000000000E+01  0.000000000000E+00  0.200000000000E+00
  0.200000000000E+01 -0.900000000000E+01  0.000000000000E+00
  0.122936613920E+02  0.000000000000E+00  0.433516761300E+00
  0.103587755210E+02  0.000000000000E+00 -0.110741144640E+00
  0.103240458860E+02  0.900000000000E+01  0.862204059670E-01
  0.835443037970E+01  0.000000000000E+00 -0.261075949370E+00
  0.102893162500E+02  0.000000000000E+00  0.283181956570E+00
  0.103240458860E+02 -0.900000000000E+01  0.862204059670E-01
  0.400000000000E+01  0.000000000000E+00  0.000000000000E+00
  0.122936613920E+02  0.000000000000E+00  0.433516761300E+00
  0.103240458860E+02  0.900000000000E+01  0.862204059670E-01
  0.835443037970E+01  0.000000000000E+00 -0.261075949370E+00
  0.103240458860E+02 -0.900000000000E+01  0.862204059670E-01
POLYGONS                  16                  64
3                   0                   1                   2
3                   1                   3                   2
3                   3                   4                   2
3                   4                  12                   2
3                   0                   5                   1
3                   1                   5                   3
3                   3                   5                   4
3                   4                   5                  12
3                   6                   7                   8
3                   7                   9                   8
3                  15                  10                  14
3                  10                  13                  14
3                   6                  11                   7
3                   7                  11                   9
3                  15                  16                  10
3                  10                  16                  13
CELL_DATA                  16
NORMALS normals float
  0.994794023738E-01  0.221065338608E-01 -0.994794023738E+00
 -0.994794023738E-01  0.221065338608E-01 -0.994794023738E+00
 -0.994794023738E-01  0.221065338608E-01  0.994794023738E+00
  0.994794023738E-01  0.221065338608E-01  0.994794023738E+00
  0.994794023738E-01 -0.221065338608E-01 -0.994794023738E+00
 -0.994794023738E-01 -0.221065338608E-01 -0.994794023738E+00
 -0.994794023738E-01 -0.221065338608E-01  0.994794023738E+00
  0.994794023738E-01 -0.221065338608E-01  0.994794023738E+00
  0.270712256034E+00  0.221065338454E-01 -0.962406450308E+00
  0.747760826622E-01  0.221065338569E-01 -0.996955284164E+00
 -0.270712256125E+00  0.221065338749E-01  0.962406450282E+00
 -0.747760826362E-01  0.221065338647E-01  0.996955284166E+00
  0.270712256034E+00 -0.221065338454E-01 -0.962406450308E+00
  0.747760826622E-01 -0.221065338569E-01 -0.996955284164E+00
 -0.270712256125E+00 -0.221065338749E-01  0.962406450282E+00
 -0.747760826362E-01 -0.221065338647E-01  0.996955284166E+00
SCALARS inclination float 1
LOOKUP_TABLE default
  0.100000000000E+01
  0.100000000000E+01
  0.100000000000E+01
  0.100000000000E+01
  0.100000000000E+01
  0.100000000000E+01
  0.100000000000E+01
  0.100000000000E+01
  0.100000000000E+01
  0.100000000000E+01
  0.100000000000E+01
  0.100000000000E+01
  0.100000000000E+01
  0.100000000000E+01
  0.100000000000E+01
  0.100000000000E+01
SCALARS distribution_order float 1
LOOKUP_TABLE default
  0.100000000000E+01
  0.100000000000E+01
  0.100000000000E+01
  0.100000000000E+01
  0.100000000000E+01
  0.100000000000E+01
  0.100000000000E+01
  0.100000000000E+01
  0.100000000000E+01
  0.100000000000E+01
  0.100000000000E+01
  0.100000000000E+01
  0.100000000000E+01
  0.100000000000E+01
  0.100000000000E+01
  0.100000000000E+01
SCALARS N_discontinuous_edges float 1
LOOKUP_TABLE default
  0.200000000000E+01
  0.200000000000E+01
  0.200000000000E+01
  0.200000000000E+01
  0.200000000000E+01
  0.200000000000E+01
  0.200000000000E+01
  0.200000000000E+01
  0.200000000000E+01
  0.200000000000E+01
  0.200000000000E+01
  0.200000000000E+01
  0.200000000000E+01
  0.200000000000E+01
  0.200000000000E+01
  0.200000000000E+01
VECTORS centroid float
  0.266666666667E+01  0.300000000000E+01 -0.666666666667E-01
  0.133333333333E+01  0.300000000000E+01 -0.666666666667E-01
  0.133333333333E+01  0.300000000000E+01  0.666666666667E-01
  0.266666666667E+01  0.300000000000E+01  0.666666666667E-01
  0.266666666667E+01 -0.300000000000E+01 -0.666666666667E-01
  0.133333333333E+01 -0.300000000000E+01 -0.666666666667E-01
  0.133333333333E+01 -0.300000000000E+01  0.666666666667E-01
  0.266666666667E+01 -0.300000000000E+01  0.666666666667E-01
  0.109921609330E+02  0.300000000000E+01  0.136332007542E+00
  0.967908392890E+01  0.300000000000E+01 -0.951988960143E-01
  0.965593083857E+01  0.300000000000E+01  0.361088043890E-01
  0.109690078427E+02  0.300000000000E+01  0.267639707946E+00
  0.109921609330E+02 -0.300000000000E+01  0.136332007542E+00
  0.967908392890E+01 -0.300000000000E+01 -0.951988960143E-01
  0.965593083857E+01 -0.300000000000E+01  0.361088043890E-01
  0.109690078427E+02 -0.300000000000E+01  0.267639707946E+00
SCALARS C_p_ise float 1
LOOKUP_TABLE default
 -0.757721079105E-01
 -0.976911201340E-01
 -0.774593124817E-01
 -0.872938522358E-01
 -0.813079743956E-01
 -0.923403762728E-01
 -0.712090227458E-01
 -0.919471903394E-01
  0.596596735481E+00
 -0.957102674220E+00
  0.560198164855E+00
 -0.989178659714E+00
  0.556102279360E+00
 -0.985490017334E+00
  0.599779614469E+00
 -0.961796296310E+00
SCALARS sigma float 1
LOOKUP_TABLE default
  0.000000000000E+00
  0.000000000000E+00
  0.000000000000E+00
  0.000000000000E+00
  0.000000000000E+00
  0.000000000000E+00
  0.000000000000E+00
  0.000000000000E+00
  0.000000000000E+00
  0.000000000000E+00
  0.000000000000E+00
  0.000000000000E+00
  0.000000000000E+00
  0.000000000000E+00
  0.000000000000E+00
  0.000000000000E+00
VECTORS v float
  0.103314977258E+03  0.914818095381E+01  0.104178853981E+02
  0.104252045831E+03  0.107546902872E+02 -0.101998858563E+02
  0.103258301497E+03  0.109808083604E+02  0.100216156347E+02
  0.103832880152E+03  0.937442791154E+01 -0.106642489183E+02
  0.103463172367E+03  0.108650541549E+02  0.997890402809E+01
  0.104092437206E+03  0.925735641717E+01 -0.106326107333E+02
  0.103098404273E+03  0.903110553451E+01  0.104484903389E+02
  0.103980394732E+03  0.106391245397E+02 -0.102416029044E+02
  0.617710888711E+02  0.397411639155E+00  0.177170606365E+02
  0.140748208216E+03  0.203498644785E+01  0.100330283024E+02
  0.617782509319E+02  0.194550916269E+02  0.171985005639E+02
  0.140849508448E+03  0.178228912108E+02  0.963405209376E+01
  0.620213503383E+02  0.197406944378E+02  0.171802226087E+02
  0.140684331044E+03  0.180790335037E+02  0.957459788378E+01
  0.615424952852E+02  0.429249486340E+00  0.176209336861E+02
  0.140922620227E+03  0.209674000400E+01  0.100079882072E+02
VECTORS v_inner float
 -0.163400293665E+02 -0.960321914045E+00 -0.100896078769E+01
 -0.159722669577E+02  0.146638649662E+00  0.852962593262E+00
 -0.159024126889E+02  0.136401477833E+00 -0.925913021657E+00
 -0.164074540302E+02 -0.971438312734E+00  0.822552050066E+00
 -0.162368510090E+02 -0.921985878329E+00 -0.997774646934E+00
 -0.160870176024E+02 -0.203017012870E+01  0.868817523432E+00
 -0.160173939992E+02 -0.202005289223E+01 -0.948197457506E+00
 -0.163049111719E+02 -0.910562143547E+00  0.795480842020E+00
 -0.136139329369E+02  0.156139409465E+01 -0.214016437564E+01
 -0.190313157588E+02  0.268398716372E+01 -0.117354689983E+01
 -0.121226906434E+02  0.184909897397E+01 -0.187821244951E+01
 -0.205229962388E+02  0.731409951507E+00 -0.135607249088E+01
 -0.135025900303E+02 -0.360961261668E+01 -0.218313440941E+01
 -0.191294191408E+02 -0.475751747423E+01 -0.117565492934E+01
 -0.122260532483E+02 -0.389731621157E+01 -0.192644851373E+01
 -0.204164993218E+02 -0.274527852415E+01 -0.142724514099E+01
VECTORS dC_f float
  0.681948971195E-01  0.151544215821E-01 -0.681948971195E+00
 -0.879220081206E-01  0.195382240268E-01 -0.879220081206E+00
 -0.697133812335E-01  0.154918624963E-01  0.697133812335E+00
  0.785644670122E-01  0.174587704472E-01  0.785644670122E+00
  0.731771769560E-01 -0.162615948791E-01 -0.731771769560E+00
 -0.831063386455E-01 -0.184680752546E-01 -0.831063386455E+00
 -0.640881204712E-01 -0.142418045492E-01  0.640881204712E+00
  0.827524713054E-01 -0.183894380679E-01  0.827524713054E+00
 -0.146116120475E+01 -0.119319347042E+00  0.519455967375E+01
  0.647486296359E+00  0.191420534786E+00 -0.863263842659E+01
  0.137201526052E+01 -0.112039633032E+00 -0.487763781186E+01
 -0.669185912931E+00  0.197835732021E+00  0.892194948526E+01
 -0.136198377924E+01  0.111220455822E+00  0.484197499424E+01
  0.666690521936E+00 -0.197098003407E+00 -0.888867957619E+01
  0.146895658648E+01  0.119955922959E+00 -0.522227295599E+01
 -0.650661562781E+00 -0.192359259338E+00  0.867497280346E+01
POINT_DATA                  17
SCALARS mu float 1
LOOKUP_TABLE default
  0.208158383789E+01
 -0.322380067684E+00
  0.605610472337E+00
 -0.273692930606E+01
 -0.343756065212E+00
 -0.135610454827E+01
  0.232193557405E+01
  0.763022098993E+00
  0.671649559587E+00
 -0.244038123643E+01
 -0.574657344533E+00
 -0.131622597757E+01
  0.207197560859E+01
  0.266019258109E+01
  0.990169063584E+00
 -0.210077115245E+01
 -0.974933135669E+00
SCALARS Phi_u float 1
LOOKUP_TABLE default
  0.209196586657E+03
 -0.323987958295E+02
  0.608630992183E+02
 -0.275057991097E+03
 -0.345470569938E+02
 -0.136286820394E+03
  0.233351637195E+03
  0.766827719105E+02
  0.674999453483E+02
 -0.245255278942E+03
 -0.577523483732E+02
 -0.132279073639E+03
  0.208230971564E+03
  0.267346045682E+03
  0.995107593290E+02
 -0.211124887906E+03
 -0.979795675239E+02
SCALARS convex float 1
LOOKUP_TABLE default
  0.100000000000E+01
  0.100000000000E+01
  0.100000000000E+01
  0.100000000000E+01
  0.100000000000E+01
  0.100000000000E+01
  0.100000000000E+01
  0.100000000000E+01
  0.100000000000E+01
  0.100000000000E+01
  0.100000000000E+01
  0.100000000000E+01
  0.100000000000E+01
  0.100000000000E+01
  0.100000000000E+01
  0.100000000000E+01
  0.100000000000E+01
