# vtk DataFile Version 3.0
MachLine results file. Generated by MachLine, USU AeroLab (c) 2023.
ASCII
DATASET POLYDATA
POINTS                  36 float
  0.100000000000E+01  0.251860313995E+00  0.000000000000E+00
  0.198857081295E+02  0.214043112695E+01  0.000000000000E+00
  0.100000000000E+01  0.805599058095E+00  0.000000000000E+00
  0.198308825113E+02  0.268868730923E+01  0.000000000000E+00
  0.100000000000E+01  0.143280588895E+01  0.000000000000E+00
  0.197687828251E+02  0.330968417146E+01  0.000000000000E+00
  0.100000000000E+01  0.207091458845E+01  0.000000000000E+00
  0.197056037459E+02  0.394147496304E+01  0.000000000000E+00
  0.100000000000E+01  0.265309330345E+01  0.000000000000E+00
  0.196479622890E+02  0.451788953235E+01  0.000000000000E+00
  0.100000000000E+01  0.313340690260E+01  0.000000000000E+00
  0.196004064871E+02  0.499344755131E+01  0.000000000000E+00
  0.100000000000E+01  0.349744653460E+01  0.000000000000E+00
  0.195643629592E+02  0.535388283052E+01  0.000000000000E+00
  0.100000000000E+01  0.375575325965E+01  0.000000000000E+00
  0.195387880359E+02  0.560963206324E+01  0.000000000000E+00
  0.100000000000E+01  0.393046776780E+01  0.000000000000E+00
  0.195214895698E+02  0.578261672478E+01  0.000000000000E+00
  0.100000000000E+01 -0.251860313995E+00  0.000000000000E+00
  0.199355814591E+02  0.164169783191E+01  0.000000000000E+00
  0.100000000000E+01 -0.805599058095E+00  0.000000000000E+00
  0.199904070773E+02  0.109344164963E+01  0.000000000000E+00
  0.100000000000E+01 -0.143280588895E+01  0.000000000000E+00
  0.200525067635E+02  0.472444787400E+00  0.000000000000E+00
  0.100000000000E+01 -0.207091458845E+01  0.000000000000E+00
  0.201156858427E+02 -0.159346004184E+00  0.000000000000E+00
  0.100000000000E+01 -0.265309330345E+01  0.000000000000E+00
  0.201733272996E+02 -0.735760573491E+00  0.000000000000E+00
  0.100000000000E+01 -0.313340690260E+01  0.000000000000E+00
  0.202208831015E+02 -0.121131859245E+01  0.000000000000E+00
  0.100000000000E+01 -0.349744653460E+01  0.000000000000E+00
  0.202569266294E+02 -0.157175387166E+01  0.000000000000E+00
  0.100000000000E+01 -0.375575325965E+01  0.000000000000E+00
  0.202825015527E+02 -0.182750310438E+01  0.000000000000E+00
  0.100000000000E+01 -0.393046776780E+01  0.000000000000E+00
  0.202998000188E+02 -0.200048776592E+01  0.000000000000E+00
LINES                  18                  54
2                   0                   1
2                   2                   3
2                   4                   5
2                   6                   7
2                   8                   9
2                  10                  11
2                  12                  13
2                  14                  15
2                  16                  17
2                  18                  19
2                  20                  21
2                  22                  23
2                  24                  25
2                  26                  27
2                  28                  29
2                  30                  31
2                  32                  33
2                  34                  35
POINT_DATA                  36
SCALARS Gamma float 1
LOOKUP_TABLE default
 -0.717256750259E-02
 -0.717256750259E-02
 -0.164434542335E-02
 -0.164434542335E-02
  0.143852817830E-01
  0.143852817830E-01
 -0.212340908599E-01
 -0.212340908599E-01
  0.210620021903E-01
  0.210620021903E-01
 -0.147707810436E-01
 -0.147707810436E-01
  0.604147273850E-02
  0.604147273850E-02
 -0.386124788205E-03
 -0.386124788205E-03
 -0.233715560791E-03
 -0.233715560791E-03
  0.698365004367E-02
  0.698365004367E-02
 -0.724340530059E-02
 -0.724340530059E-02
  0.389856049063E-02
  0.389856049063E-02
  0.672134959346E-02
  0.672134959346E-02
 -0.627707499231E-02
 -0.627707499231E-02
 -0.496570725840E-03
 -0.496570725840E-03
  0.230387256210E-02
  0.230387256210E-02
 -0.210180886139E-02
 -0.210180886139E-02
  0.164295656994E-03
  0.164295656994E-03
