# vtk DataFile Version 3.0
MachLine results file. Generated by MachLine, USU AeroLab (c) 2023.
ASCII
DATASET POLYDATA
POINTS                  36 float
  0.100000000000E+01  0.251860313995E+00  0.000000000000E+00
  0.686791088368E+02  0.251860313995E+00  0.135358217674E+02
  0.100000000000E+01  0.143280588895E+01  0.000000000000E+00
  0.686791088368E+02  0.143280588895E+01  0.135358217674E+02
  0.100000000000E+01  0.805599058095E+00  0.000000000000E+00
  0.686791088368E+02  0.805599058095E+00  0.135358217674E+02
  0.100000000000E+01  0.207091458845E+01  0.000000000000E+00
  0.686791088368E+02  0.207091458845E+01  0.135358217674E+02
  0.100000000000E+01  0.265309330345E+01  0.000000000000E+00
  0.686791088368E+02  0.265309330345E+01  0.135358217674E+02
  0.100000000000E+01  0.313340690260E+01  0.000000000000E+00
  0.686791088368E+02  0.313340690260E+01  0.135358217674E+02
  0.100000000000E+01  0.349744653460E+01  0.000000000000E+00
  0.686791088368E+02  0.349744653460E+01  0.135358217674E+02
  0.100000000000E+01  0.393046776780E+01  0.000000000000E+00
  0.686791088368E+02  0.393046776780E+01  0.135358217674E+02
  0.100000000000E+01  0.375575325965E+01  0.000000000000E+00
  0.686791088368E+02  0.375575325965E+01  0.135358217674E+02
  0.100000000000E+01 -0.251860313995E+00  0.000000000000E+00
  0.686791088368E+02 -0.251860313995E+00  0.135358217674E+02
  0.100000000000E+01 -0.805599058095E+00  0.000000000000E+00
  0.686791088368E+02 -0.805599058095E+00  0.135358217674E+02
  0.100000000000E+01 -0.143280588895E+01  0.000000000000E+00
  0.686791088368E+02 -0.143280588895E+01  0.135358217674E+02
  0.100000000000E+01 -0.207091458845E+01  0.000000000000E+00
  0.686791088368E+02 -0.207091458845E+01  0.135358217674E+02
  0.100000000000E+01 -0.265309330345E+01  0.000000000000E+00
  0.686791088368E+02 -0.265309330345E+01  0.135358217674E+02
  0.100000000000E+01 -0.313340690260E+01  0.000000000000E+00
  0.686791088368E+02 -0.313340690260E+01  0.135358217674E+02
  0.100000000000E+01 -0.349744653460E+01  0.000000000000E+00
  0.686791088368E+02 -0.349744653460E+01  0.135358217674E+02
  0.100000000000E+01 -0.375575325965E+01  0.000000000000E+00
  0.686791088368E+02 -0.375575325965E+01  0.135358217674E+02
  0.100000000000E+01 -0.393046776780E+01  0.000000000000E+00
  0.686791088368E+02 -0.393046776780E+01  0.135358217674E+02
LINES                  18                  54
2                   0                   1
2                   2                   3
2                   4                   5
2                   6                   7
2                   8                   9
2                  10                  11
2                  12                  13
2                  14                  15
2                  16                  17
2                  18                  19
2                  20                  21
2                  22                  23
2                  24                  25
2                  26                  27
2                  28                  29
2                  30                  31
2                  32                  33
2                  34                  35
POINT_DATA                  36
SCALARS Gamma float 1
LOOKUP_TABLE default
  0.274595923875E-02
  0.274595923875E-02
  0.200583164979E-02
  0.200583164979E-02
 -0.124695308430E-02
 -0.124695308430E-02
  0.223624606224E-02
  0.223624606224E-02
  0.243505547808E-02
  0.243505547808E-02
  0.342663332817E-02
  0.342663332817E-02
  0.105726179459E-01
  0.105726179459E-01
  0.323523482886E-01
  0.323523482886E-01
 -0.138830072906E-01
 -0.138830072906E-01
 -0.274595924238E-02
 -0.274595924238E-02
  0.124695307384E-02
  0.124695307384E-02
 -0.200583165970E-02
 -0.200583165970E-02
 -0.223624606159E-02
 -0.223624606159E-02
 -0.243505546752E-02
 -0.243505546752E-02
 -0.342663331751E-02
 -0.342663331751E-02
 -0.105726179490E-01
 -0.105726179490E-01
  0.138830072863E-01
  0.138830072863E-01
 -0.323523482789E-01
 -0.323523482789E-01
