# vtk DataFile Version 3.0
MachLine results file. Generated by MachLine, USU AeroLab (c) 2023.
ASCII
DATASET POLYDATA
POINTS                  36 float
  0.100000000000E+01  0.251860313995E+00  0.000000000000E+00
  0.490674953230E+02  0.251860313995E+00  0.961349906460E+01
  0.100000000000E+01  0.805599058095E+00  0.000000000000E+00
  0.490674953230E+02  0.805599058095E+00  0.961349906460E+01
  0.100000000000E+01  0.143280588895E+01  0.000000000000E+00
  0.490674953230E+02  0.143280588895E+01  0.961349906460E+01
  0.100000000000E+01  0.207091458845E+01  0.000000000000E+00
  0.490674953230E+02  0.207091458845E+01  0.961349906460E+01
  0.100000000000E+01  0.265309330345E+01  0.000000000000E+00
  0.490674953230E+02  0.265309330345E+01  0.961349906460E+01
  0.100000000000E+01  0.313340690260E+01  0.000000000000E+00
  0.490674953230E+02  0.313340690260E+01  0.961349906460E+01
  0.100000000000E+01  0.349744653460E+01  0.000000000000E+00
  0.490674953230E+02  0.349744653460E+01  0.961349906460E+01
  0.100000000000E+01  0.375575325965E+01  0.000000000000E+00
  0.490674953230E+02  0.375575325965E+01  0.961349906460E+01
  0.100000000000E+01  0.393046776780E+01  0.000000000000E+00
  0.490674953230E+02  0.393046776780E+01  0.961349906460E+01
  0.100000000000E+01 -0.251860313995E+00  0.000000000000E+00
  0.490674953230E+02 -0.251860313995E+00  0.961349906460E+01
  0.100000000000E+01 -0.805599058095E+00  0.000000000000E+00
  0.490674953230E+02 -0.805599058095E+00  0.961349906460E+01
  0.100000000000E+01 -0.143280588895E+01  0.000000000000E+00
  0.490674953230E+02 -0.143280588895E+01  0.961349906460E+01
  0.100000000000E+01 -0.207091458845E+01  0.000000000000E+00
  0.490674953230E+02 -0.207091458845E+01  0.961349906460E+01
  0.100000000000E+01 -0.265309330345E+01  0.000000000000E+00
  0.490674953230E+02 -0.265309330345E+01  0.961349906460E+01
  0.100000000000E+01 -0.313340690260E+01  0.000000000000E+00
  0.490674953230E+02 -0.313340690260E+01  0.961349906460E+01
  0.100000000000E+01 -0.349744653460E+01  0.000000000000E+00
  0.490674953230E+02 -0.349744653460E+01  0.961349906460E+01
  0.100000000000E+01 -0.375575325965E+01  0.000000000000E+00
  0.490674953230E+02 -0.375575325965E+01  0.961349906460E+01
  0.100000000000E+01 -0.393046776780E+01  0.000000000000E+00
  0.490674953230E+02 -0.393046776780E+01  0.961349906460E+01
LINES                  18                  54
2                   0                   1
2                   2                   3
2                   4                   5
2                   6                   7
2                   8                   9
2                  10                  11
2                  12                  13
2                  14                  15
2                  16                  17
2                  18                  19
2                  20                  21
2                  22                  23
2                  24                  25
2                  26                  27
2                  28                  29
2                  30                  31
2                  32                  33
2                  34                  35
POINT_DATA                  36
SCALARS Gamma float 1
LOOKUP_TABLE default
  0.672107721051E-01
  0.672107721051E-01
 -0.137754581996E+00
 -0.137754581996E+00
  0.126898542445E+00
  0.126898542445E+00
  0.841103569437E-01
  0.841103569437E-01
 -0.307131095503E-01
 -0.307131095503E-01
  0.130292021492E+00
  0.130292021492E+00
  0.663196667918E-01
  0.663196667918E-01
 -0.220944408775E+00
 -0.220944408775E+00
  0.130036380967E+00
  0.130036380967E+00
 -0.638711733369E-01
 -0.638711733369E-01
  0.130093535110E+00
  0.130093535110E+00
 -0.130659854882E+00
 -0.130659854882E+00
 -0.117607452671E+00
 -0.117607452671E+00
  0.344752145692E-01
  0.344752145692E-01
 -0.135468172293E+00
 -0.135468172293E+00
 -0.104035347270E+00
 -0.104035347270E+00
  0.273333974677E+00
  0.273333974677E+00
 -0.101716364325E+00
 -0.101716364325E+00
