# vtk DataFile Version 3.0
MachLine results file. Generated by MachLine, USU AeroLab (c) 2023.
ASCII
DATASET POLYDATA
POINTS                  72 float
  0.100000000000E+01  0.110747748820E+01  0.000000000000E+00
  0.100000000000E+01  0.503720627990E+00  0.000000000000E+00
  0.731012429845E+02  0.110747748820E+01  0.144202485969E+02
  0.731012429845E+02  0.503720627990E+00  0.144202485969E+02
  0.100000000000E+01  0.503720627990E+00  0.000000000000E+00
  0.100000000000E+01  0.000000000000E+00  0.000000000000E+00
  0.731012429845E+02  0.503720627990E+00  0.144202485969E+02
  0.731012429845E+02  0.000000000000E+00  0.144202485969E+02
  0.100000000000E+01  0.175813428970E+01  0.000000000000E+00
  0.100000000000E+01  0.110747748820E+01  0.000000000000E+00
  0.731012429845E+02  0.175813428970E+01  0.144202485969E+02
  0.731012429845E+02  0.110747748820E+01  0.144202485969E+02
  0.100000000000E+01  0.238369488720E+01  0.000000000000E+00
  0.100000000000E+01  0.175813428970E+01  0.000000000000E+00
  0.731012429845E+02  0.238369488720E+01  0.144202485969E+02
  0.731012429845E+02  0.175813428970E+01  0.144202485969E+02
  0.100000000000E+01  0.292249171970E+01  0.000000000000E+00
  0.100000000000E+01  0.238369488720E+01  0.000000000000E+00
  0.731012429845E+02  0.292249171970E+01  0.144202485969E+02
  0.731012429845E+02  0.238369488720E+01  0.144202485969E+02
  0.100000000000E+01  0.334432208550E+01  0.000000000000E+00
  0.100000000000E+01  0.292249171970E+01  0.000000000000E+00
  0.731012429845E+02  0.334432208550E+01  0.144202485969E+02
  0.731012429845E+02  0.292249171970E+01  0.144202485969E+02
  0.100000000000E+01  0.365057098370E+01  0.000000000000E+00
  0.100000000000E+01  0.334432208550E+01  0.000000000000E+00
  0.731012429845E+02  0.365057098370E+01  0.144202485969E+02
  0.731012429845E+02  0.334432208550E+01  0.144202485969E+02
  0.100000000000E+01  0.386093553560E+01  0.000000000000E+00
  0.100000000000E+01  0.365057098370E+01  0.000000000000E+00
  0.731012429845E+02  0.386093553560E+01  0.144202485969E+02
  0.731012429845E+02  0.365057098370E+01  0.144202485969E+02
  0.100000000000E+01  0.400000000000E+01  0.000000000000E+00
  0.100000000000E+01  0.386093553560E+01  0.000000000000E+00
  0.731012429845E+02  0.400000000000E+01  0.144202485969E+02
  0.731012429845E+02  0.386093553560E+01  0.144202485969E+02
  0.100000000000E+01  0.000000000000E+00  0.000000000000E+00
  0.100000000000E+01 -0.503720627990E+00  0.000000000000E+00
  0.731012429845E+02  0.000000000000E+00  0.144202485969E+02
  0.731012429845E+02 -0.503720627990E+00  0.144202485969E+02
  0.100000000000E+01 -0.503720627990E+00  0.000000000000E+00
  0.100000000000E+01 -0.110747748820E+01  0.000000000000E+00
  0.731012429845E+02 -0.503720627990E+00  0.144202485969E+02
  0.731012429845E+02 -0.110747748820E+01  0.144202485969E+02
  0.100000000000E+01 -0.110747748820E+01  0.000000000000E+00
  0.100000000000E+01 -0.175813428970E+01  0.000000000000E+00
  0.731012429845E+02 -0.110747748820E+01  0.144202485969E+02
  0.731012429845E+02 -0.175813428970E+01  0.144202485969E+02
  0.100000000000E+01 -0.175813428970E+01  0.000000000000E+00
  0.100000000000E+01 -0.238369488720E+01  0.000000000000E+00
  0.731012429845E+02 -0.175813428970E+01  0.144202485969E+02
  0.731012429845E+02 -0.238369488720E+01  0.144202485969E+02
  0.100000000000E+01 -0.238369488720E+01  0.000000000000E+00
  0.100000000000E+01 -0.292249171970E+01  0.000000000000E+00
  0.731012429845E+02 -0.238369488720E+01  0.144202485969E+02
  0.731012429845E+02 -0.292249171970E+01  0.144202485969E+02
  0.100000000000E+01 -0.292249171970E+01  0.000000000000E+00
  0.100000000000E+01 -0.334432208550E+01  0.000000000000E+00
  0.731012429845E+02 -0.292249171970E+01  0.144202485969E+02
  0.731012429845E+02 -0.334432208550E+01  0.144202485969E+02
  0.100000000000E+01 -0.334432208550E+01  0.000000000000E+00
  0.100000000000E+01 -0.365057098370E+01  0.000000000000E+00
  0.731012429845E+02 -0.334432208550E+01  0.144202485969E+02
  0.731012429845E+02 -0.365057098370E+01  0.144202485969E+02
  0.100000000000E+01 -0.365057098370E+01  0.000000000000E+00
  0.100000000000E+01 -0.386093553560E+01  0.000000000000E+00
  0.731012429845E+02 -0.365057098370E+01  0.144202485969E+02
  0.731012429845E+02 -0.386093553560E+01  0.144202485969E+02
  0.100000000000E+01 -0.386093553560E+01  0.000000000000E+00
  0.100000000000E+01 -0.400000000000E+01  0.000000000000E+00
  0.731012429845E+02 -0.386093553560E+01  0.144202485969E+02
  0.731012429845E+02 -0.400000000000E+01  0.144202485969E+02
POLYGONS                  36                 144
3                   0                   3                   1
3                   0                   2                   3
3                   4                   7                   5
3                   4                   6                   7
3                   8                  11                   9
3                   8                  10                  11
3                  12                  15                  13
3                  12                  14                  15
3                  16                  19                  17
3                  16                  18                  19
3                  20                  23                  21
3                  20                  22                  23
3                  24                  27                  25
3                  24                  26                  27
3                  28                  31                  29
3                  28                  30                  31
3                  32                  35                  33
3                  32                  34                  35
3                  36                  39                  37
3                  36                  38                  39
3                  40                  43                  41
3                  40                  42                  43
3                  44                  47                  45
3                  44                  46                  47
3                  48                  51                  49
3                  48                  50                  51
3                  52                  55                  53
3                  52                  54                  55
3                  56                  59                  57
3                  56                  58                  59
3                  60                  63                  61
3                  60                  62                  63
3                  64                  67                  65
3                  64                  66                  67
3                  68                  71                  69
3                  68                  70                  71
POINT_DATA                  72
SCALARS mu float 1
LOOKUP_TABLE default
 -0.531890980492E+00
 -0.363826161914E+00
 -0.531890980492E+00
 -0.363826161914E+00
 -0.363826161914E+00
 -0.459899455103E+00
 -0.363826161914E+00
 -0.459899455103E+00
 -0.393229926384E+00
 -0.531890980492E+00
 -0.393229926384E+00
 -0.531890980492E+00
 -0.370522155538E+00
 -0.393229926384E+00
 -0.370522155538E+00
 -0.393229926384E+00
 -0.449170682870E+00
 -0.370522155538E+00
 -0.449170682870E+00
 -0.370522155538E+00
 -0.304379315997E+00
 -0.449170682870E+00
 -0.304379315997E+00
 -0.449170682870E+00
 -0.255744631879E+00
 -0.304379315997E+00
 -0.255744631879E+00
 -0.304379315997E+00
 -0.288023743095E+00
 -0.255744631879E+00
 -0.288023743095E+00
 -0.255744631879E+00
  0.000000000000E+00
 -0.288023743095E+00
  0.000000000000E+00
 -0.288023743095E+00
 -0.459899455103E+00
 -0.363826161914E+00
 -0.459899455103E+00
 -0.363826161914E+00
 -0.363826161914E+00
 -0.531890980492E+00
 -0.363826161914E+00
 -0.531890980492E+00
 -0.531890980492E+00
 -0.393229926384E+00
 -0.531890980492E+00
 -0.393229926384E+00
 -0.393229926384E+00
 -0.370522155538E+00
 -0.393229926384E+00
 -0.370522155538E+00
 -0.370522155538E+00
 -0.449170682869E+00
 -0.370522155538E+00
 -0.449170682869E+00
 -0.449170682869E+00
 -0.304379315997E+00
 -0.449170682869E+00
 -0.304379315997E+00
 -0.304379315997E+00
 -0.255744631879E+00
 -0.304379315997E+00
 -0.255744631879E+00
 -0.255744631879E+00
 -0.288023743095E+00
 -0.255744631879E+00
 -0.288023743095E+00
 -0.288023743095E+00
  0.000000000000E+00
 -0.288023743095E+00
  0.000000000000E+00
