# vtk DataFile Version 3.0
MachLine results file. Generated by MachLine, USU AeroLab (c) 2023.
ASCII
DATASET POLYDATA
POINTS                1152 float
  0.988539030820E+00  0.335813751993E+00 -0.131654301740E-02
  0.977078061640E+00  0.167906875997E+00 -0.263308603480E-02
  0.945574745927E+00  0.335813751993E+00 -0.614234895813E-02
  0.925532399393E+00  0.167906875997E+00 -0.833506886407E-02
  0.872947283470E+00  0.335813751993E+00 -0.138080654970E-01
  0.840404514080E+00  0.167906875997E+00 -0.170883422240E-01
  0.760896265187E+00  0.335813751993E+00 -0.244893075473E-01
  0.713930785683E+00  0.167906875997E+00 -0.286099961437E-01
  0.609543507177E+00  0.335813751993E+00 -0.365835480503E-01
  0.552121708173E+00  0.167906875997E+00 -0.404364113607E-01
  0.437182625243E+00  0.167906875997E+00 -0.461668626623E-01
  0.379665341317E+00  0.335813751993E+00 -0.480444506537E-01
  0.275022399213E+00  0.167906875997E+00 -0.488674568417E-01
  0.227896741037E+00  0.335813751993E+00 -0.478128750383E-01
  0.148258442703E+00  0.167906875997E+00 -0.433231396087E-01
  0.115745802546E+00  0.335813751993E+00 -0.398879859823E-01
  0.637159948207E-01  0.167906875997E+00 -0.315359681800E-01
  0.441988272523E-01  0.335813751993E+00 -0.266191040040E-01
  0.164544397893E-01  0.167906875997E+00 -0.144681598853E-01
  0.822721989467E-02  0.335813751993E+00 -0.723407994267E-02
  0.822721989467E-02  0.335813751993E+00  0.723407994267E-02
  0.164544397893E-01  0.167906875997E+00  0.144681598853E-01
  0.441988272523E-01  0.335813751993E+00  0.266191040040E-01
  0.637159948207E-01  0.167906875997E+00  0.315359681800E-01
  0.115745802546E+00  0.335813751993E+00  0.398879859823E-01
  0.148258442703E+00  0.167906875997E+00  0.433231396087E-01
  0.227896741037E+00  0.335813751993E+00  0.478128750383E-01
  0.275022399213E+00  0.167906875997E+00  0.488674568417E-01
  0.379665341317E+00  0.335813751993E+00  0.480444506537E-01
  0.437182625243E+00  0.167906875997E+00  0.461668626623E-01
  0.552121708173E+00  0.167906875997E+00  0.404364113607E-01
  0.609543507177E+00  0.335813751993E+00  0.365835480503E-01
  0.713930785683E+00  0.167906875997E+00  0.286099961437E-01
  0.760896265187E+00  0.335813751993E+00  0.244893075473E-01
  0.840404514080E+00  0.167906875997E+00  0.170883422240E-01
  0.872947283470E+00  0.335813751993E+00  0.138080654970E-01
  0.925532399393E+00  0.167906875997E+00  0.833506886407E-02
  0.945574745927E+00  0.335813751993E+00  0.614234895813E-02
  0.977078061640E+00  0.167906875997E+00  0.263308603480E-02
  0.988539030820E+00  0.335813751993E+00  0.131654301740E-02
  0.988539030820E+00  0.906225201463E+00 -0.131654301740E-02
  0.977078061640E+00  0.704972914727E+00 -0.263308603480E-02
  0.945574745927E+00  0.906225201463E+00 -0.614234895813E-02
  0.925532399393E+00  0.704972914727E+00 -0.833506886407E-02
  0.872947283470E+00  0.906225201463E+00 -0.138080654970E-01
  0.840404514080E+00  0.704972914727E+00 -0.170883422240E-01
  0.760896265187E+00  0.906225201463E+00 -0.244893075473E-01
  0.713930785683E+00  0.704972914727E+00 -0.286099961437E-01
  0.609543507177E+00  0.906225201463E+00 -0.365835480503E-01
  0.552121708173E+00  0.704972914727E+00 -0.404364113607E-01
  0.437182625243E+00  0.704972914727E+00 -0.461668626623E-01
  0.379665341317E+00  0.906225201463E+00 -0.480444506537E-01
  0.275022399213E+00  0.704972914727E+00 -0.488674568417E-01
  0.227896741037E+00  0.906225201463E+00 -0.478128750383E-01
  0.148258442703E+00  0.704972914727E+00 -0.433231396087E-01
  0.115745802546E+00  0.906225201463E+00 -0.398879859823E-01
  0.637159948207E-01  0.704972914727E+00 -0.315359681800E-01
  0.441988272523E-01  0.906225201463E+00 -0.266191040040E-01
  0.164544397893E-01  0.704972914727E+00 -0.144681598853E-01
  0.822721989467E-02  0.906225201463E+00 -0.723407994267E-02
  0.822721989467E-02  0.906225201463E+00  0.723407994267E-02
  0.164544397893E-01  0.704972914727E+00  0.144681598853E-01
  0.441988272523E-01  0.906225201463E+00  0.266191040040E-01
  0.637159948207E-01  0.704972914727E+00  0.315359681800E-01
  0.115745802546E+00  0.906225201463E+00  0.398879859823E-01
  0.148258442703E+00  0.704972914727E+00  0.433231396087E-01
  0.227896741037E+00  0.906225201463E+00  0.478128750383E-01
  0.275022399213E+00  0.704972914727E+00  0.488674568417E-01
  0.379665341317E+00  0.906225201463E+00  0.480444506537E-01
  0.437182625243E+00  0.704972914727E+00  0.461668626623E-01
  0.552121708173E+00  0.704972914727E+00  0.404364113607E-01
  0.609543507177E+00  0.906225201463E+00  0.365835480503E-01
  0.713930785683E+00  0.704972914727E+00  0.286099961437E-01
  0.760896265187E+00  0.906225201463E+00  0.244893075473E-01
  0.840404514080E+00  0.704972914727E+00  0.170883422240E-01
  0.872947283470E+00  0.906225201463E+00  0.138080654970E-01
  0.925532399393E+00  0.704972914727E+00  0.833506886407E-02
  0.945574745927E+00  0.906225201463E+00  0.614234895813E-02
  0.977078061640E+00  0.704972914727E+00  0.263308603480E-02
  0.988539030820E+00  0.906225201463E+00  0.131654301740E-02
  0.988539030820E+00  0.154124868920E+01 -0.131654301740E-02
  0.977078061640E+00  0.132436308870E+01 -0.263308603480E-02
  0.945574745927E+00  0.154124868920E+01 -0.614234895813E-02
  0.925532399393E+00  0.132436308870E+01 -0.833506886407E-02
  0.872947283470E+00  0.154124868920E+01 -0.138080654970E-01
  0.840404514080E+00  0.132436308870E+01 -0.170883422240E-01
  0.760896265187E+00  0.154124868920E+01 -0.244893075473E-01
  0.713930785683E+00  0.132436308870E+01 -0.286099961437E-01
  0.609543507177E+00  0.154124868920E+01 -0.365835480503E-01
  0.552121708173E+00  0.132436308870E+01 -0.404364113607E-01
  0.437182625243E+00  0.132436308870E+01 -0.461668626623E-01
  0.379665341317E+00  0.154124868920E+01 -0.480444506537E-01
  0.275022399213E+00  0.132436308870E+01 -0.488674568417E-01
  0.227896741037E+00  0.154124868920E+01 -0.478128750383E-01
  0.148258442703E+00  0.132436308870E+01 -0.433231396087E-01
  0.115745802546E+00  0.154124868920E+01 -0.398879859823E-01
  0.637159948207E-01  0.132436308870E+01 -0.315359681800E-01
  0.441988272523E-01  0.154124868920E+01 -0.266191040040E-01
  0.164544397893E-01  0.132436308870E+01 -0.144681598853E-01
  0.822721989467E-02  0.154124868920E+01 -0.723407994267E-02
  0.822721989467E-02  0.154124868920E+01  0.723407994267E-02
  0.164544397893E-01  0.132436308870E+01  0.144681598853E-01
  0.441988272523E-01  0.154124868920E+01  0.266191040040E-01
  0.637159948207E-01  0.132436308870E+01  0.315359681800E-01
  0.115745802546E+00  0.154124868920E+01  0.398879859823E-01
  0.148258442703E+00  0.132436308870E+01  0.433231396087E-01
  0.227896741037E+00  0.154124868920E+01  0.478128750383E-01
  0.275022399213E+00  0.132436308870E+01  0.488674568417E-01
  0.379665341317E+00  0.154124868920E+01  0.480444506537E-01
  0.437182625243E+00  0.132436308870E+01  0.461668626623E-01
  0.552121708173E+00  0.132436308870E+01  0.404364113607E-01
  0.609543507177E+00  0.154124868920E+01  0.365835480503E-01
  0.713930785683E+00  0.132436308870E+01  0.286099961437E-01
  0.760896265187E+00  0.154124868920E+01  0.244893075473E-01
  0.840404514080E+00  0.132436308870E+01  0.170883422240E-01
  0.872947283470E+00  0.154124868920E+01  0.138080654970E-01
  0.925532399393E+00  0.132436308870E+01  0.833506886407E-02
  0.945574745927E+00  0.154124868920E+01  0.614234895813E-02
  0.977078061640E+00  0.132436308870E+01  0.263308603480E-02
  0.988539030820E+00  0.154124868920E+01  0.131654301740E-02
  0.988539030820E+00  0.217517468803E+01 -0.131654301740E-02
  0.977078061640E+00  0.196665448887E+01 -0.263308603480E-02
  0.945574745927E+00  0.217517468803E+01 -0.614234895813E-02
  0.925532399393E+00  0.196665448887E+01 -0.833506886407E-02
  0.872947283470E+00  0.217517468803E+01 -0.138080654970E-01
  0.840404514080E+00  0.196665448887E+01 -0.170883422240E-01
  0.760896265187E+00  0.217517468803E+01 -0.244893075473E-01
  0.713930785683E+00  0.196665448887E+01 -0.286099961437E-01
  0.609543507177E+00  0.217517468803E+01 -0.365835480503E-01
  0.552121708173E+00  0.196665448887E+01 -0.404364113607E-01
  0.437182625243E+00  0.196665448887E+01 -0.461668626623E-01
  0.379665341317E+00  0.217517468803E+01 -0.480444506537E-01
  0.275022399213E+00  0.196665448887E+01 -0.488674568417E-01
  0.227896741037E+00  0.217517468803E+01 -0.478128750383E-01
  0.148258442703E+00  0.196665448887E+01 -0.433231396087E-01
  0.115745802546E+00  0.217517468803E+01 -0.398879859823E-01
  0.637159948207E-01  0.196665448887E+01 -0.315359681800E-01
  0.441988272523E-01  0.217517468803E+01 -0.266191040040E-01
  0.164544397893E-01  0.196665448887E+01 -0.144681598853E-01
  0.822721989467E-02  0.217517468803E+01 -0.723407994267E-02
  0.822721989467E-02  0.217517468803E+01  0.723407994267E-02
  0.164544397893E-01  0.196665448887E+01  0.144681598853E-01
  0.441988272523E-01  0.217517468803E+01  0.266191040040E-01
  0.637159948207E-01  0.196665448887E+01  0.315359681800E-01
  0.115745802546E+00  0.217517468803E+01  0.398879859823E-01
  0.148258442703E+00  0.196665448887E+01  0.433231396087E-01
  0.227896741037E+00  0.217517468803E+01  0.478128750383E-01
  0.275022399213E+00  0.196665448887E+01  0.488674568417E-01
  0.379665341317E+00  0.217517468803E+01  0.480444506537E-01
  0.437182625243E+00  0.196665448887E+01  0.461668626623E-01
  0.552121708173E+00  0.196665448887E+01  0.404364113607E-01
  0.609543507177E+00  0.217517468803E+01  0.365835480503E-01
  0.713930785683E+00  0.196665448887E+01  0.286099961437E-01
  0.760896265187E+00  0.217517468803E+01  0.244893075473E-01
  0.840404514080E+00  0.196665448887E+01  0.170883422240E-01
  0.872947283470E+00  0.217517468803E+01  0.138080654970E-01
  0.925532399393E+00  0.196665448887E+01  0.833506886407E-02
  0.945574745927E+00  0.217517468803E+01  0.614234895813E-02
  0.977078061640E+00  0.196665448887E+01  0.263308603480E-02
  0.988539030820E+00  0.217517468803E+01  0.131654301740E-02
  0.988539030820E+00  0.274289277553E+01 -0.131654301740E-02
[...]
POINT_DATA                1152
SCALARS BC_type int 1
LOOKUP_TABLE default
           3
           3
           3
           3
           3
           3
           3
           3
           3
           3
           3
           3
           3
           3
           3
           3
           3
           3
           3
           3
           3
           3
           3
           3
           3
           3
           3
           3
           3
           3
           3
           3
           3
           3
           3
           3
           3
           3
           3
           3
           3
           3
           3
           3
           3
           3
           3
           3
           3
           3
           3
           3
           3
           3
           3
           3
           3
           3
           3
           3
           3
           3
           3
           3
           3
           3
           3
           3
           3
           3
           3
           3
           3
           3
           3
           3
           3
           3
           3
           3
           3
           3
           3
           3
           3
           3
           3
           3
           3
           3
           3
           3
           3
           3
           3
           3
           3
           3
           3
           3
           3
           3
           3
           3
           3
           3
           3
           3
           3
           3
           3
           3
           3
           3
           3
           3
           3
           3
           3
           3
           3
           3
           3
           3
           3
           3
           3
           3
           3
           3
           3
           3
           3
           3
           3
           3
           3
           3
           3
           3
           3
           3
           3
           3
           3
           3
           3
           3
           3
           3
           3
           3
           3
           3
           3
           3
           3
           3
           3
           3
           3
           3
           3
           3
           3
           3
           3
           3
           3
           3
           3
           3
           3
           3
           3
           3
           3
           3
           3
           3
           3
           3
           3
           3
           3
           3
           3
           3
           3
           3
           3
           3
           3
           3
           3
           3
           3
           3
           3
           3
           3
           3
           3
           3
           3
           3
           3
           3
           3
           3
           3
           3
           3
           3
           3
           3
           3
           3
           3
           3
           3
           3
           3
           3
           3
           3
           3
           3
           3
           3
           3
           3
           3
           3
           3
           3
           3
           3
           3
           3
           3
           3
           3
           3
           3
           3
           3
           3
           3
           3
           3
           3
           3
           3
           3
           3
           3
           3
           3
           3
           3
           3
           3
           3
           3
           3
           3
           3
           3
           3
           3
           3
           3
           3
           3
           3
           3
           3
           3
           3
           3
           3
           3
           3
           3
           3
           3
           3
           3
           3
           3
           3
           3
           3
           3
           3
           3
           3
           3
           3
           3
           3
           3
           3
           3
           3
           3
           3
           3
           3
           3
           3
           3
           3
           3
           3
           3
           3
           3
           3
           3
           3
           3
           3
           3
           3
           3
           3
           3
           3
           3
           3
           3
           3
           3
           3
           3
           3
           3
           3
           3
           3
           3
           3
           3
           3
           3
           3
           3
           3
           3
           3
           3
           3
           3
           3
           3
           3
           3
           3
           3
           3
           3
           3
           3
           3
           3
           3
           3
           3
           3
           3
           3
           3
           3
           3
           3
           3
           3
           3
           3
           3
           3
           3
           3
           3
           3
           3
           3
           3
           3
           3
           3
           3
           3
           3
           3
           3
           3
           3
           3
           3
           3
           3
           3
           3
           3
           3
           3
           3
           3
           3
           3
           3
           3
           3
           3
           3
           3
           3
           3
           3
           3
           3
           3
           3
           3
           3
           3
           3
           3
           3
           3
           3
           3
           3
           3
           3
           3
           3
           3
           3
           3
           3
           3
           3
           3
           3
           3
           3
           3
           3
           3
           3
           3
           3
           3
           3
           3
           3
           3
           3
           3
           3
           3
           3
           3
           3
           3
           3
           3
           3
           3
           3
           3
           3
           3
           3
           3
           3
           3
           3
           3
           3
           3
           3
           3
           3
           3
           3
           3
           3
           3
           3
           3
           3
           3
           3
           3
           3
           3
           3
           3
           3
           3
           3
           3
           3
           3
           3
           3
           3
           3
           3
           3
           3
           3
           3
           3
           3
           3
           3
           3
           3
           3
           3
           3
           3
           3
           3
           3
           3
           3
           3
           3
           3
           3
           3
           3
           3
           3
           3
           3
           3
           3
           3
           3
           3
           3
           3
           3
           3
           3
           3
           3
           3
           3
           3
           3
           3
           3
           3
           3
           3
           3
           3
           3
           3
           3
           3
           3
           3
           3
           3
           3
           3
           3
           3
           3
           3
           3
           3
           3
           3
           3
           3
           3
           3
           3
           3
           3
           3
           3
           3
           3
           3
           3
           3
           3
           3
           3
           3
           3
           3
           3
           3
           3
           3
           3
           3
           3
           3
           3
           3
           3
           3
           3
           3
           3
           3
           3
           3
           3
           3
           3
           3
           3
           3
           3
           3
           3
           3
           3
           3
           3
           3
           3
           3
           3
           3
           3
           3
           3
           3
           3
           3
           3
           3
           3
           3
           3
           3
           3
           3
           3
           3
           3
           3
           3
           3
           3
           3
           3
           3
           3
           3
           3
           3
           3
           3
           3
           3
           3
           3
           3
           3
           3
           3
           3
           3
           3
           3
           3
           3
           3
           3
           3
           3
           3
           3
           3
           3
           3
           3
           3
           3
           3
           3
           3
           3
           3
           3
           3
           3
           3
           3
           3
           3
           3
           3
           3
           3
           3
           3
           3
           3
           3
           3
           3
           3
           3
           3
           3
           3
           3
           3
           3
           3
           3
           3
           3
           3
           3
           3
           3
           3
           3
           3
           3
           3
           3
           3
           3
           3
           3
           3
           3
           3
           3
           3
           3
           3
           3
           3
           3
           3
           3
           3
           3
           3
           3
           3
           3
           3
           3
           3
           3
           3
           3
           3
           3
           3
           3
           3
           3
           3
           3
           3
           3
           3
           3
           3
           3
           3
           3
           3
           3
           3
           3
           3
           3
           3
           3
           3
           3
           3
           3
           3
           3
           3
           3
           3
           3
           3
           3
           3
           3
           3
           3
           3
           3
           3
           3
           3
           3
           3
           3
           3
           3
           3
           3
           3
           3
           3
           3
           3
           3
           3
           3
           3
           3
           3
           3
           3
           3
           3
           3
           3
           3
           3
           3
           3
           3
           3
           3
           3
           3
           3
           3
           3
           3
           3
           3
           3
           3
           3
           3
           3
           3
           3
           3
           3
           3
           3
           3
           3
           3
           3
           3
           3
           3
           3
           3
           3
           3
           3
           3
           3
           3
           3
           3
           3
           3
           3
           3
           3
           3
           3
           3
           3
           3
           3
           3
           3
           3
           3
           3
           3
           3
           3
           3
           3
           3
           3
           3
           3
           3
           3
           3
           3
           3
           3
           3
           3
           3
           3
           3
           3
           3
           3
           3
           3
           3
           3
           3
           3
           3
           3
           3
           3
           3
           3
           3
           3
           3
           3
           3
           3
           3
           3
           3
           3
           3
           3
           3
           3
           3
           3
           3
           3
           3
           3
           3
           3
           3
           3
           3
           3
           3
           3
           3
           3
           3
           3
           3
           3
           3
           3
           3
           3
           3
           3
           3
           3
           3
           3
           3
           3
           3
           3
           3
           3
           3
           3
           3
           3
           3
           3
           3
           3
           3
           3
           3
           3
           3
           3
           3
           3
           3
           3
           3
           3
           3
           3
           3
           3
           3
           3
           3
           3
           3
           3
           3
           3
           3
           3
           3
           3
           3
           3
           3
           3
           3
           3
           3
           3
           3
           3
           3
           3
           3
           3
           3
           3
           3
           3
           3
           3
           3
           3
           3
           3
           3
           3
           3
           3
           3
           3
           3
           3
           3
           3
           3
           3
           3
           3
           3
           3
           3
           3
           3
           3
           3
           3
           3
           3
           3
           3
           3
           3
           3
           3
           3
           3
           3
           3
           3
           3
           3
           3
           3
           3
           3
           3
           3
           3
           3
           3
           3
           3
           3
           3
           3
           3
           3
           3
           3
           3
           3
           3
           3
           3
           3
           3
           3
           3
           3
           3
           3
           3
           3
           3
           3
           3
           3
           3
           3
           3
           3
           3
           3
           3
           3
           3
           3
           3
           3
           3
           3
           3
           3
           3
           3
           3
           3
           3
           3
           3
           3
           3
           3
           3
           3
           3
           3
           3
           3
           3
           3
           3
           3
           3
SCALARS residual float 1
LOOKUP_TABLE default
 -0.340876098987E-01
 -0.191687034905E-01
 -0.618012082104E-02
 -0.101036071095E-01
 -0.138900489998E-01
 -0.146540656337E-01
 -0.129587542169E-01
 -0.165457917396E-01
 -0.177327556563E-01
 -0.134372190676E-01
 -0.201584286567E-01
 -0.171917642743E-01
 -0.152161861342E-01
 -0.165417912933E-01
 -0.205251391802E-01
 -0.525059535010E-03
 -0.333216198831E-01
 -0.968404071137E-02
 -0.239967217285E-01
 -0.111518808131E+00
  0.143797034468E+00
 -0.668264193326E-02
  0.462337570794E-01
  0.259741414789E-01
  0.169163646675E-01
  0.175590065213E-01
  0.287803228467E-01
  0.153505504017E-01
  0.283642200734E-01
  0.220651897787E-01
  0.225058564689E-01
  0.162867175217E-01
  0.207653934163E-01
  0.111735080778E-01
  0.165288648852E-01
  0.121040137504E-01
  0.108943836763E-01
  0.454537883649E-02
  0.193304732929E-01
  0.322896869915E-01
 -0.897069422434E-01
  0.760595937705E-02
  0.213817814681E-02
 -0.205702085064E-01
 -0.205291485990E-01
 -0.198046784439E-01
 -0.219716655454E-01
 -0.180696025712E-01
 -0.292271396362E-01
 -0.204547169148E-01
 -0.240263975242E-01
 -0.165543336509E-01
 -0.264436554598E-01
 -0.203673632628E-01
 -0.171290788508E-01
 -0.124605412827E-01
  0.114796464096E-02
  0.521995455769E-01
  0.865343061820E-01
 -0.229928970259E+00
  0.261855986339E+00
 -0.163926006564E+00
  0.407565897091E-01
 -0.389216965375E-01
  0.311158549538E-01
 -0.246131164552E-02
  0.310039937347E-01
  0.135986571616E-01
  0.184151220871E-01
  0.999749633784E-02
  0.177996239582E-01
  0.212248742222E-01
  0.183150203135E-01
  0.176563602622E-01
  0.199101012144E-01
  0.194828809801E-01
  0.216092701014E-01
 -0.162476263784E-02
 -0.514225643317E-02
  0.890854549529E-01
 -0.784834708080E-01
  0.209734955948E-01
  0.488753097028E-02
 -0.152692294438E-01
 -0.310069695694E-01
 -0.123023170306E-01
 -0.239412712516E-01
 -0.208568836625E-01
 -0.249261867253E-01
 -0.231468397330E-01
 -0.273580483168E-01
 -0.168013911752E-01
 -0.260215817517E-01
 -0.111444417178E-01
 -0.304479078923E-01
 -0.419146948404E-01
 -0.520150461223E-01
  0.993405352883E-01
  0.512032320025E-01
 -0.214134835168E+00
  0.249270881328E+00
 -0.121878941311E+00
  0.228601605820E-01
  0.122294928495E-01
  0.421971116181E-01
  0.148545058962E-01
  0.250755091327E-01
  0.103612187178E-01
  0.213013579381E-01
  0.207428524456E-01
  0.270806379702E-01
  0.160165763270E-01
  0.182795133443E-01
  0.202325063511E-01
  0.104635160717E-01
  0.285416152857E-01
  0.137694085143E-01
 -0.732004864925E-02
 -0.201185241472E-01
  0.770378445015E-01
 -0.666876059551E-01
 -0.132247501668E-01
  0.116295822555E-01
 -0.210609954050E-01
 -0.208001568484E-01
 -0.148190996708E-01
 -0.127218455561E-01
 -0.202709579664E-01
 -0.228762715431E-01
 -0.192939798007E-01
 -0.286015706045E-01
 -0.216610526633E-01
 -0.242009511853E-01
  0.220408766245E-02
 -0.738565683455E-02
 -0.496258344380E-01
 -0.184723814517E-01
  0.690253386973E-01
  0.510434736362E-01
 -0.203370694261E+00
  0.233053332377E+00
 -0.126497084049E+00
  0.215842077380E-01
 -0.193478616146E-01
  0.384566490757E-01
 -0.584228567226E-02
  0.204057110434E-01
  0.125191538412E-01
  0.346373989530E-01
  0.199869039933E-01
  0.207743460587E-01
  0.225461649754E-01
  0.223014859359E-01
  0.108123233885E-01
  0.166336304463E-01
  0.204590206541E-01
  0.225762210953E-01
 -0.117881635221E-01
  0.152601971517E-01
  0.656752826228E-01
 -0.917855497811E-01
  0.190123715536E-01
  0.402178692302E-02
 -0.246492271469E-01
 -0.284153478581E-01
 -0.209775260797E-01
 -0.209649968018E-01
 -0.277118403452E-01
 -0.281016326559E-01
 -0.183916286275E-01
 -0.227417615759E-01
 -0.246769659991E-01
 -0.278930615780E-01
  0.272843870743E-02
 -0.282145638298E-01
 -0.270218746094E-01
 -0.275527838944E-01
  0.767892888948E-01
  0.600934749238E-01
 -0.202092385631E+00
  0.231236056232E+00
 -0.120813332392E+00
  0.324286021393E-01
 -0.138563018837E-02
  0.435037635008E-01
  0.158998334642E-01
  0.254510678787E-01
  0.159534205518E-01
  0.275030486786E-01
  0.159340861912E-01
  0.199071643583E-01
  0.229914636004E-01
  0.265046251634E-01
  0.194416693241E-01
  0.198778315067E-01
  0.276287522416E-01
  0.242120217125E-01
 -0.495028462061E-02
 -0.175146915858E-01
  0.904648184833E-01
 -0.597331498176E-01
  0.691580149388E-02
  0.789028163520E-02
 -0.709215119005E-02
 -0.242091333095E-01
 -0.683373951165E-02
 -0.151258796433E-01
 -0.117538704780E-01
 -0.182672677121E-01
 -0.778779612146E-02
 -0.236673139442E-01
 -0.153964729591E-01
 -0.159528041642E-01
 -0.580710419300E-02
 -0.142752029830E-01
 -0.365399629522E-01
 -0.329290912681E-01
  0.821650461521E-01
  0.430378998486E-01
 -0.178742609027E+00
  0.223521762726E+00
 -0.122265036146E+00
  0.208969608631E-01
 -0.976905774592E-02
  0.297849638669E-01
 -0.282964853432E-02
  0.203046785602E-01
  0.811306976929E-02
  0.255244621254E-01
  0.247472339211E-01
  0.210142980450E-01
  0.160313500981E-01
  0.169633259447E-01