# vtk DataFile Version 3.0
MachLine results file. Generated by MachLine, USU AeroLab (c) 2023.
ASCII
DATASET POLYDATA
POINTS                  76 float
  0.100000000000E+01  0.112050423070E+00  0.000000000000E+00
  0.199106447943E+02  0.112050423070E+00  0.189106447943E+01
  0.100000000000E+01  0.349248538390E+00  0.000000000000E+00
  0.199106447943E+02  0.349248538390E+00  0.189106447943E+01
  0.100000000000E+01  0.611245973595E+00  0.000000000000E+00
  0.199106447943E+02  0.611245973595E+00  0.189106447943E+01
  0.100000000000E+01  0.894322735425E+00  0.000000000000E+00
  0.199106447943E+02  0.894322735425E+00  0.189106447943E+01
  0.100000000000E+01  0.119298815755E+01  0.000000000000E+00
  0.199106447943E+02  0.119298815755E+01  0.189106447943E+01
  0.100000000000E+01  0.150030638820E+01  0.000000000000E+00
  0.199106447943E+02  0.150030638820E+01  0.189106447943E+01
  0.100000000000E+01  0.180848986715E+01  0.000000000000E+00
  0.199106447943E+02  0.180848986715E+01  0.189106447943E+01
  0.100000000000E+01  0.210966392790E+01  0.000000000000E+00
  0.199106447943E+02  0.210966392790E+01  0.189106447943E+01
  0.100000000000E+01  0.239664942110E+01  0.000000000000E+00
  0.199106447943E+02  0.239664942110E+01  0.189106447943E+01
  0.100000000000E+01  0.266360411895E+01  0.000000000000E+00
  0.199106447943E+02  0.266360411895E+01  0.189106447943E+01
  0.100000000000E+01  0.290641066845E+01  0.000000000000E+00
  0.199106447943E+02  0.290641066845E+01  0.189106447943E+01
  0.100000000000E+01  0.312277632950E+01  0.000000000000E+00
  0.199106447943E+02  0.312277632950E+01  0.189106447943E+01
  0.100000000000E+01  0.331208390015E+01  0.000000000000E+00
  0.199106447943E+02  0.331208390015E+01  0.189106447943E+01
  0.100000000000E+01  0.347507861720E+01  0.000000000000E+00
  0.199106447943E+02  0.347507861720E+01  0.189106447943E+01
  0.100000000000E+01  0.361348550350E+01  0.000000000000E+00
  0.199106447943E+02  0.361348550350E+01  0.189106447943E+01
  0.100000000000E+01  0.372963452785E+01  0.000000000000E+00
  0.199106447943E+02  0.372963452785E+01  0.189106447943E+01
  0.100000000000E+01  0.382614210490E+01  0.000000000000E+00
  0.199106447943E+02  0.382614210490E+01  0.189106447943E+01
  0.100000000000E+01  0.390566954305E+01  0.000000000000E+00
  0.199106447943E+02  0.390566954305E+01  0.189106447943E+01
  0.100000000000E+01  0.397075870700E+01  0.000000000000E+00
  0.199106447943E+02  0.397075870700E+01  0.189106447943E+01
  0.100000000000E+01 -0.112050423070E+00  0.000000000000E+00
  0.199106447943E+02 -0.112050423070E+00  0.189106447943E+01
  0.100000000000E+01 -0.349248538390E+00  0.000000000000E+00
  0.199106447943E+02 -0.349248538390E+00  0.189106447943E+01
  0.100000000000E+01 -0.611245973595E+00  0.000000000000E+00
  0.199106447943E+02 -0.611245973595E+00  0.189106447943E+01
  0.100000000000E+01 -0.894322735425E+00  0.000000000000E+00
  0.199106447943E+02 -0.894322735425E+00  0.189106447943E+01
  0.100000000000E+01 -0.119298815755E+01  0.000000000000E+00
  0.199106447943E+02 -0.119298815755E+01  0.189106447943E+01
  0.100000000000E+01 -0.150030638820E+01  0.000000000000E+00
  0.199106447943E+02 -0.150030638820E+01  0.189106447943E+01
  0.100000000000E+01 -0.180848986715E+01  0.000000000000E+00
  0.199106447943E+02 -0.180848986715E+01  0.189106447943E+01
  0.100000000000E+01 -0.210966392790E+01  0.000000000000E+00
  0.199106447943E+02 -0.210966392790E+01  0.189106447943E+01
  0.100000000000E+01 -0.239664942110E+01  0.000000000000E+00
  0.199106447943E+02 -0.239664942110E+01  0.189106447943E+01
  0.100000000000E+01 -0.266360411895E+01  0.000000000000E+00
  0.199106447943E+02 -0.266360411895E+01  0.189106447943E+01
  0.100000000000E+01 -0.290641066845E+01  0.000000000000E+00
  0.199106447943E+02 -0.290641066845E+01  0.189106447943E+01
  0.100000000000E+01 -0.312277632950E+01  0.000000000000E+00
  0.199106447943E+02 -0.312277632950E+01  0.189106447943E+01
  0.100000000000E+01 -0.331208390015E+01  0.000000000000E+00
  0.199106447943E+02 -0.331208390015E+01  0.189106447943E+01
  0.100000000000E+01 -0.347507861720E+01  0.000000000000E+00
  0.199106447943E+02 -0.347507861720E+01  0.189106447943E+01
  0.100000000000E+01 -0.361348550350E+01  0.000000000000E+00
  0.199106447943E+02 -0.361348550350E+01  0.189106447943E+01
  0.100000000000E+01 -0.372963452785E+01  0.000000000000E+00
  0.199106447943E+02 -0.372963452785E+01  0.189106447943E+01
  0.100000000000E+01 -0.382614210490E+01  0.000000000000E+00
  0.199106447943E+02 -0.382614210490E+01  0.189106447943E+01
  0.100000000000E+01 -0.390566954305E+01  0.000000000000E+00
  0.199106447943E+02 -0.390566954305E+01  0.189106447943E+01
  0.100000000000E+01 -0.397075870700E+01  0.000000000000E+00
  0.199106447943E+02 -0.397075870700E+01  0.189106447943E+01
LINES                  38                 114
2                   0                   1
2                   2                   3
2                   4                   5
2                   6                   7
2                   8                   9
2                  10                  11
2                  12                  13
2                  14                  15
2                  16                  17
2                  18                  19
2                  20                  21
2                  22                  23
2                  24                  25
2                  26                  27
2                  28                  29
2                  30                  31
2                  32                  33
2                  34                  35
2                  36                  37
2                  38                  39
2                  40                  41
2                  42                  43
2                  44                  45
2                  46                  47
2                  48                  49
2                  50                  51
2                  52                  53
2                  54                  55
2                  56                  57
2                  58                  59
2                  60                  61
2                  62                  63
2                  64                  65
2                  66                  67
2                  68                  69
2                  70                  71
2                  72                  73
2                  74                  75
POINT_DATA                  76
SCALARS Gamma float 1
LOOKUP_TABLE default
  0.186458513081E-03
  0.186458513081E-03
  0.431473014485E-03
  0.431473014485E-03
  0.309800990706E-03
  0.309800990706E-03
 -0.417567367472E-04
 -0.417567367472E-04
  0.121525987698E-03
  0.121525987698E-03
 -0.181172984988E-03
 -0.181172984988E-03
 -0.114410549665E-05
 -0.114410549665E-05
 -0.204711503738E-03
 -0.204711503738E-03
  0.286286225081E-03
  0.286286225081E-03
  0.740976955916E-04
  0.740976955916E-04
 -0.191523641387E-03
 -0.191523641387E-03
 -0.108188240058E-03
 -0.108188240058E-03
  0.950853753831E-04
  0.950853753831E-04
  0.864417877259E-04
  0.864417877259E-04
  0.415764239118E-03
  0.415764239118E-03
  0.360653469413E-03
  0.360653469413E-03
 -0.388728397849E-03
 -0.388728397849E-03
 -0.241338347479E-03
 -0.241338347479E-03
 -0.684972557007E-03
 -0.684972557007E-03
 -0.716044796737E-02
 -0.716044796737E-02
  0.524533391054E-02
  0.524533391054E-02
  0.192188382832E-02
  0.192188382832E-02
  0.287016341587E-03
  0.287016341587E-03
 -0.644835097678E-03
 -0.644835097678E-03
  0.268698776369E-03
  0.268698776369E-03
 -0.462264546790E-03
 -0.462264546790E-03
 -0.644924177442E-04
 -0.644924177442E-04
  0.155080229613E-03
  0.155080229613E-03
  0.143190146884E-04
  0.143190146884E-04
 -0.159017830848E-03
 -0.159017830848E-03
  0.146271731382E-03
  0.146271731382E-03
 -0.149163573314E-03
 -0.149163573314E-03
  0.299008482415E-04
  0.299008482415E-04
 -0.130763325380E-03
 -0.130763325380E-03
  0.121751078187E-04
  0.121751078187E-04
  0.203786251629E-03
  0.203786251629E-03
  0.303519078038E-03
  0.303519078038E-03
 -0.141051142632E-03
 -0.141051142632E-03
