# vtk DataFile Version 3.0
MachLine results file. Generated by MachLine, USU AeroLab (c) 2023.
ASCII
DATASET POLYDATA
POINTS                  76 float
  0.100000000000E+01  0.112050423070E+00  0.000000000000E+00
  0.199775405431E+02  0.112050423070E+00  0.948877027157E+00
  0.100000000000E+01  0.349248538390E+00  0.000000000000E+00
  0.199775405431E+02  0.349248538390E+00  0.948877027157E+00
  0.100000000000E+01  0.611245973595E+00  0.000000000000E+00
  0.199775405431E+02  0.611245973595E+00  0.948877027157E+00
  0.100000000000E+01  0.894322735425E+00  0.000000000000E+00
  0.199775405431E+02  0.894322735425E+00  0.948877027157E+00
  0.100000000000E+01  0.119298815755E+01  0.000000000000E+00
  0.199775405431E+02  0.119298815755E+01  0.948877027157E+00
  0.100000000000E+01  0.150030638820E+01  0.000000000000E+00
  0.199775405431E+02  0.150030638820E+01  0.948877027157E+00
  0.100000000000E+01  0.180848986715E+01  0.000000000000E+00
  0.199775405431E+02  0.180848986715E+01  0.948877027157E+00
  0.100000000000E+01  0.210966392790E+01  0.000000000000E+00
  0.199775405431E+02  0.210966392790E+01  0.948877027157E+00
  0.100000000000E+01  0.239664942110E+01  0.000000000000E+00
  0.199775405431E+02  0.239664942110E+01  0.948877027157E+00
  0.100000000000E+01  0.266360411895E+01  0.000000000000E+00
  0.199775405431E+02  0.266360411895E+01  0.948877027157E+00
  0.100000000000E+01  0.290641066845E+01  0.000000000000E+00
  0.199775405431E+02  0.290641066845E+01  0.948877027157E+00
  0.100000000000E+01  0.312277632950E+01  0.000000000000E+00
  0.199775405431E+02  0.312277632950E+01  0.948877027157E+00
  0.100000000000E+01  0.331208390015E+01  0.000000000000E+00
  0.199775405431E+02  0.331208390015E+01  0.948877027157E+00
  0.100000000000E+01  0.347507861720E+01  0.000000000000E+00
  0.199775405431E+02  0.347507861720E+01  0.948877027157E+00
  0.100000000000E+01  0.361348550350E+01  0.000000000000E+00
  0.199775405431E+02  0.361348550350E+01  0.948877027157E+00
  0.100000000000E+01  0.372963452785E+01  0.000000000000E+00
  0.199775405431E+02  0.372963452785E+01  0.948877027157E+00
  0.100000000000E+01  0.382614210490E+01  0.000000000000E+00
  0.199775405431E+02  0.382614210490E+01  0.948877027157E+00
  0.100000000000E+01  0.390566954305E+01  0.000000000000E+00
  0.199775405431E+02  0.390566954305E+01  0.948877027157E+00
  0.100000000000E+01  0.397075870700E+01  0.000000000000E+00
  0.199775405431E+02  0.397075870700E+01  0.948877027157E+00
  0.100000000000E+01 -0.112050423070E+00  0.000000000000E+00
  0.199775405431E+02 -0.112050423070E+00  0.948877027157E+00
  0.100000000000E+01 -0.349248538390E+00  0.000000000000E+00
  0.199775405431E+02 -0.349248538390E+00  0.948877027157E+00
  0.100000000000E+01 -0.611245973595E+00  0.000000000000E+00
  0.199775405431E+02 -0.611245973595E+00  0.948877027157E+00
  0.100000000000E+01 -0.894322735425E+00  0.000000000000E+00
  0.199775405431E+02 -0.894322735425E+00  0.948877027157E+00
  0.100000000000E+01 -0.119298815755E+01  0.000000000000E+00
  0.199775405431E+02 -0.119298815755E+01  0.948877027157E+00
  0.100000000000E+01 -0.150030638820E+01  0.000000000000E+00
  0.199775405431E+02 -0.150030638820E+01  0.948877027157E+00
  0.100000000000E+01 -0.180848986715E+01  0.000000000000E+00
  0.199775405431E+02 -0.180848986715E+01  0.948877027157E+00
  0.100000000000E+01 -0.210966392790E+01  0.000000000000E+00
  0.199775405431E+02 -0.210966392790E+01  0.948877027157E+00
  0.100000000000E+01 -0.239664942110E+01  0.000000000000E+00
  0.199775405431E+02 -0.239664942110E+01  0.948877027157E+00
  0.100000000000E+01 -0.266360411895E+01  0.000000000000E+00
  0.199775405431E+02 -0.266360411895E+01  0.948877027157E+00
  0.100000000000E+01 -0.290641066845E+01  0.000000000000E+00
  0.199775405431E+02 -0.290641066845E+01  0.948877027157E+00
  0.100000000000E+01 -0.312277632950E+01  0.000000000000E+00
  0.199775405431E+02 -0.312277632950E+01  0.948877027157E+00
  0.100000000000E+01 -0.331208390015E+01  0.000000000000E+00
  0.199775405431E+02 -0.331208390015E+01  0.948877027157E+00
  0.100000000000E+01 -0.347507861720E+01  0.000000000000E+00
  0.199775405431E+02 -0.347507861720E+01  0.948877027157E+00
  0.100000000000E+01 -0.361348550350E+01  0.000000000000E+00
  0.199775405431E+02 -0.361348550350E+01  0.948877027157E+00
  0.100000000000E+01 -0.372963452785E+01  0.000000000000E+00
  0.199775405431E+02 -0.372963452785E+01  0.948877027157E+00
  0.100000000000E+01 -0.382614210490E+01  0.000000000000E+00
  0.199775405431E+02 -0.382614210490E+01  0.948877027157E+00
  0.100000000000E+01 -0.390566954305E+01  0.000000000000E+00
  0.199775405431E+02 -0.390566954305E+01  0.948877027157E+00
  0.100000000000E+01 -0.397075870700E+01  0.000000000000E+00
  0.199775405431E+02 -0.397075870700E+01  0.948877027157E+00
LINES                  38                 114
2                   0                   1
2                   2                   3
2                   4                   5
2                   6                   7
2                   8                   9
2                  10                  11
2                  12                  13
2                  14                  15
2                  16                  17
2                  18                  19
2                  20                  21
2                  22                  23
2                  24                  25
2                  26                  27
2                  28                  29
2                  30                  31
2                  32                  33
2                  34                  35
2                  36                  37
2                  38                  39
2                  40                  41
2                  42                  43
2                  44                  45
2                  46                  47
2                  48                  49
2                  50                  51
2                  52                  53
2                  54                  55
2                  56                  57
2                  58                  59
2                  60                  61
2                  62                  63
2                  64                  65
2                  66                  67
2                  68                  69
2                  70                  71
2                  72                  73
2                  74                  75
POINT_DATA                  76
SCALARS Gamma float 1
LOOKUP_TABLE default
  0.170532294430E-03
  0.170532294430E-03
  0.397062919706E-03
  0.397062919706E-03
  0.695903853922E-03
  0.695903853922E-03
  0.107553645168E-02
  0.107553645168E-02
  0.154262726841E-02
  0.154262726841E-02
  0.209962096988E-02
  0.209962096988E-02
  0.274325769983E-02
  0.274325769983E-02
  0.346316977658E-02
  0.346316977658E-02
  0.424123379392E-02
  0.424123379392E-02
  0.505242848186E-02
  0.505242848186E-02
  0.586767630718E-02
  0.586767630718E-02
  0.665866502474E-02
  0.665866502474E-02
  0.740419749920E-02
  0.740419749920E-02
  0.809753633705E-02
  0.809753633705E-02
  0.875503803475E-02
  0.875503803475E-02
  0.942942623604E-02
  0.942942623604E-02
  0.102414015048E-01
  0.102414015048E-01
  0.114954078338E-01
  0.114954078338E-01
  0.150816243959E-01
  0.150816243959E-01
 -0.170532294500E-03
 -0.170532294500E-03
 -0.397062919754E-03
 -0.397062919754E-03
 -0.695903853929E-03
 -0.695903853929E-03
 -0.107553645166E-02
 -0.107553645166E-02
 -0.154262726840E-02
 -0.154262726840E-02
 -0.209962096984E-02
 -0.209962096984E-02
 -0.274325769981E-02
 -0.274325769981E-02
 -0.346316977654E-02
 -0.346316977654E-02
 -0.424123379388E-02
 -0.424123379388E-02
 -0.505242848183E-02
 -0.505242848183E-02
 -0.586767630715E-02
 -0.586767630715E-02
 -0.665866502473E-02
 -0.665866502473E-02
 -0.740419749920E-02
 -0.740419749920E-02
 -0.809753633710E-02
 -0.809753633710E-02
 -0.875503803488E-02
 -0.875503803488E-02
 -0.942942623621E-02
 -0.942942623621E-02
 -0.102414015049E-01
 -0.102414015049E-01
 -0.114954078338E-01
 -0.114954078338E-01
 -0.150816243955E-01
 -0.150816243955E-01
