# vtk DataFile Version 3.0
MachLine results file. Generated by MachLine, USU AeroLab (c) 2023.
ASCII
DATASET POLYDATA
POINTS                   6 float
  0.492346819850E+01  0.000000000000E+00  0.000000000000E+00
  0.246172909920E+01  0.000000000000E+00 -0.253166538570E+00
  0.246172909920E+01  0.153125703210E+02  0.000000000000E+00
 -0.100000000000E-04  0.000000000000E+00  0.000000000000E+00
  0.246172909920E+01  0.000000000000E+00  0.253166538570E+00
  0.246172909920E+01 -0.153125703210E+02  0.000000000000E+00
VERTICES                   6                  12
1                   0
1                   1
1                   2
1                   3
1                   4
1                   5
POINT_DATA                   6
SCALARS BC_type int 1
LOOKUP_TABLE default
           3
           3
           3
           3
           3
           3
VECTORS Normal_Vector float
  0.100000000000E+01  0.000000000000E+00  0.000000000000E+00
 -0.206463200637E-11  0.000000000000E+00 -0.100000000000E+01
 -0.214595702081E-11  0.100000000000E+01  0.000000000000E+00
 -0.100000000000E+01  0.000000000000E+00  0.000000000000E+00
 -0.206463200637E-11  0.000000000000E+00  0.100000000000E+01
 -0.214595702081E-11 -0.100000000000E+01  0.000000000000E+00
