# vtk DataFile Version 3.0
MachLine results file. Generated by MachLine, USU AeroLab (c) 2023.
ASCII
DATASET POLYDATA
POINTS                   6 float
  0.492345819850E+01  0.000000000000E+00  0.000000000000E+00
  0.246172909920E+01  0.000000000000E+00 -0.253156538570E+00
  0.246172909920E+01  0.153125603210E+02  0.000000000000E+00
  0.000000000000E+00  0.000000000000E+00  0.000000000000E+00
  0.246172909920E+01  0.000000000000E+00  0.253156538570E+00
  0.246172909920E+01 -0.153125603210E+02  0.000000000000E+00
POLYGONS                   8                  32
3                   0                   1                   2
3                   1                   3                   2
3                   3                   4                   2
3                   4                   0                   2
3                   0                   5                   1
3                   1                   5                   3
3                   3                   5                   4
3                   4                   5                   0
CELL_DATA                   8
NORMALS normals float
  0.102283551724E+00  0.164436508579E-01 -0.994619365081E+00
 -0.102283551728E+00  0.164436508579E-01 -0.994619365080E+00
 -0.102283551728E+00  0.164436508579E-01  0.994619365080E+00
  0.102283551724E+00  0.164436508579E-01  0.994619365081E+00
  0.102283551724E+00 -0.164436508579E-01 -0.994619365081E+00
 -0.102283551728E+00 -0.164436508579E-01 -0.994619365080E+00
 -0.102283551728E+00 -0.164436508579E-01  0.994619365080E+00
  0.102283551724E+00 -0.164436508579E-01  0.994619365081E+00
SCALARS inclination float 1
LOOKUP_TABLE default
  0.100000000000E+01
  0.100000000000E+01
  0.100000000000E+01
  0.100000000000E+01
  0.100000000000E+01
  0.100000000000E+01
  0.100000000000E+01
  0.100000000000E+01
SCALARS distribution_order float 1
LOOKUP_TABLE default
  0.100000000000E+01
  0.100000000000E+01
  0.100000000000E+01
  0.100000000000E+01
  0.100000000000E+01
  0.100000000000E+01
  0.100000000000E+01
  0.100000000000E+01
SCALARS N_discontinuous_edges float 1
LOOKUP_TABLE default
  0.200000000000E+01
  0.200000000000E+01
  0.200000000000E+01
  0.200000000000E+01
  0.200000000000E+01
  0.200000000000E+01
  0.200000000000E+01
  0.200000000000E+01
VECTORS centroid float
  0.328230546563E+01  0.510418677367E+01 -0.843855128567E-01
  0.164115273280E+01  0.510418677367E+01 -0.843855128567E-01
  0.164115273280E+01  0.510418677367E+01  0.843855128567E-01
  0.328230546563E+01  0.510418677367E+01  0.843855128567E-01
  0.328230546563E+01 -0.510418677367E+01 -0.843855128567E-01
  0.164115273280E+01 -0.510418677367E+01 -0.843855128567E-01
  0.164115273280E+01 -0.510418677367E+01  0.843855128567E-01
  0.328230546563E+01 -0.510418677367E+01  0.843855128567E-01
POINT_DATA                   6
SCALARS convex float 1
LOOKUP_TABLE default
  0.100000000000E+01
  0.100000000000E+01
  0.100000000000E+01
  0.100000000000E+01
  0.100000000000E+01
  0.100000000000E+01
