# vtk DataFile Version 3.0
TriPan results file. Generated by TriPan, USU AeroLab (c) 2021.
ASCII
DATASET POLYDATA
POINTS                  34 float
  0.190003013611E+02  0.000000000000E+00  0.000000000000E+00
  0.998253294268E+02  0.000000000000E+00  0.607726438785E+01
  0.199284744263E+02  0.928174138069E+00  0.000000000000E+00
  0.998305474389E+02  0.928174138069E+00  0.600786704881E+01
  0.212622661591E+02  0.226196575165E+01  0.000000000000E+00
  0.998380457619E+02  0.226196575165E+01  0.590814254639E+01
  0.231392364502E+02  0.413893461227E+01  0.000000000000E+00
  0.998485977313E+02  0.413893461227E+01  0.576780584783E+01
  0.257042465210E+02  0.670394468307E+01  0.000000000000E+00
  0.998630177292E+02  0.670394468307E+01  0.557602601689E+01
  0.290725154877E+02  0.100722141266E+02  0.000000000000E+00
  0.998819534956E+02  0.100722141266E+02  0.532418838852E+01
  0.332713356018E+02  0.142710342407E+02  0.000000000000E+00
  0.999055584623E+02  0.142710342407E+02  0.501025238461E+01
  0.381787681580E+02  0.191784667969E+02  0.000000000000E+00
  0.999331471131E+02  0.191784667969E+02  0.464333507825E+01
  0.435003013611E+02  0.245000000000E+02  0.000000000000E+00
  0.999630637589E+02  0.245000000000E+02  0.424545643066E+01
  0.488218345642E+02  0.298215332031E+02  0.000000000000E+00
  0.999929804047E+02  0.298215332031E+02  0.384757778308E+01
  0.537292671204E+02  0.347289657593E+02  0.000000000000E+00
  0.100020569056E+03  0.347289657593E+02  0.348066047672E+01
  0.579280853271E+02  0.389277839661E+02  0.000000000000E+00
  0.100044174012E+03  0.389277839661E+02  0.316672461542E+01
  0.612963562012E+02  0.422960548401E+02  0.000000000000E+00
  0.100063109789E+03  0.422960548401E+02  0.291488684444E+01
  0.638613662720E+02  0.448610649109E+02  0.000000000000E+00
  0.100077529787E+03  0.448610649109E+02  0.272310701350E+01
  0.657383346558E+02  0.467380332947E+02  0.000000000000E+00
  0.100088081745E+03  0.467380332947E+02  0.258277045755E+01
  0.670721282959E+02  0.480718269348E+02  0.000000000000E+00
  0.100095580079E+03  0.480718269348E+02  0.248304581252E+01
  0.680002975464E+02  0.490000000000E+02  0.000000000000E+00
  0.100100798070E+03  0.490000000000E+02  0.241364875870E+01
POLYGONS                  32                 128
3                   0                   1                   3
3                   0                   3                   2
3                   2                   3                   5
3                   2                   5                   4
3                   4                   5                   7
3                   4                   7                   6
3                   6                   7                   9
3                   6                   9                   8
3                   8                   9                  11
3                   8                  11                  10
3                  10                  11                  13
3                  10                  13                  12
3                  12                  13                  15
3                  12                  15                  14
3                  14                  15                  17
3                  14                  17                  16
3                  16                  17                  19
3                  16                  19                  18
3                  18                  19                  21
3                  18                  21                  20
3                  20                  21                  23
3                  20                  23                  22
3                  22                  23                  25
3                  22                  25                  24
3                  24                  25                  27
3                  24                  27                  26
3                  26                  27                  29
3                  26                  29                  28
3                  28                  29                  31
3                  28                  31                  30
3                  30                  31                  33
3                  30                  33                  32
POINT_DATA                  34
SCALARS mu float 1
LOOKUP_TABLE default
 -0.214912891117E-03
 -0.214912891117E-03
 -0.380970650440E-04
 -0.380970650440E-04
 -0.453317994697E-04
 -0.453317994697E-04
 -0.560909597276E-04
 -0.560909597276E-04
 -0.687346174253E-04
 -0.687346174253E-04
 -0.849088476222E-04
 -0.849088476222E-04
 -0.964342796053E-04
 -0.964342796053E-04
 -0.103841612734E-03
 -0.103841612734E-03
 -0.105884945576E-03
 -0.105884945576E-03
 -0.100195983521E-03
 -0.100195983521E-03
 -0.851486058195E-04
 -0.851486058195E-04
 -0.671341142535E-04
 -0.671341142535E-04
 -0.483243431617E-04
 -0.483243431617E-04
 -0.313694139891E-04
 -0.313694139891E-04
  0.299447336261E-05
  0.299447336261E-05
  0.106863963794E-03
  0.106863963794E-03
  0.000000000000E+00
  0.000000000000E+00
