# vtk DataFile Version 3.0
TriPan results file. Generated by TriPan, USU AeroLab (c) 2021.
ASCII
DATASET POLYDATA
POINTS                 482 float
  0.130247308752E-04  0.000000000000E+00  0.000000000000E+00
  0.473471998374E+00  0.000000000000E+00 -0.436280480279E+00
  0.473471998374E+00  0.000000000000E+00  0.436280480279E+00
  0.757906115597E+00  0.757886492666E+00  0.970884839498E-21
  0.123136895910E+01  0.757889807076E+00 -0.436282030868E+00
  0.123136895910E+01  0.757889807076E+00  0.436282030868E+00
  0.157642335882E+01  0.000000000000E+00 -0.760501285105E+00
  0.157642335882E+01  0.000000000000E+00  0.760501285105E+00
  0.178898577720E+01  0.178896136254E+01  0.402655090288E-21
  0.226244758528E+01  0.178896571238E+01 -0.436279675842E+00
  0.226244758528E+01  0.178896571238E+01  0.436279675842E+00
  0.233432052349E+01  0.757892272727E+00 -0.760501900766E+00
  0.233432052349E+01  0.757892272727E+00  0.760501900766E+00
  0.317281291859E+01  0.317278244121E+01 -0.502643732574E-21
  0.336539878957E+01  0.178896889576E+01 -0.760499161643E+00
  0.336539878957E+01  0.178896889576E+01  0.760499161643E+00
  0.342464590410E+01  0.000000000000E+00 -0.102346395851E+01
  0.342464590410E+01  0.000000000000E+00  0.102346395851E+01
  0.364627391137E+01  0.317278808318E+01 -0.436276653421E+00
  0.364627391137E+01  0.317278808318E+01  0.436276653421E+00
  0.418254366712E+01  0.757894007404E+00 -0.102346449441E+01
  0.418254366712E+01  0.757894007404E+00  0.102346449441E+01
  0.474922443846E+01  0.317279218218E+01 -0.760495703661E+00
  0.474922443846E+01  0.317279218218E+01  0.760495703661E+00
  0.499663525975E+01  0.499659746731E+01  0.623286393957E-21
  0.521362228604E+01  0.178897099285E+01 -0.102346181793E+01
  0.521362228604E+01  0.178897099285E+01  0.102346181793E+01
  0.547009495982E+01  0.499660464040E+01 -0.436273007752E+00
  0.547009495982E+01  0.499660464040E+01  0.436273007752E+00
  0.611307615049E+01  0.000000000000E+00 -0.114005132092E+01
  0.611307615049E+01  0.000000000000E+00  0.114005132092E+01
  0.657304508535E+01  0.499660985621E+01 -0.760491503240E+00
  0.657304508535E+01  0.499660985621E+01  0.760491503240E+00
  0.659744842488E+01  0.317279474301E+01 -0.102345839923E+01
  0.659744842488E+01  0.317279474301E+01  0.102345839923E+01
  0.687097446281E+01  0.757896382042E+00 -0.114005132102E+01
  0.687097446281E+01  0.757896382042E+00  0.114005132102E+01
  0.734364762990E+01  0.734360155376E+01  0.227971256176E-20
  0.781710611506E+01  0.734361041860E+01 -0.436268825882E+00
  0.781710611506E+01  0.734361041860E+01  0.436268825882E+00
  0.790205327048E+01  0.178897365557E+01 -0.114004877659E+01
  0.790205327048E+01  0.178897365557E+01  0.114004877659E+01
  0.842126898126E+01  0.499661298439E+01 -0.102345420801E+01
  0.842126898126E+01  0.499661298439E+01  0.102345420801E+01
  0.892005543328E+01  0.734361691857E+01 -0.760486638111E+00
  0.892005543328E+01  0.734361691857E+01  0.760486638111E+00
  0.928587999311E+01  0.317279777561E+01 -0.114004537243E+01
  0.928587999311E+01  0.317279777561E+01  0.114004537243E+01
  0.939508651117E+01  0.000000000000E+00 -0.980721943788E+00
  0.939508651117E+01  0.000000000000E+00  0.980721943788E+00
  0.101529844880E+02  0.757898342664E+00 -0.980717159871E+00
  0.101529844880E+02  0.757898342664E+00  0.980717159871E+00
  0.102728649761E+02  0.102728103017E+02  0.360684024404E-20
  0.107463222437E+02  0.102728208609E+02 -0.436264448741E+00
  0.107463222437E+02  0.102728208609E+02  0.436264448741E+00
  0.107682810595E+02  0.734362070066E+01 -0.102344938071E+01
  0.107682810595E+02  0.734362070066E+01  0.102344938071E+01
  0.111097029560E+02  0.499661647156E+01 -0.114004119345E+01
  0.111097029560E+02  0.499661647156E+01  0.114004119345E+01
  0.111840645989E+02  0.178897574353E+01 -0.980715540156E+00
  0.111840645989E+02  0.178897574353E+01  0.980715540156E+00
  0.118492721062E+02  0.102728287239E+02 -0.760481600830E+00
  0.118492721062E+02  0.102728287239E+02  0.760481600830E+00
  0.125678925784E+02  0.317280003715E+01 -0.980713411564E+00
  0.125678925784E+02  0.317280003715E+01  0.980713411564E+00
  0.126670289110E+02  0.000000000000E+00 -0.678028198026E+00
  0.126670289110E+02  0.000000000000E+00  0.678028198026E+00
  0.134249282109E+02  0.757898665790E+00 -0.678029104408E+00
  0.134249282109E+02  0.757898665790E+00  0.678029104408E+00
  0.134567154615E+02  0.734362471414E+01 -0.114003661032E+01
  0.134567154615E+02  0.734362471414E+01  0.114003661032E+01
  0.136974979908E+02  0.102728332013E+02 -0.102344441904E+01
  0.136974979908E+02  0.102728332013E+02  0.102344441904E+01
  0.137921531606E+02  0.137920906138E+02 -0.412617430891E-20
  0.142656089637E+02  0.137921026376E+02 -0.436260406143E+00
  0.142656089637E+02  0.137921026376E+02  0.436260406143E+00
  0.143917162623E+02  0.499661896565E+01 -0.980710472824E+00
  0.143917162623E+02  0.499661896565E+01  0.980710472824E+00
  0.144560092949E+02  0.178897604722E+01 -0.678028179987E+00
  0.144560092949E+02  0.178897604722E+01  0.678028179987E+00
  0.153437545560E+02  0.000000000000E+00 -0.393011337881E+00
  0.153437545560E+02  0.000000000000E+00  0.393011337881E+00
  0.153685584878E+02  0.137921117926E+02 -0.760477029805E+00
  0.153685584878E+02  0.137921117926E+02  0.760477029805E+00
  0.158398391737E+02  0.317280034896E+01 -0.678026550975E+00
  0.158398391737E+02  0.317280034896E+01  0.678026550975E+00
  0.161016539381E+02  0.757898326130E+00 -0.393012384982E+00
  0.161016539381E+02  0.757898326130E+00  0.393012384982E+00
  0.163859346921E+02  0.102728377765E+02 -0.114003176519E+01
  0.163859346921E+02  0.102728377765E+02  0.114003176519E+01
  0.167387322842E+02  0.734362750662E+01 -0.980706810415E+00
  0.167387322842E+02  0.734362750662E+01  0.980706810415E+00
  0.171327359313E+02  0.178897575201E+01 -0.393011040775E+00
  0.171327359313E+02  0.178897575201E+01  0.393011040775E+00
  0.172004302801E+02  0.000000000000E+00 -0.192492534141E+00
  0.172004302801E+02  0.000000000000E+00  0.192492534141E+00
  0.172167865738E+02  0.137921169296E+02 -0.102343998227E+01
  0.172167865738E+02  0.137921169296E+02  0.102343998227E+01
  0.176636647076E+02  0.499661933474E+01 -0.678023871616E+00
  0.176636647076E+02  0.499661933474E+01  0.678023871616E+00
  0.178320406685E+02  0.178319722405E+02 -0.338561949531E-20
  0.179583305519E+02  0.757897814089E+00 -0.192492887904E+00
  0.179583305519E+02  0.757897814089E+00  0.192492887904E+00
  0.183054964506E+02  0.178319852389E+02 -0.436257353844E+00
  0.183054964506E+02  0.178319852389E+02  0.436257353844E+00
  0.183450401686E+02  0.000000000000E+00 -0.698557350169E-01
  0.183450401686E+02  0.000000000000E+00  0.698557350169E-01
  0.185165666873E+02  0.317280013019E+01 -0.393008719136E+00
  0.185165666873E+02  0.317280013019E+01  0.393008719136E+00
  0.189894143765E+02  0.178897531578E+01 -0.192490754164E+00
  0.189894143765E+02  0.178897531578E+01  0.192490754164E+00
  0.189999910876E+02 -0.706716667334E-07 -0.662507154444E-06
  0.191029403208E+02  0.757897496463E+00 -0.698549383524E-01
  0.191029403208E+02  0.757897496463E+00  0.698549383524E-01
  0.194084449479E+02  0.178319954208E+02 -0.760473692460E+00
  0.194084449479E+02  0.178319954208E+02  0.760473692460E+00
  0.196679540248E+02  0.102728409201E+02 -0.980702505042E+00
  0.196679540248E+02  0.102728409201E+02  0.980702505042E+00
  0.197578924863E+02  0.757904055872E+00 -0.817590626343E-06
  0.199052256017E+02  0.137921220393E+02 -0.114002743811E+01
  0.199052256017E+02  0.137921220393E+02  0.114002743811E+01
  0.200106815730E+02  0.734362798583E+01 -0.678020158371E+00
  0.200106815730E+02  0.734362798583E+01  0.678020158371E+00
  0.201340240748E+02  0.178897506881E+01 -0.698520928202E-01
  0.201340240748E+02  0.178897506881E+01  0.698520928202E-01
  0.203403940275E+02  0.499661921715E+01 -0.393005166852E+00
  0.203403940275E+02  0.499661921715E+01  0.393005166852E+00
  0.203732450409E+02  0.317279978560E+01 -0.192487498987E+00
  0.203732450409E+02  0.317279978560E+01  0.192487498987E+00
  0.207889742179E+02  0.178898365075E+01 -0.106324915596E-05
  0.212566753703E+02  0.178320010825E+02 -0.102343680753E+01
  0.212566753703E+02  0.178320010825E+02  0.102343680753E+01
  0.215178546867E+02  0.317279959111E+01 -0.698482663852E-01
  0.215178546867E+02  0.317279959111E+01  0.698482663852E-01
  0.221728041694E+02  0.317281074082E+01 -0.137756024601E-05
  0.221970742095E+02  0.499661895150E+01 -0.192483120200E+00
  0.221970742095E+02  0.499661895150E+01  0.192483120200E+00
  0.222339661801E+02  0.222338949955E+02 -0.352200781662E-20
  0.226874146054E+02  0.734362797048E+01 -0.393000569122E+00
  0.226874146054E+02  0.734362797048E+01  0.393000569122E+00
  0.227074235883E+02  0.222339082751E+02 -0.436255960272E+00
  0.227074235883E+02  0.222339082751E+02  0.436255960272E+00
  0.229399069889E+02  0.102728415388E+02 -0.678015729259E+00
  0.229399069889E+02  0.102728415388E+02  0.678015729259E+00
  0.231872483860E+02  0.137921255459E+02 -0.980698278886E+00
  0.231872483860E+02  0.137921255459E+02  0.980698278886E+00
  0.233416838233E+02  0.499661878904E+01 -0.698435004566E-01
  0.233416838233E+02  0.499661878904E+01  0.698435004566E-01
  0.238103734204E+02  0.222339190297E+02 -0.760472335773E+00
  0.238103734204E+02  0.222339190297E+02  0.760472335773E+00
  0.239451177867E+02  0.178320066182E+02 -0.114002437110E+01
  0.239451177867E+02  0.178320066182E+02  0.114002437110E+01
  0.239966302105E+02  0.499663303420E+01 -0.175828638870E-05
  0.245440947328E+02  0.734362775945E+01 -0.192477880815E+00
  0.245440947328E+02  0.734362775945E+01  0.192477880815E+00
  0.256166418408E+02  0.102728416112E+02 -0.392995421349E+00
  0.256166418408E+02  0.102728416112E+02  0.392995421349E+00
  0.256586054572E+02  0.222339249841E+02 -0.102343585009E+01
  0.256586054572E+02  0.222339249841E+02  0.102343585009E+01
  0.256887062361E+02  0.734362761471E+01 -0.698379650477E-01
  0.256887062361E+02  0.734362761471E+01  0.698379650477E-01
[...]
POINT_DATA                 482
SCALARS phi float 1
LOOKUP_TABLE default
 -0.111022302463E-15
  0.222044604925E-15
  0.666133814775E-15
  0.666133814775E-15
  0.444089209850E-15
  0.555111512313E-15
  0.222044604925E-15
 -0.222044604925E-15
  0.888178419700E-15
 -0.222044604925E-15
  0.222044604925E-15
  0.555111512313E-15
  0.111022302463E-15
 -0.999200722163E-15
 -0.666133814775E-15
 -0.111022302463E-14
 -0.888178419700E-15
 -0.222044604925E-15
 -0.333066907388E-15
  0.555111512313E-15
  0.555111512313E-15
 -0.666133814775E-15
 -0.177635683940E-14
  0.333066907388E-15
 -0.999200722163E-15
  0.888178419700E-15
 -0.444089209850E-15
 -0.199840144433E-14
  0.111022302463E-15
 -0.777156117238E-15
  0.000000000000E+00
  0.333066907388E-15
  0.000000000000E+00
 -0.777156117238E-15
  0.166533453694E-15
 -0.610622663544E-15
  0.555111512313E-16
 -0.666133814775E-15
  0.000000000000E+00
  0.122124532709E-14
 -0.999200722163E-15
  0.111022302463E-15
  0.111022302463E-14
  0.166533453694E-15
 -0.888178419700E-15
 -0.222044604925E-15
  0.555111512313E-16
 -0.416333634234E-15
  0.555111512313E-16
 -0.138777878078E-15
 -0.832667268469E-16
  0.902056207508E-16
 -0.666133814775E-15
  0.444089209850E-15
  0.000000000000E+00
  0.888178419700E-15
  0.000000000000E+00
 -0.499600361081E-15
 -0.222044604925E-15
  0.471844785466E-15
 -0.451028103754E-16
  0.888178419700E-15
  0.111022302463E-15
  0.111022302463E-15
  0.971445146547E-16
 -0.402455846427E-15
 -0.444089209850E-15
  0.277555756156E-15
  0.416333634234E-15
 -0.119348975147E-14
 -0.582867087928E-15
 -0.127675647832E-14
 -0.222044604925E-15
 -0.666133814775E-15
 -0.555111512313E-15
 -0.666133814775E-15
 -0.832667268469E-16
 -0.277555756156E-15
 -0.471844785466E-15
 -0.111022302463E-14
  0.111022302463E-15
  0.149880108324E-14
  0.111022302463E-14
  0.000000000000E+00
  0.416333634234E-15
  0.122124532709E-14
  0.222044604925E-15
  0.555111512313E-16
 -0.416333634234E-15
 -0.527355936697E-15
  0.201227923213E-15
 -0.105471187339E-14
  0.388578058619E-15
  0.111022302463E-15
 -0.333066907388E-15
  0.888178419700E-15
 -0.610622663544E-15
 -0.111022302463E-15
  0.832667268469E-15
 -0.149880108324E-14
  0.444089209850E-15
 -0.333066907388E-15
  0.222044604925E-15
  0.222044604925E-15
 -0.222044604925E-15
  0.555111512313E-15
  0.000000000000E+00
  0.333066907388E-15
 -0.277555756156E-15
  0.149880108324E-14
 -0.122124532709E-14
  0.555111512313E-15
  0.277555756156E-15
  0.277555756156E-15
  0.222044604925E-15
  0.222044604925E-15
 -0.138777878078E-16
 -0.555111512313E-16
  0.388578058619E-15
 -0.777156117238E-15
 -0.208166817117E-16
  0.721644966006E-15
 -0.610622663544E-15
  0.999200722163E-15
  0.111022302463E-15
  0.333066907388E-15
 -0.388578058619E-15
 -0.943689570931E-15
 -0.999200722163E-15
 -0.222044604925E-15
  0.116573417586E-14
  0.111022302463E-15
  0.333066907388E-15
  0.222044604925E-15
 -0.555111512313E-16
 -0.555111512313E-16
 -0.388578058619E-15
  0.111022302463E-14
 -0.166533453694E-15
 -0.111022302463E-14
  0.444089209850E-15
  0.222044604925E-15
  0.166533453694E-15
 -0.943689570931E-15
  0.874300631892E-15
 -0.333066907388E-15
  0.166533453694E-15
 -0.444089209850E-15
  0.222044604925E-15
 -0.111022302463E-15
  0.360822483003E-15
  0.693889390391E-17
  0.000000000000E+00
  0.555111512313E-16
  0.555111512313E-16
  0.111022302463E-15
  0.000000000000E+00
 -0.555111512313E-15
  0.444089209850E-15
  0.222044604925E-15
  0.555111512313E-16
 -0.666133814775E-15
 -0.277555756156E-15
  0.444089209850E-15
  0.555111512313E-15
  0.277555756156E-16
 -0.555111512313E-15
  0.888178419700E-15
 -0.555111512313E-15
  0.222044604925E-15
  0.555111512313E-16
  0.222044604925E-15
  0.555111512313E-16
  0.416333634234E-15
  0.777156117238E-15
  0.000000000000E+00
  0.721644966006E-15
  0.499600361081E-15
 -0.138777878078E-14
 -0.105471187339E-14
 -0.122124532709E-14
 -0.222044604925E-15
 -0.222044604925E-15
  0.555111512313E-15
  0.222044604925E-15
 -0.499600361081E-15
  0.222044604925E-15
  0.596744875736E-15
  0.888178419700E-15
 -0.166533453694E-14
  0.222044604925E-15
 -0.388578058619E-15
  0.000000000000E+00
 -0.555111512313E-15
 -0.166533453694E-15
  0.666133814775E-15
 -0.305311331772E-15
  0.619296280924E-15
 -0.388578058619E-15
 -0.610622663544E-15
 -0.555111512313E-16
  0.166533453694E-15
  0.111022302463E-14
  0.233146835171E-14
 -0.444089209850E-15
 -0.333066907388E-15
 -0.777156117238E-15
 -0.444089209850E-15
  0.222044604925E-15
  0.305311331772E-15
 -0.888178419700E-15
  0.000000000000E+00
  0.499600361081E-15
  0.122124532709E-14
  0.000000000000E+00
 -0.277555756156E-15
 -0.471844785466E-15
  0.728583859910E-15
 -0.111022302463E-15
  0.222044604925E-15
 -0.555111512313E-16
 -0.832667268469E-16
 -0.333066907388E-15
  0.444089209850E-15
  0.122124532709E-14
  0.610622663544E-15
  0.777156117238E-15
  0.277555756156E-15
  0.333066907388E-15
 -0.333066907388E-15
 -0.333066907388E-15
  0.888178419700E-15
  0.388578058619E-15
 -0.943689570931E-15
 -0.105471187339E-14
 -0.555111512313E-16
  0.582867087928E-15
 -0.211636264069E-15
  0.888178419700E-15
 -0.105471187339E-14
  0.499600361081E-15
 -0.666133814775E-15
 -0.122124532709E-14
  0.610622663544E-15
  0.360822483003E-15
 -0.888178419700E-15
 -0.499600361081E-15
 -0.666133814775E-15
 -0.832667268469E-15
  0.277555756156E-15
 -0.222044604925E-15
  0.999200722163E-15
 -0.444089209850E-15
 -0.333066907388E-15
  0.360822483003E-15
  0.277555756156E-15
 -0.402455846427E-15
  0.312250225676E-15
  0.499600361081E-15
 -0.166533453694E-15
 -0.122124532709E-14
  0.388578058619E-15
  0.111022302463E-15
  0.000000000000E+00
  0.943689570931E-15
  0.111022302463E-15
 -0.777156117238E-15
 -0.555111512313E-16
 -0.222044604925E-15
  0.333066907388E-15
  0.000000000000E+00
  0.105471187339E-14
  0.000000000000E+00
 -0.610622663544E-15
 -0.277555756156E-16
  0.444089209850E-15
  0.105471187339E-14
 -0.277555756156E-15
 -0.437150315946E-15
  0.610622663544E-15
 -0.832667268469E-15
  0.000000000000E+00
  0.333066907388E-15
 -0.277555756156E-15
 -0.111022302463E-15
  0.388578058619E-15
 -0.144328993201E-14
  0.333066907388E-15
 -0.499600361081E-15
 -0.555111512313E-16
 -0.277555756156E-15
 -0.111022302463E-15
 -0.277555756156E-15
 -0.666133814775E-15
 -0.277555756156E-15
  0.499600361081E-15
 -0.133226762955E-14
 -0.555111512313E-16
  0.610622663544E-15
  0.277555756156E-15
 -0.499600361081E-15
  0.388578058619E-15
  0.277555756156E-15
 -0.499600361081E-15
 -0.444089209850E-15
  0.277555756156E-15
 -0.416333634234E-16
 -0.582867087928E-15
  0.555111512313E-16
  0.388578058619E-15
  0.444089209850E-15
 -0.499600361081E-15
 -0.138777878078E-15
 -0.277555756156E-15
 -0.124900090270E-15
  0.471844785466E-15
  0.249800180541E-15
  0.000000000000E+00
 -0.222044604925E-15
  0.832667268469E-16
 -0.832667268469E-16
 -0.111022302463E-15
 -0.222044604925E-15
  0.194289029309E-15
  0.555111512313E-16
 -0.105471187339E-14
 -0.527355936697E-15
  0.555111512313E-16
  0.392047505571E-15
 -0.541233724505E-15
  0.277555756156E-15
  0.144328993201E-14
  0.180411241502E-15
  0.190819582357E-15
  0.693889390391E-16
  0.364291929955E-16
 -0.444089209850E-15
  0.241126563161E-15
 -0.149186218934E-15
  0.582867087928E-15
 -0.124900090270E-15
  0.621247844834E-16
  0.249800180541E-15
  0.111022302463E-14
  0.433680868994E-16
  0.105471187339E-14
 -0.122124532709E-14
 -0.105471187339E-14
  0.888178419700E-15
  0.111022302463E-15
 -0.277555756156E-15
 -0.610622663544E-15
  0.138777878078E-16
  0.360822483003E-15
 -0.138777878078E-16
 -0.666133814775E-15
 -0.527355936697E-15
  0.555111512313E-15
 -0.555111512313E-16
 -0.222044604925E-15
 -0.138777878078E-15
  0.360822483003E-15
 -0.111022302463E-14
  0.133226762955E-14
  0.166533453694E-15
  0.194289029309E-15
  0.832667268469E-16
  0.166533453694E-15
 -0.444089209850E-15
 -0.555111512313E-16
 -0.105471187339E-14
  0.555111512313E-16
  0.777156117238E-15
 -0.388578058619E-15
  0.777156117238E-15
  0.333066907388E-15
  0.111022302463E-15
  0.499600361081E-15
  0.000000000000E+00
 -0.105471187339E-14
 -0.222044604925E-15
 -0.333066907388E-15
  0.333066907388E-15
  0.777156117238E-15
 -0.222044604925E-15
  0.111022302463E-15
 -0.610622663544E-15
  0.555111512313E-16
  0.333066907388E-15
 -0.222044604925E-15
  0.499600361081E-15
  0.299760216649E-14
  0.111022302463E-15
  0.333066907388E-15
 -0.444089209850E-15
 -0.555111512313E-16
 -0.555111512313E-15
  0.166533453694E-15
  0.333066907388E-15
  0.127675647832E-14
 -0.111022302463E-15
 -0.144328993201E-14
 -0.388578058619E-15
 -0.610622663544E-15
  0.333066907388E-15
  0.943689570931E-15
 -0.333066907388E-15
  0.610622663544E-15
 -0.166533453694E-15
  0.166533453694E-15
 -0.666133814775E-15
  0.111022302463E-14
  0.555111512313E-16
  0.277555756156E-15
  0.222044604925E-15
  0.555111512313E-16
 -0.277555756156E-15
  0.160982338571E-14
  0.277555756156E-15
  0.166533453694E-15
  0.000000000000E+00
  0.222044604925E-15
  0.610622663544E-15
  0.166533453694E-15
 -0.333066907388E-15
  0.777156117238E-15
 -0.555111512313E-15
  0.444089209850E-15
 -0.111022302463E-15
  0.277555756156E-15
  0.444089209850E-15
  0.610622663544E-15
  0.555111512313E-15
  0.166533453694E-15
 -0.222044604925E-15
  0.721644966006E-15
  0.111022302463E-15
 -0.111022302463E-15
 -0.666133814775E-15
 -0.388578058619E-15
 -0.111022302463E-15
  0.000000000000E+00
  0.721644966006E-15
 -0.277555756156E-15
 -0.166533453694E-15
 -0.166533453694E-15
 -0.277555756156E-15
  0.777156117238E-15
  0.666133814775E-15
 -0.721644966006E-15
 -0.444089209850E-15
  0.555111512313E-15
  0.166533453694E-15
 -0.166533453694E-15
 -0.499600361081E-15
 -0.130451205393E-14
  0.122124532709E-14
 -0.555111512313E-16
  0.247024622979E-14
  0.471844785466E-15
 -0.230371277610E-14
 -0.241473507856E-14
 -0.832667268469E-16
  0.555111512313E-15
  0.000000000000E+00
  0.277555756156E-15
 -0.127675647832E-14
 -0.111022302463E-15
 -0.499600361081E-15
 -0.888178419700E-15
  0.166533453694E-15
  0.222044604925E-15
  0.111022302463E-14
  0.000000000000E+00
 -0.111022302463E-15
  0.666133814775E-15
 -0.111022302463E-15
 -0.499600361081E-15
  0.222044604925E-15
  0.000000000000E+00
  0.000000000000E+00
  0.555111512313E-16
SCALARS phi_mu float 1
LOOKUP_TABLE default
  0.677402230113E+00
  0.776780876651E+00
  0.744743900444E+00
  0.807353648569E+00
  0.837477864272E+00
  0.793949364892E+00
  0.807588400033E+00
  0.735533889679E+00
  0.837226729535E+00
  0.852300325774E+00
  0.805297432618E+00
  0.808306407331E+00
  0.726578734967E+00
  0.834491707670E+00
  0.795380602222E+00
  0.709072298434E+00
  0.740747403154E+00
  0.631160736690E+00
  0.841226722474E+00
  0.792605416997E+00
  0.702901233403E+00
  0.587019733104E+00
  0.766667858284E+00
  0.678043422099E+00
  0.809806948773E+00
  0.661057861912E+00
  0.541446446917E+00
  0.811435180026E+00
  0.762064636212E+00
  0.542578730863E+00
  0.407455216566E+00
  0.726061819437E+00
  0.636389734150E+00
  0.611318693602E+00
  0.489766248600E+00
  0.479467302801E+00
  0.341948625860E+00
  0.773217832588E+00
  0.772143135081E+00
  0.722478048929E+00
  0.416683824173E+00
  0.277864354385E+00
  0.558085428254E+00
  0.435758171185E+00
  0.681406120383E+00
  0.591366398977E+00
  0.352790196714E+00
  0.213570086830E+00
  0.228901395828E+00
  0.973619322746E-01
  0.164381109617E+00
  0.338422005702E-01
  0.735600511983E+00
  0.733582358566E+00
  0.683842389183E+00
  0.508198916071E+00
  0.385714072355E+00
  0.293039948374E+00
  0.153950211613E+00
  0.996721586210E-01
 -0.295606843394E-01
  0.641344002218E+00
  0.551248211537E+00
  0.381447427338E-01
 -0.898697025859E-01
 -0.740312260494E-01
 -0.175808982538E+00
 -0.125921481803E+00
 -0.224837706410E+00
  0.243519103203E+00
  0.104750605666E+00
  0.467924835322E+00
  0.345522573913E+00
  0.704653630325E+00
  0.702646905320E+00
  0.652914433097E+00
 -0.141295998063E-01
 -0.141196070153E+00
 -0.176125668732E+00
 -0.272603985102E+00
 -0.276632682411E+00
 -0.341269530755E+00
  0.610823400936E+00
  0.520772425298E+00
 -0.219540329984E+00
 -0.314403987334E+00
 -0.310739346744E+00
 -0.372010122831E+00
  0.207362547054E+00
  0.688926642108E-01
 -0.531271027428E-01
 -0.179556052095E+00
 -0.338713937049E+00
 -0.397968499299E+00
 -0.376388576964E+00
 -0.410516718318E+00
  0.439161009924E+00
  0.316880384704E+00
 -0.252342905294E+00
 -0.346253554664E+00
  0.682172824650E+00
 -0.390924523420E+00
 -0.422242093918E+00
  0.680439564513E+00
  0.630732404878E+00
 -0.410533660885E+00
 -0.423911006676E+00
 -0.358527731370E+00
 -0.416744846776E+00
 -0.396351613481E+00
 -0.426673161399E+00
 -0.404898006027E+00
 -0.402830917926E+00
 -0.414644638542E+00
  0.589409940436E+00
  0.499414789303E+00
 -0.798424838176E-01
 -0.205895499569E+00
 -0.376906058423E+00
  0.182832128493E+00
  0.445678091572E-01
 -0.275457384174E+00
 -0.368854817170E+00
 -0.395410072384E+00
 -0.406949014057E+00
 -0.372940507196E+00
 -0.430639589745E+00
 -0.400195424311E+00
 -0.430098764500E+00
 -0.366454348819E+00
  0.419418177707E+00
  0.297233610454E+00
 -0.393530449595E+00
 -0.404948598700E+00
 -0.362758264159E+00
 -0.405625690950E+00
 -0.435321832746E+00
  0.666025021531E+00
 -0.384869599048E+00
 -0.442304964984E+00
  0.664514611673E+00
  0.614831335224E+00
 -0.292158194015E+00
 -0.385288161779E+00
 -0.981712606777E-01
 -0.224015025610E+00
 -0.395563160675E+00
 -0.406916683013E+00
  0.574059343965E+00
  0.484110291773E+00
  0.165931569055E+00
  0.277964291603E-01
 -0.363421830799E+00
 -0.412344172899E+00
 -0.441929484863E+00
 -0.395250538006E+00
 -0.452546571269E+00
  0.405114906173E+00
  0.283000315582E+00
 -0.400020409750E+00
 -0.411337306943E+00
 -0.366848398015E+00
 -0.304875152454E+00
 -0.397861838786E+00
  0.653394882812E+00
 -0.111556413249E+00
 -0.237279343945E+00
  0.651997767978E+00
  0.602336039702E+00
 -0.419564582898E+00
 -0.449088343698E+00
  0.561829188775E+00
  0.471920017241E+00
  0.153217302815E+00
  0.151690895337E-01
 -0.405721560033E+00
 -0.417017113613E+00
 -0.404384886958E+00
 -0.461603750013E+00
 -0.371806416902E+00
  0.393384531636E+00
  0.271328627734E+00
 -0.315192517033E+00
 -0.408096051632E+00
 -0.426758086506E+00
 -0.456246265137E+00
  0.642022434054E+00
 -0.122404497498E+00
 -0.248047230281E+00
  0.640632718132E+00
  0.590994009138E+00
 -0.411912832591E+00
 -0.423195486026E+00
  0.550493652154E+00
  0.460627194133E+00
 -0.377484664708E+00
  0.142220112611E+00
  0.424453437525E-02
 -0.412645401544E+00
 -0.469817717259E+00
  0.382103029600E+00
  0.260111059164E+00
 -0.324377947477E+00
 -0.417224381585E+00
 -0.433822245892E+00
 -0.463288123033E+00
  0.630203628957E+00
  0.628705533874E+00
  0.579097104746E+00
 -0.132526300523E+00
 -0.258099462277E+00
 -0.418322425509E+00
 -0.429596720287E+00
  0.538324125663E+00
  0.448515013660E+00
 -0.383546064372E+00
  0.131032296385E+00
 -0.686053402163E-02
 -0.420631501573E+00
 -0.477770299130E+00
  0.369527215324E+00
  0.247624661316E+00
  0.616577477954E+00
  0.614811548081E+00
  0.565248714119E+00
 -0.333633006422E+00
 -0.426426627029E+00
 -0.441047274688E+00
 -0.470496500249E+00
  0.523815342818E+00
  0.434095249952E+00
 -0.143514469085E+00
 -0.269002380475E+00
 -0.425100131663E+00
 -0.436368111937E+00
 -0.390074079514E+00
  0.117917461525E+00
 -0.198516489042E-01
  0.599982001466E+00
 -0.429135443929E+00
 -0.486241286073E+00
  0.597695393079E+00
  0.548205773042E+00
  0.353978341210E+00
  0.232222291776E+00
  0.505485926976E+00
  0.415914932405E+00
 -0.344182049033E+00
 -0.436905528887E+00
 -0.448977427527E+00
 -0.478409708755E+00
  0.579375419389E+00
  0.576143270875E+00
  0.526775122634E+00
 -0.156974689606E+00
 -0.282323961091E+00
  0.101011665096E+00
 -0.365376892978E-01
  0.333585929492E+00
  0.212093334915E+00
 -0.432645106552E+00
 -0.443906759746E+00
  0.481695262981E+00
  0.392386602968E+00
 -0.397385543148E+00
  0.553731741514E+00
  0.548815713475E+00
  0.499655976315E+00
 -0.438997068325E+00
 -0.496056474802E+00
  0.521704409072E+00
  0.450331919035E+00
  0.361515429340E+00
  0.306045090830E+00
  0.185064400431E+00
  0.513730574831E+00
  0.464955420361E+00
  0.781615842789E-01
 -0.589515292290E-01
 -0.357183487307E+00
 -0.449784277165E+00
 -0.174557001887E+00
 -0.299637713772E+00
  0.480341895726E+00
 -0.458118723960E+00
 -0.487526394010E+00
  0.466320884028E+00
  0.418418380769E+00
  0.408123161155E+00
  0.320356646345E+00
  0.412493897429E+00
  0.268629166318E+00
  0.148747468345E+00
  0.390516535534E+00
  0.346579783927E+00
 -0.441226381401E+00
 -0.452478923517E+00
  0.363446275920E+00
  0.324706690430E+00
  0.340853776382E+00
  0.311833215248E+00
  0.350857554770E+00
  0.265918821749E+00
  0.322813361602E+00
  0.307035647477E+00
  0.310807427029E+00
  0.474303795451E-01
 -0.887355954880E-01
 -0.405603302101E+00
 -0.450638490890E+00
 -0.507613394517E+00
  0.281362984128E+00
  0.204869898882E+00
  0.220483892375E+00
  0.103213097284E+00
  0.247735143297E+00
  0.181657103345E+00
 -0.197227927489E+00
 -0.321732613166E+00
  0.218822320934E+00
  0.169867918079E+00
  0.194684009515E+00
  0.168251993188E+00
  0.176874233499E+00
 -0.373063114333E+00
 -0.465414016542E+00
  0.168314288220E+00
  0.568968541178E-01
  0.990856358365E-02
 -0.124115965336E+00
 -0.468180263749E+00
 -0.497542540889E+00
  0.119515494691E+00
  0.192365408517E-01
  0.892185653223E-01
  0.321375740365E-02
  0.608752269460E-01
 -0.268212386427E-02
 -0.276332121736E-01
 -0.157218926902E+00
  0.351390254047E-01
  0.864545131664E-03
 -0.222795884966E+00
 -0.346032851282E+00
  0.139827057687E-01
 -0.450052596341E+00
 -0.461288273544E+00
 -0.462704450711E+00
 -0.519506963552E+00
 -0.413638053619E+00
 -0.389553462958E+00
 -0.481370662718E+00
 -0.591679545792E-01
 -0.180970029963E+00
 -0.844703329395E-01
 -0.193985971759E+00
 -0.244772113328E+00
 -0.365424132074E+00
 -0.103261330156E+00
 -0.196880357186E+00
 -0.124604721085E+00
 -0.193780330668E+00
 -0.476427989282E+00
 -0.505699352905E+00
 -0.146968512686E+00
 -0.184284991562E+00
 -0.168083101730E+00
 -0.258215423768E+00
 -0.374195186347E+00
 -0.400418575266E+00
 -0.491155251058E+00
 -0.470215794551E+00
 -0.526669906295E+00
 -0.455605912561E+00
 -0.466808193835E+00
 -0.263489134974E+00
 -0.371800446327E+00
 -0.417573471253E+00
 -0.263492132169E+00
 -0.359735321735E+00
 -0.399865886404E+00
 -0.488616323803E+00
 -0.266052769575E+00
 -0.348386258748E+00
 -0.476759885100E+00
 -0.505857366608E+00
 -0.274604617804E+00
 -0.335412333534E+00
 -0.287661938846E+00
 -0.320426397726E+00
 -0.466343290963E+00
 -0.522153199302E+00
 -0.303813393475E+00
 -0.387410465286E+00
 -0.472718693976E+00
 -0.451526854655E+00
 -0.462667368393E+00
 -0.411060419224E+00
 -0.366905866709E+00
 -0.446254047188E+00
 -0.447905157531E+00
 -0.502616313291E+00
 -0.463285810626E+00
 -0.492083627720E+00
 -0.343282607966E+00
 -0.411754503421E+00
 -0.336304125798E+00
 -0.394964976959E+00
 -0.335638009104E+00
 -0.378959254025E+00
 -0.340483000879E+00
 -0.363808390573E+00
 -0.350351466568E+00
 -0.432930373797E+00
 -0.443969165082E+00
 -0.416852967190E+00
 -0.469699309604E+00
 -0.389912107835E+00
 -0.434898776057E+00
 -0.463217649379E+00
 -0.377783150940E+00
 -0.427103907694E+00
 -0.400078025811E+00
 -0.410962529751E+00
 -0.335908750210E+00
 -0.376511418609E+00
 -0.394649818753E+00
 -0.422192230539E+00
 -0.327718154398E+00
 -0.362540858012E+00
 -0.324131141837E+00
 -0.349851035091E+00
 -0.324890684006E+00
 -0.338735796017E+00
 -0.329975034713E+00
 -0.355226774906E+00
 -0.346316792004E+00
 -0.372345666091E+00
 -0.356724714208E+00
 -0.367374427677E+00
 -0.292256311734E+00
 -0.312461598563E+00
 -0.311317705650E+00
 -0.286578847557E+00
 -0.303921624730E+00
 -0.283511766384E+00
 -0.296324521445E+00
 -0.283038317945E+00
 -0.289936025012E+00
 -0.285261173023E+00
 -0.306156115242E+00
 -0.316377721461E+00
 -0.261862522087E+00
 -0.245363700662E+00
 -0.252806135153E+00
 -0.242663167949E+00
 -0.249057191461E+00
 -0.241040243979E+00
 -0.245766266333E+00
 -0.240536800508E+00
 -0.243081804468E+00
 -0.241236544448E+00
 -0.201540411846E+00
 -0.376906257439E+00