# vtk DataFile Version 3.0
TriPan results file. Generated by TriPan, USU AeroLab (c) 2021.
ASCII
DATASET POLYDATA
POINTS                 144 float
  0.000000000000E+00  0.000000000000E+00  0.000000000000E+00
  0.750993072987E+00  0.000000000000E+00 -0.543790996075E+00
  0.750993072987E+00  0.000000000000E+00  0.543790996075E+00
  0.192375373840E+01  0.192375373840E+01  0.000000000000E+00
  0.267474675179E+01  0.192375373840E+01 -0.543790996075E+00
  0.267474675179E+01  0.192375373840E+01  0.543790996075E+00
  0.359246444702E+01  0.000000000000E+00 -0.103884494305E+01
  0.359246444702E+01  0.000000000000E+00  0.103884494305E+01
  0.547033166885E+01  0.547033166885E+01  0.000000000000E+00
  0.551621818542E+01  0.192375373840E+01 -0.103884494305E+01
  0.551621818542E+01  0.192375373840E+01  0.103884494305E+01
  0.622132492065E+01  0.547033166885E+01 -0.543790996075E+00
  0.622132492065E+01  0.547033166885E+01  0.543790996075E+00
  0.906279659271E+01  0.547033166885E+01 -0.103884494305E+01
  0.906279659271E+01  0.547033166885E+01  0.103884494305E+01
  0.939523696899E+01  0.000000000000E+00 -0.980761349201E+00
  0.939523696899E+01  0.000000000000E+00  0.980761349201E+00
  0.113189907074E+02  0.192375373840E+01 -0.980761349201E+00
  0.113189907074E+02  0.192375373840E+01  0.980761349201E+00
  0.113820018768E+02  0.113820018768E+02  0.000000000000E+00
  0.121329956055E+02  0.113820018768E+02 -0.543790996075E+00
  0.121329956055E+02  0.113820018768E+02  0.543790996075E+00
  0.148655681610E+02  0.547033166885E+01 -0.980761349201E+00
  0.148655681610E+02  0.547033166885E+01  0.980761349201E+00
  0.149744663239E+02  0.113820018768E+02 -0.103884494305E+01
  0.149744663239E+02  0.113820018768E+02  0.103884494305E+01
  0.151765298843E+02  0.000000000000E+00 -0.411069482565E+00
  0.151765298843E+02  0.000000000000E+00  0.411069482565E+00
  0.171002845764E+02  0.192375373840E+01 -0.411069482565E+00
  0.171002845764E+02  0.192375373840E+01  0.411069482565E+00
  0.180493259430E+02  0.000000000000E+00 -0.101516798139E+00
  0.180493259430E+02  0.000000000000E+00  0.101516798139E+00
  0.190003013611E+02  0.000000000000E+00  0.000000000000E+00
  0.197561950684E+02  0.197561950684E+02  0.000000000000E+00
  0.199730796814E+02  0.192375373840E+01 -0.101516798139E+00
  0.199730796814E+02  0.192375373840E+01  0.101516798139E+00
  0.205071868896E+02  0.197561950684E+02 -0.543790996075E+00
  0.205071868896E+02  0.197561950684E+02  0.543790996075E+00
  0.206468620300E+02  0.547033166885E+01 -0.411069482565E+00
  0.206468620300E+02  0.547033166885E+01  0.411069482565E+00
  0.207772388458E+02  0.113820018768E+02 -0.980761349201E+00
  0.207772388458E+02  0.113820018768E+02  0.980761349201E+00
  0.209240550995E+02  0.192375373840E+01  0.000000000000E+00
  0.233486595154E+02  0.197561950684E+02 -0.103884494305E+01
  0.233486595154E+02  0.197561950684E+02  0.103884494305E+01
  0.235196590424E+02  0.547033166885E+01 -0.101516798139E+00
  0.235196590424E+02  0.547033166885E+01  0.101516798139E+00
  0.244706325531E+02  0.547033166885E+01  0.000000000000E+00
  0.265585327148E+02  0.113820018768E+02 -0.411069482565E+00
  0.265585327148E+02  0.113820018768E+02  0.411069482565E+00
  0.291514320374E+02  0.197561950684E+02 -0.980761349201E+00
  0.291514320374E+02  0.197561950684E+02  0.980761349201E+00
  0.292438049316E+02  0.292438049316E+02  0.000000000000E+00
  0.294313278198E+02  0.113820018768E+02 -0.101516798139E+00
  0.294313278198E+02  0.113820018768E+02  0.101516798139E+00
  0.299947986603E+02  0.292438049316E+02 -0.543790996075E+00
  0.299947986603E+02  0.292438049316E+02  0.543790996075E+00
  0.303823032379E+02  0.113820018768E+02  0.000000000000E+00
  0.328362693787E+02  0.292438049316E+02 -0.103884494305E+01
  0.328362693787E+02  0.292438049316E+02  0.103884494305E+01
  0.349327239990E+02  0.197561950684E+02 -0.411069482565E+00
  0.349327239990E+02  0.197561950684E+02  0.411069482565E+00
  0.376179962158E+02  0.376179962158E+02  0.000000000000E+00
  0.378055191040E+02  0.197561950684E+02 -0.101516798139E+00
  0.378055191040E+02  0.197561950684E+02  0.101516798139E+00
  0.383689918518E+02  0.376179962158E+02 -0.543790996075E+00
  0.383689918518E+02  0.376179962158E+02  0.543790996075E+00
  0.386390419006E+02  0.292438049316E+02 -0.980761349201E+00
  0.386390419006E+02  0.292438049316E+02  0.980761349201E+00
  0.387564964294E+02  0.197561950684E+02  0.000000000000E+00
  0.412104606628E+02  0.376179962158E+02 -0.103884494305E+01
  0.412104606628E+02  0.376179962158E+02  0.103884494305E+01
  0.435296669006E+02  0.435296669006E+02  0.000000000000E+00
  0.442806625366E+02  0.435296669006E+02 -0.543790996075E+00
  0.442806625366E+02  0.435296669006E+02  0.543790996075E+00
  0.444203338623E+02  0.292438049316E+02 -0.411069482565E+00
  0.444203338623E+02  0.292438049316E+02  0.411069482565E+00
  0.470132331848E+02  0.376179962158E+02 -0.980761349201E+00
  0.470132331848E+02  0.376179962158E+02  0.980761349201E+00
  0.470762481689E+02  0.470762481689E+02  0.000000000000E+00
  0.471221313477E+02  0.435296669006E+02 -0.103884494305E+01
  0.471221313477E+02  0.435296669006E+02  0.103884494305E+01
  0.472931327820E+02  0.292438049316E+02 -0.101516798139E+00
  0.472931327820E+02  0.292438049316E+02  0.101516798139E+00
  0.478272399902E+02  0.470762481689E+02 -0.543790996075E+00
  0.478272399902E+02  0.470762481689E+02  0.543790996075E+00
  0.482441062927E+02  0.292438049316E+02  0.000000000000E+00
  0.490000000000E+02  0.490000000000E+02  0.000000000000E+00
  0.497509918213E+02  0.490000000000E+02 -0.543790996075E+00
  0.497509918213E+02  0.490000000000E+02  0.543790996075E+00
  0.501355133057E+02  0.493845176697E+02 -0.384518325329E+00
  0.501355133057E+02  0.493845176697E+02  0.384518325329E+00
  0.502947845459E+02  0.495437927246E+02 -0.938680429840E-15
  0.506687088013E+02  0.470762481689E+02 -0.103884494305E+01
  0.506687088013E+02  0.470762481689E+02  0.103884494305E+01
  0.525924644470E+02  0.490000000000E+02 -0.103884494305E+01
  0.525924644470E+02  0.490000000000E+02  0.103884494305E+01
  0.527945289612E+02  0.376179962158E+02 -0.411069482565E+00
  0.527945289612E+02  0.376179962158E+02  0.411069482565E+00
  0.529249038696E+02  0.435296669006E+02 -0.980761349201E+00
  0.529249038696E+02  0.435296669006E+02  0.980761349201E+00
  0.533270378113E+02  0.497345733643E+02 -0.734574317932E+00
  0.533270378113E+02  0.497345733643E+02  0.734574317932E+00
  0.536313095093E+02  0.500388450623E+02 -0.204183803501E-15
  0.556673240662E+02  0.376179962158E+02 -0.101516798139E+00
  0.556673240662E+02  0.376179962158E+02  0.101516798139E+00
  0.564714813232E+02  0.470762481689E+02 -0.980761349201E+00
  0.564714813232E+02  0.470762481689E+02  0.980761349201E+00
  0.566182975769E+02  0.376179962158E+02  0.000000000000E+00
  0.583952369690E+02  0.490000000000E+02 -0.980761349201E+00
  0.583952369690E+02  0.490000000000E+02  0.980761349201E+00
  0.587061996460E+02  0.435296669006E+02 -0.411069482565E+00
  0.587061996460E+02  0.435296669006E+02  0.411069482565E+00
  0.590887413025E+02  0.496935043335E+02 -0.693503022194E+00
  0.590887413025E+02  0.496935043335E+02  0.693503022194E+00
  0.593759994507E+02  0.499807624817E+02  0.000000000000E+00
  0.615789947510E+02  0.435296669006E+02 -0.101516798139E+00
  0.615789947510E+02  0.435296669006E+02  0.101516798139E+00
  0.622527770996E+02  0.470762481689E+02 -0.411069482565E+00
  0.622527770996E+02  0.470762481689E+02  0.411069482565E+00
  0.625299682617E+02  0.435296669006E+02  0.000000000000E+00
  0.641765289307E+02  0.490000000000E+02 -0.411069482565E+00
  0.641765289307E+02  0.490000000000E+02  0.411069482565E+00
  0.644672012329E+02  0.492906684875E+02 -0.290670007467E+00
  0.644672012329E+02  0.492906684875E+02  0.290670007467E+00
  0.645876007080E+02  0.494110679626E+02  0.400788329721E-15
  0.651255722046E+02  0.470762481689E+02 -0.101516798139E+00
  0.651255722046E+02  0.470762481689E+02  0.101516798139E+00
  0.660765457153E+02  0.470762481689E+02  0.000000000000E+00
  0.670493240356E+02  0.490000000000E+02 -0.101516798139E+00
  0.670493240356E+02  0.490000000000E+02  0.101516798139E+00
  0.671211090088E+02  0.490717849731E+02 -0.717832148075E-01
  0.671211090088E+02  0.490717849731E+02  0.717832148075E-01
  0.671508407593E+02  0.491015167236E+02 -0.511051538462E-16
  0.680002975464E+02  0.490000000000E+02  0.000000000000E+00
  0.190003013611E+02  0.000000000000E+00  0.000000000000E+00
  0.209240550995E+02  0.192375373840E+01  0.000000000000E+00
  0.244706325531E+02  0.547033166885E+01  0.000000000000E+00
  0.303823032379E+02  0.113820018768E+02  0.000000000000E+00
  0.387564964294E+02  0.197561950684E+02  0.000000000000E+00
  0.482441062927E+02  0.292438049316E+02  0.000000000000E+00
  0.566182975769E+02  0.376179962158E+02  0.000000000000E+00
  0.625299682617E+02  0.435296669006E+02  0.000000000000E+00
  0.660765457153E+02  0.470762481689E+02  0.000000000000E+00
POLYGONS                 256                1024
3                 135                  34                 136
3                  32                  30                  34
3                  30                  28                  34
3                  30                  26                  28
3                  26                  17                  28
3                  26                  15                  17
3                  15                   6                  17
3                  17                   6                   9
3                   6                   1                   9
3                   9                   1                   4
3                   1                   0                   4
3                   4                   0                   3
3                   0                   5                   3
3                   0                   2                   5
3                   2                  10                   5
3                   2                   7                  10
[...]
CELL_DATA                 256
SCALARS sigma float 1
LOOKUP_TABLE default
  0.000000000000E+00
  0.000000000000E+00
  0.000000000000E+00
  0.000000000000E+00
  0.000000000000E+00
  0.000000000000E+00
  0.000000000000E+00
  0.000000000000E+00
  0.000000000000E+00
  0.000000000000E+00
  0.000000000000E+00
  0.000000000000E+00
  0.000000000000E+00
  0.000000000000E+00
  0.000000000000E+00
  0.000000000000E+00
  0.000000000000E+00
  0.000000000000E+00
  0.000000000000E+00
  0.000000000000E+00
  0.000000000000E+00
  0.000000000000E+00
  0.000000000000E+00
  0.000000000000E+00
  0.000000000000E+00
  0.000000000000E+00
  0.000000000000E+00
  0.000000000000E+00
  0.000000000000E+00
  0.000000000000E+00
  0.000000000000E+00
  0.000000000000E+00
  0.000000000000E+00
  0.000000000000E+00
  0.000000000000E+00
  0.000000000000E+00
  0.000000000000E+00
  0.000000000000E+00
  0.000000000000E+00
  0.000000000000E+00
  0.000000000000E+00
  0.000000000000E+00
  0.000000000000E+00
  0.000000000000E+00
  0.000000000000E+00
  0.000000000000E+00
  0.000000000000E+00
  0.000000000000E+00
  0.000000000000E+00
  0.000000000000E+00
  0.000000000000E+00
  0.000000000000E+00
  0.000000000000E+00
  0.000000000000E+00
  0.000000000000E+00
  0.000000000000E+00
  0.000000000000E+00
  0.000000000000E+00
  0.000000000000E+00
  0.000000000000E+00
  0.000000000000E+00
  0.000000000000E+00
  0.000000000000E+00
  0.000000000000E+00
  0.000000000000E+00
  0.000000000000E+00
  0.000000000000E+00
  0.000000000000E+00
  0.000000000000E+00
  0.000000000000E+00
  0.000000000000E+00
  0.000000000000E+00
  0.000000000000E+00
  0.000000000000E+00
  0.000000000000E+00
  0.000000000000E+00
  0.000000000000E+00
  0.000000000000E+00
  0.000000000000E+00
  0.000000000000E+00
  0.000000000000E+00
  0.000000000000E+00
  0.000000000000E+00
  0.000000000000E+00
  0.000000000000E+00
  0.000000000000E+00
  0.000000000000E+00
  0.000000000000E+00
  0.000000000000E+00
  0.000000000000E+00
  0.000000000000E+00
  0.000000000000E+00
  0.000000000000E+00
  0.000000000000E+00
  0.000000000000E+00
  0.000000000000E+00
  0.000000000000E+00
  0.000000000000E+00
  0.000000000000E+00
  0.000000000000E+00
  0.000000000000E+00
  0.000000000000E+00
  0.000000000000E+00
  0.000000000000E+00
  0.000000000000E+00
  0.000000000000E+00
  0.000000000000E+00
  0.000000000000E+00
  0.000000000000E+00
  0.000000000000E+00
  0.000000000000E+00
  0.000000000000E+00
  0.000000000000E+00
  0.000000000000E+00
  0.000000000000E+00
  0.000000000000E+00
  0.000000000000E+00
  0.000000000000E+00
  0.000000000000E+00
  0.000000000000E+00
  0.000000000000E+00
  0.000000000000E+00
  0.000000000000E+00
  0.000000000000E+00
  0.000000000000E+00
  0.000000000000E+00
  0.000000000000E+00
  0.000000000000E+00
  0.000000000000E+00
  0.000000000000E+00
  0.000000000000E+00
  0.000000000000E+00
  0.000000000000E+00
  0.000000000000E+00
  0.000000000000E+00
  0.000000000000E+00
  0.000000000000E+00
  0.000000000000E+00
  0.000000000000E+00
  0.000000000000E+00
  0.000000000000E+00
  0.000000000000E+00
  0.000000000000E+00
  0.000000000000E+00
  0.000000000000E+00
  0.000000000000E+00
  0.000000000000E+00
  0.000000000000E+00
  0.000000000000E+00
  0.000000000000E+00
  0.000000000000E+00
  0.000000000000E+00
  0.000000000000E+00
  0.000000000000E+00
  0.000000000000E+00
  0.000000000000E+00
  0.000000000000E+00
  0.000000000000E+00
  0.000000000000E+00
  0.000000000000E+00
  0.000000000000E+00
  0.000000000000E+00
  0.000000000000E+00
  0.000000000000E+00
  0.000000000000E+00
  0.000000000000E+00
  0.000000000000E+00
  0.000000000000E+00
  0.000000000000E+00
  0.000000000000E+00
  0.000000000000E+00
  0.000000000000E+00
  0.000000000000E+00
  0.000000000000E+00
  0.000000000000E+00
  0.000000000000E+00
  0.000000000000E+00
  0.000000000000E+00
  0.000000000000E+00
  0.000000000000E+00
  0.000000000000E+00
  0.000000000000E+00
  0.000000000000E+00
  0.000000000000E+00
  0.000000000000E+00
  0.000000000000E+00
  0.000000000000E+00
  0.000000000000E+00
  0.000000000000E+00
  0.000000000000E+00
  0.000000000000E+00
  0.000000000000E+00
  0.000000000000E+00
  0.000000000000E+00
  0.000000000000E+00
  0.000000000000E+00
  0.000000000000E+00
  0.000000000000E+00
  0.000000000000E+00
  0.000000000000E+00
  0.000000000000E+00
  0.000000000000E+00
  0.000000000000E+00
  0.000000000000E+00
  0.000000000000E+00
  0.000000000000E+00
  0.000000000000E+00
  0.000000000000E+00
  0.000000000000E+00
  0.000000000000E+00
  0.000000000000E+00
  0.000000000000E+00
  0.000000000000E+00
  0.000000000000E+00
  0.000000000000E+00
  0.000000000000E+00
  0.000000000000E+00
  0.000000000000E+00
  0.000000000000E+00
  0.000000000000E+00
  0.000000000000E+00
  0.000000000000E+00
  0.000000000000E+00
  0.000000000000E+00
  0.000000000000E+00
  0.000000000000E+00
  0.000000000000E+00
  0.000000000000E+00
  0.000000000000E+00
  0.000000000000E+00
  0.000000000000E+00
  0.000000000000E+00
  0.000000000000E+00
  0.000000000000E+00
  0.000000000000E+00
  0.000000000000E+00
  0.000000000000E+00
  0.000000000000E+00
  0.000000000000E+00
  0.000000000000E+00
  0.000000000000E+00
  0.000000000000E+00
  0.000000000000E+00
  0.000000000000E+00
  0.000000000000E+00
  0.000000000000E+00
  0.000000000000E+00
  0.000000000000E+00
  0.000000000000E+00
  0.000000000000E+00
  0.000000000000E+00
  0.000000000000E+00
  0.000000000000E+00
  0.000000000000E+00
  0.000000000000E+00
  0.000000000000E+00
SCALARS C_p_inc float 1
LOOKUP_TABLE default
 -0.288061566985E+00
 -0.720384806630E+00
 -0.174057145368E+00
 -0.173027183137E+00
 -0.165748518942E+00
 -0.176703776471E+00
 -0.125196092471E+00
 -0.157041426209E+00
  0.938142568053E-01
 -0.249220894805E-01
  0.521003190524E+00
  0.489430200425E+00
  0.193022080161E-01
  0.295795427912E+00
 -0.357175680065E+00
 -0.184953478474E+00
 -0.275415490856E+00
 -0.277620496212E+00
 -0.162508164295E+00
 -0.972638576172E-01
  0.785829624087E-01
  0.173851640412E+00
  0.512510799924E+00
  0.389589002232E+00
 -0.211134326411E+00
 -0.279588870666E+00
 -0.124745125512E+00
 -0.176557732586E+00
 -0.155647373093E+00
 -0.167182330005E+00
 -0.156662192284E+00
 -0.179764542274E+00
 -0.213607963157E-01
 -0.587825055091E-01
  0.419374332518E+00
  0.418522137363E+00
 -0.104969891186E+00
 -0.879922246197E-02
 -0.416600892650E+00
 -0.346135385659E+00
 -0.270618346682E+00
 -0.284423277881E+00
 -0.950840973386E-01
 -0.456861830774E-01
  0.167194422764E+00
  0.163384842290E+00
  0.381080993233E+00
  0.357029741023E+00
 -0.188845060289E+00
 -0.209961075957E+00
 -0.107334786635E+00
 -0.124624559375E+00
 -0.142148170668E+00
 -0.156870761207E+00
 -0.180511365245E+00
 -0.180487315783E+00
 -0.586142739108E-01
 -0.701867389232E-01
  0.413088216297E+00
  0.413115331954E+00
 -0.133000902039E+00
 -0.107273742995E+00
 -0.428156598799E+00
 -0.417464212402E+00
 -0.254133743317E+00
 -0.277355269154E+00
 -0.449771428269E-01
 -0.318989799922E-01
  0.162053026317E+00
  0.160166203254E+00
  0.355749339100E+00
  0.350072362994E+00
 -0.179782431574E+00
 -0.188400389492E+00
 -0.101133561765E+00
 -0.107297984456E+00
 -0.136780382756E+00
 -0.142353106537E+00
 -0.181819689966E+00
 -0.178116434444E+00
 -0.703198654181E-01
 -0.700599277092E-01
  0.416516910721E+00
  0.415888773970E+00
 -0.127099218347E+00
 -0.131874556643E+00
 -0.422594261092E+00
 -0.430757213510E+00
 -0.248729351730E+00
 -0.256833025499E+00
 -0.318317317768E-01
 -0.290503159660E-01
  0.159976601836E+00
  0.159931401944E+00
  0.349946042073E+00
  0.348108082763E+00
 -0.168592693090E+00
 -0.179351684116E+00
 -0.956210679005E-01
 -0.101052270040E+00
 -0.134108016666E+00
 -0.136698967378E+00
 -0.178464937107E+00
 -0.177682091154E+00
 -0.701282944182E-01
 -0.706460731170E-01
  0.417290076421E+00
  0.416321324753E+00
 -0.121289424271E+00
 -0.126578851249E+00
 -0.418728720655E+00
 -0.423425084219E+00
 -0.246266139613E+00
 -0.249247248738E+00
 -0.290326808948E-01
 -0.273009836718E-01
  0.159884847316E+00
  0.160467939388E+00
  0.348120731747E+00
  0.346318363658E+00
 -0.128151485732E+00
 -0.168137659224E+00
 -0.762851482819E-01
 -0.953380410888E-01
 -0.129433540062E+00
 -0.133635109912E+00
 -0.177156467709E+00
 -0.180813874735E+00
 -0.705659275097E-01
 -0.753759138635E-01
  0.415118576319E+00
  0.412815845907E+00
 -0.115972294441E+00
 -0.121500910950E+00
 -0.415057613476E+00
 -0.418476208962E+00
 -0.243480769088E+00
 -0.246131392405E+00
 -0.272659344887E-01
 -0.226663038335E-01
  0.160401824143E+00
  0.166584627491E+00
  0.346785012526E+00
  0.346519202890E+00
  0.116353832059E+00
 -0.127750251225E+00
 -0.813188240627E-02
 -0.755387753893E-01
 -0.118321807274E+00
 -0.127894007725E+00
 -0.178378011737E+00
 -0.194846788036E+00
 -0.750732511187E-01
 -0.927640079416E-01
  0.407579268237E+00
  0.401734046086E+00
 -0.109416833763E+00
 -0.117158045757E+00
 -0.413039635877E+00
 -0.413401015920E+00
 -0.241172905063E+00
 -0.242332551293E+00
 -0.226021577947E-01
 -0.123318055673E-01
  0.165838031233E+00
  0.197979377193E+00
  0.348875459484E+00
  0.431721528202E+00
 -0.230945880772E+02
 -0.956688862506E+00
  0.296059195940E+00
 -0.645424161365E-01
 -0.363485146518E+00
 -0.117035192862E+00
 -0.189755994532E+00
 -0.210151373000E+00
 -0.925945813644E-01
 -0.137977974100E+00
  0.386190807902E+00
  0.374149092677E+00
 -0.103649545272E+00
 -0.113038908167E+00
 -0.415452961716E+00
 -0.408161983401E+00
 -0.229225472630E+00
 -0.238986257233E+00
 -0.125969505052E-01
 -0.253906413771E+00
  0.111809776785E+00
  0.892835893093E-01
 -0.159076001530E+00
 -0.208443671030E+02
 -0.968003698657E+08
 -0.309464323747E+05
 -0.181502614062E+05
  0.482350533859E+00
 -0.121101989021E+01
 -0.357515253636E+00
 -0.211149661717E+00
 -0.236382278148E+00
 -0.142270882812E+00
 -0.144980319262E+00
  0.299819630647E+00
  0.268787234409E+00
 -0.127673493629E+00
 -0.123094904253E+00
 -0.321147385728E+00
 -0.411893368295E+00
 -0.238013012115E+00
 -0.225764930045E+00
 -0.250237024025E+00
 -0.133355396752E+01
  0.348710183494E+00
 -0.181363696720E+05
 -0.309839224159E+05
 -0.968018676170E+08
 -0.172054415393E+09
 -0.784759210201E+06
 -0.312467613414E+05
 -0.827095174953E+02
  0.964656659351E-01
 -0.283186400353E+00
 -0.277138296912E+00
 -0.187561135989E+00
 -0.190750931916E+00
  0.195620821753E-02
 -0.211010337364E+00
 -0.254412278466E+00
 -0.325271224983E+00
 -0.283692435872E+00
 -0.235041013151E+00
  0.468450671124E+00
 -0.876195245757E+02
 -0.312973974326E+05
 -0.784334409921E+06
 -0.172050836132E+09
 -0.118789506348E+09
 -0.112110560987E+07
 -0.327025560364E+05
 -0.106468890282E+03
  0.273382170865E+00
 -0.340023661999E+00
 -0.324328943223E+00
 -0.223810870211E+00
 -0.227578419487E+00
 -0.127150396864E+00
 -0.200573254686E+00
 -0.250156808001E+00
 -0.261462365112E+00
 -0.334551460269E+00
 -0.275646732051E+00
  0.735733694506E+00
 -0.115250662425E+03
 -0.327575778072E+05
 -0.112025184856E+07
 -0.118785900743E+09
SCALARS inclination float 1
LOOKUP_TABLE default
  0.100000000000E+01
  0.100000000000E+01
  0.100000000000E+01
  0.100000000000E+01
  0.100000000000E+01
  0.100000000000E+01
  0.100000000000E+01
  0.100000000000E+01
  0.100000000000E+01
  0.100000000000E+01
  0.100000000000E+01
  0.100000000000E+01
  0.100000000000E+01
  0.100000000000E+01
  0.100000000000E+01
  0.100000000000E+01
  0.100000000000E+01
  0.100000000000E+01
  0.100000000000E+01
  0.100000000000E+01
  0.100000000000E+01
  0.100000000000E+01
  0.100000000000E+01
  0.100000000000E+01
  0.100000000000E+01
  0.100000000000E+01
  0.100000000000E+01
  0.100000000000E+01
  0.100000000000E+01
  0.100000000000E+01
  0.100000000000E+01
  0.100000000000E+01
  0.100000000000E+01
  0.100000000000E+01
  0.100000000000E+01
  0.100000000000E+01
  0.100000000000E+01
  0.100000000000E+01
  0.100000000000E+01
  0.100000000000E+01
  0.100000000000E+01
  0.100000000000E+01
  0.100000000000E+01
  0.100000000000E+01
  0.100000000000E+01
  0.100000000000E+01
  0.100000000000E+01
  0.100000000000E+01
  0.100000000000E+01
  0.100000000000E+01
  0.100000000000E+01
  0.100000000000E+01
  0.100000000000E+01
  0.100000000000E+01
  0.100000000000E+01
  0.100000000000E+01
  0.100000000000E+01
  0.100000000000E+01
  0.100000000000E+01
  0.100000000000E+01
  0.100000000000E+01
  0.100000000000E+01
  0.100000000000E+01
  0.100000000000E+01
  0.100000000000E+01
  0.100000000000E+01
  0.100000000000E+01
  0.100000000000E+01
  0.100000000000E+01
  0.100000000000E+01
  0.100000000000E+01
  0.100000000000E+01
  0.100000000000E+01
  0.100000000000E+01
  0.100000000000E+01
  0.100000000000E+01
  0.100000000000E+01
  0.100000000000E+01
  0.100000000000E+01
  0.100000000000E+01
  0.100000000000E+01
  0.100000000000E+01
  0.100000000000E+01
  0.100000000000E+01
  0.100000000000E+01
  0.100000000000E+01
  0.100000000000E+01
  0.100000000000E+01
  0.100000000000E+01
  0.100000000000E+01
  0.100000000000E+01
  0.100000000000E+01
  0.100000000000E+01
  0.100000000000E+01
  0.100000000000E+01
  0.100000000000E+01
  0.100000000000E+01
  0.100000000000E+01
  0.100000000000E+01
  0.100000000000E+01
  0.100000000000E+01
  0.100000000000E+01
  0.100000000000E+01
  0.100000000000E+01
  0.100000000000E+01
  0.100000000000E+01
  0.100000000000E+01
  0.100000000000E+01
  0.100000000000E+01
  0.100000000000E+01
  0.100000000000E+01
  0.100000000000E+01
  0.100000000000E+01
  0.100000000000E+01
  0.100000000000E+01
  0.100000000000E+01
  0.100000000000E+01
  0.100000000000E+01
  0.100000000000E+01
  0.100000000000E+01
  0.100000000000E+01
  0.100000000000E+01
  0.100000000000E+01
  0.100000000000E+01
  0.100000000000E+01
  0.100000000000E+01
  0.100000000000E+01
  0.100000000000E+01
  0.100000000000E+01
  0.100000000000E+01
  0.100000000000E+01
  0.100000000000E+01
  0.100000000000E+01
  0.100000000000E+01
  0.100000000000E+01
  0.100000000000E+01
  0.100000000000E+01
  0.100000000000E+01
  0.100000000000E+01
  0.100000000000E+01
  0.100000000000E+01
  0.100000000000E+01
  0.100000000000E+01
  0.100000000000E+01
  0.100000000000E+01
  0.100000000000E+01
  0.100000000000E+01
  0.100000000000E+01
  0.100000000000E+01
  0.100000000000E+01
  0.100000000000E+01
  0.100000000000E+01
  0.100000000000E+01
  0.100000000000E+01
  0.100000000000E+01
  0.100000000000E+01
  0.100000000000E+01
  0.100000000000E+01
  0.100000000000E+01
  0.100000000000E+01
  0.100000000000E+01
  0.100000000000E+01
  0.100000000000E+01
  0.100000000000E+01
  0.100000000000E+01
  0.100000000000E+01
  0.100000000000E+01
  0.100000000000E+01
  0.100000000000E+01
  0.100000000000E+01
  0.100000000000E+01
  0.100000000000E+01
  0.100000000000E+01
  0.100000000000E+01
  0.100000000000E+01
  0.100000000000E+01
  0.100000000000E+01
  0.100000000000E+01
  0.100000000000E+01
  0.100000000000E+01
  0.100000000000E+01
  0.100000000000E+01
  0.100000000000E+01
  0.100000000000E+01
  0.100000000000E+01
  0.100000000000E+01
  0.100000000000E+01
  0.100000000000E+01
  0.100000000000E+01
  0.100000000000E+01
  0.100000000000E+01
  0.100000000000E+01
  0.100000000000E+01
  0.100000000000E+01
  0.100000000000E+01
  0.100000000000E+01
  0.100000000000E+01
  0.100000000000E+01
  0.100000000000E+01
  0.100000000000E+01
  0.100000000000E+01
  0.100000000000E+01
  0.100000000000E+01
  0.100000000000E+01
  0.100000000000E+01
  0.100000000000E+01
  0.100000000000E+01
  0.100000000000E+01
  0.100000000000E+01
  0.100000000000E+01
  0.100000000000E+01
  0.100000000000E+01
  0.100000000000E+01
  0.100000000000E+01
  0.100000000000E+01
  0.100000000000E+01
  0.100000000000E+01
  0.100000000000E+01
  0.100000000000E+01
  0.100000000000E+01
  0.100000000000E+01
  0.100000000000E+01
  0.100000000000E+01
  0.100000000000E+01
  0.100000000000E+01
  0.100000000000E+01
  0.100000000000E+01
  0.100000000000E+01
  0.100000000000E+01
  0.100000000000E+01
  0.100000000000E+01
  0.100000000000E+01
  0.100000000000E+01
  0.100000000000E+01
  0.100000000000E+01
  0.100000000000E+01
  0.100000000000E+01
  0.100000000000E+01
  0.100000000000E+01
  0.100000000000E+01
  0.100000000000E+01
  0.100000000000E+01
  0.100000000000E+01
  0.100000000000E+01
  0.100000000000E+01
  0.100000000000E+01
  0.100000000000E+01
  0.100000000000E+01
  0.100000000000E+01
  0.100000000000E+01
  0.100000000000E+01
  0.100000000000E+01
  0.100000000000E+01
  0.100000000000E+01
  0.100000000000E+01
  0.100000000000E+01
VECTORS v float
  0.182108560570E+03 -0.239788591707E+02  0.219998693874E+02
  0.208878149390E+03 -0.372615482495E+02  0.262754573080E+02
  0.175512471218E+03 -0.389587007709E+01  0.193318115725E+02
  0.175434082220E+03 -0.393521944858E+01  0.193275987242E+02
  0.175071743262E+03 -0.357288031134E+01  0.176037392983E+02
  0.175935765946E+03 -0.186495479486E+01  0.175205833664E+02
  0.172890100386E+03  0.118071076595E+01  0.171874710045E+01
  0.175145541133E+03 -0.788141698820E+01  0.183203175011E+01
  0.152590172849E+03  0.146739512964E+02 -0.240283855946E+02
  0.161961341923E+03 -0.100683174198E+02 -0.299717817650E+02
  0.929939163560E+02  0.588991060108E+02 -0.246879132948E+02
  0.997871080147E+02  0.452749387408E+02 -0.394720407502E+02
  0.134105983665E+03  0.109560630908E+02  0.891723581729E+02
  0.117952097479E+03  0.433536845399E+02  0.540164050342E+02
  0.184887818631E+03 -0.235820345385E+02  0.363205563336E+02
  0.174862660383E+03  0.288693181179E+01  0.299623863859E+02
  0.183967990805E+03 -0.621839860937E+01 -0.190369499347E+01
  0.184107317214E+03 -0.677819772029E+01 -0.191069297980E+01
  0.174905476796E+03  0.242364269784E+01 -0.169964572748E+02
  0.169657591096E+03 -0.794992104622E+01 -0.175015419833E+02
  0.155511657197E+03  0.619601986591E+01 -0.160892226484E+02
  0.147311619206E+03  0.207990371516E+01 -0.156491729311E+02
  0.104303436176E+03  0.450880867452E+02 -0.632124927778E+01
  0.121683594423E+03  0.364461069768E+02 -0.909911722454E+01
  0.177520128100E+03 -0.155117774857E+02  0.206062319944E+02
  0.182155232628E+03 -0.188766554595E+02  0.214601912804E+02
  0.171577422895E+03 -0.829884146051E+01  0.193822192420E+02
  0.175453976721E+03 -0.899233099179E+01  0.198746681277E+02
  0.174139185496E+03 -0.767753994376E+01  0.179163196787E+02
  0.175037764223E+03 -0.710616184876E+01  0.179485622158E+02
  0.175145607996E+03 -0.721400560805E+01  0.182535187009E+01
  0.176677624192E+03 -0.112535601200E+02  0.188112155382E+01
  0.162348558290E+03  0.307550770802E+01 -0.277492679319E+02
  0.165154961816E+03 -0.217529549752E+01 -0.291530284177E+02
  0.104372845981E+03  0.586068244238E+02 -0.331389877970E+02
  0.104519226287E+03  0.583890151024E+02 -0.334026882784E+02
  0.144116908955E+03  0.187913324336E+02  0.907477130149E+02
  0.139277797069E+03  0.259918191575E+02  0.820299160194E+02
  0.188955415108E+03 -0.236858022215E+02  0.370473074752E+02
  0.185097413778E+03 -0.164674511998E+02  0.351175387138E+02
  0.183150986291E+03 -0.145210234517E+02 -0.197862361244E+01
  0.183966943485E+03 -0.166725043304E+02 -0.200832619625E+01
  0.169710806517E+03 -0.241636927887E+01 -0.169615062155E+02
  0.165757745649E+03 -0.492999699092E+01 -0.168196636500E+02
  0.147441388743E+03  0.133863574525E+02 -0.144448503416E+02
  0.147785519507E+03  0.133247937685E+02 -0.144885547983E+02
  0.121716803708E+03  0.393935200825E+02 -0.878802374262E+01
  0.125001267534E+03  0.370070760189E+02 -0.939341525507E+01
  0.176056475690E+03 -0.134625645785E+02  0.202311919935E+02
  0.177513632459E+03 -0.146778320732E+02  0.205165144232E+02
  0.170289204547E+03 -0.745340590926E+01  0.191523236549E+02
  0.171579638691E+03 -0.810578788395E+01  0.193616555959E+02
  0.173006671591E+03 -0.953282089928E+01  0.179875417175E+02
  0.174121210171E+03 -0.954668567255E+01  0.180987352025E+02
  0.176677539091E+03 -0.121030147993E+02  0.188962342329E+01
  0.176675947372E+03 -0.120998602130E+02  0.188957558447E+01
  0.165200646392E+03 -0.624560157939E+00 -0.288908116849E+02
  0.166053259191E+03 -0.191830103452E+01 -0.292647689126E+02
  0.104833187746E+03  0.593017753500E+02 -0.329690971769E+02
  0.104828874090E+03  0.593072934624E+02 -0.329619605683E+02