# vtk DataFile Version 3.0
TriPan results file. Generated by TriPan, USU AeroLab (c) 2021.
ASCII
DATASET POLYDATA
POINTS                  20 float
  0.190000000000E+02  0.000000000000E+00  0.000000000000E+00
  0.997195814963E+04  0.000000000000E+00  0.748366682501E+03
  0.209237651825E+02  0.192375373840E+01  0.000000000000E+00
  0.997196896467E+04  0.192375373840E+01  0.748222847057E+03
  0.244703655243E+02  0.547033166885E+01  0.000000000000E+00
  0.997198890298E+04  0.547033166885E+01  0.747957676007E+03
  0.303820724487E+02  0.113820018768E+02  0.000000000000E+00
  0.997202213747E+04  0.113820018768E+02  0.747515671444E+03
  0.387563171387E+02  0.197561950684E+02  0.000000000000E+00
  0.997206921588E+04  0.197561950684E+02  0.746889548666E+03
  0.482439842224E+02  0.292438049316E+02  0.000000000000E+00
  0.997212255374E+04  0.292438049316E+02  0.746180177888E+03
  0.566182289124E+02  0.376179962158E+02  0.000000000000E+00
  0.997216963215E+04  0.376179962158E+02  0.745554055110E+03
  0.625299339294E+02  0.435296669006E+02  0.000000000000E+00
  0.997220286663E+04  0.435296669006E+02  0.745112050690E+03
  0.660765380859E+02  0.470762481689E+02  0.000000000000E+00
  0.997222280496E+04  0.470762481689E+02  0.744846879355E+03
  0.680002975464E+02  0.490000000000E+02  0.000000000000E+00
  0.997223361997E+04  0.490000000000E+02  0.744703044339E+03
POLYGONS                  18                  72
3                   0                   1                   3
3                   0                   3                   2
3                   2                   3                   5
3                   2                   5                   4
3                   4                   5                   7
3                   4                   7                   6
3                   6                   7                   9
3                   6                   9                   8
3                   8                   9                  11
3                   8                  11                  10
3                  10                  11                  13
3                  10                  13                  12
3                  12                  13                  15
3                  12                  15                  14
3                  14                  15                  17
3                  14                  17                  16
3                  16                  17                  19
3                  16                  19                  18
POINT_DATA                  20
SCALARS mu float 1
LOOKUP_TABLE default
 -0.245417409429E-03
 -0.245417409429E-03
 -0.565484523086E-04
 -0.565484523086E-04
 -0.808145160059E-04
 -0.808145160059E-04
 -0.108923488207E-03
 -0.108923488207E-03
 -0.124726352436E-03
 -0.124726352436E-03
 -0.114698017737E-03
 -0.114698017737E-03
 -0.816775089711E-04
 -0.816775089711E-04
 -0.427091390076E-04
 -0.427091390076E-04
 -0.120987371155E-04
 -0.120987371155E-04
  0.000000000000E+00
  0.000000000000E+00
