# vtk DataFile Version 3.0
TriPan results file. Generated by TriPan, USU AeroLab (c) 2021.
ASCII
DATASET POLYDATA
POINTS                  50 float
  0.190003013611E+02  0.000000000000E+00  0.000000000000E+00
  0.998253294268E+02  0.000000000000E+00  0.607726438785E+01
  0.195801982880E+02  0.579897820950E+00  0.000000000000E+00
  0.998285894968E+02  0.579897820950E+00  0.603390684479E+01
  0.203216114044E+02  0.132131123543E+01  0.000000000000E+00
  0.998327575801E+02  0.132131123543E+01  0.597847311229E+01
  0.212622661591E+02  0.226196575165E+01  0.000000000000E+00
  0.998380457619E+02  0.226196575165E+01  0.590814254639E+01
  0.224441299438E+02  0.344382953644E+01  0.000000000000E+00
  0.998446899749E+02  0.344382953644E+01  0.581977734291E+01
  0.239110069275E+02  0.491070652008E+01  0.000000000000E+00
  0.998529364778E+02  0.491070652008E+01  0.571010236614E+01
  0.257042465210E+02  0.670394468307E+01  0.000000000000E+00
  0.998630177292E+02  0.670394468307E+01  0.557602601689E+01
  0.278562793732E+02  0.885597801208E+01  0.000000000000E+00
  0.998751160479E+02  0.885597801208E+01  0.541512353107E+01
  0.303823032379E+02  0.113820018768E+02  0.000000000000E+00
  0.998893168728E+02  0.113820018768E+02  0.522625860799E+01
  0.332713356018E+02  0.142710342407E+02  0.000000000000E+00
  0.999055584623E+02  0.142710342407E+02  0.501025238461E+01
  0.364790649414E+02  0.174787635803E+02  0.000000000000E+00
  0.999235917055E+02  0.174787635803E+02  0.477041793037E+01
  0.399255523682E+02  0.209252490997E+02  0.000000000000E+00
  0.999429672012E+02  0.209252490997E+02  0.451273208985E+01
  0.435003013611E+02  0.245000000000E+02  0.000000000000E+00
  0.999630637589E+02  0.245000000000E+02  0.424545643066E+01
  0.470750503540E+02  0.280747509003E+02  0.000000000000E+00
  0.999831603167E+02  0.280747509003E+02  0.397818077148E+01
  0.505215377808E+02  0.315212364197E+02  0.000000000000E+00
  0.100002535812E+03  0.315212364197E+02  0.372049493095E+01
  0.537292671204E+02  0.347289657593E+02  0.000000000000E+00
  0.100020569056E+03  0.347289657593E+02  0.348066047672E+01
  0.566182975769E+02  0.376179962158E+02  0.000000000000E+00
  0.100036810634E+03  0.376179962158E+02  0.326465439595E+01
  0.591443214417E+02  0.401440200806E+02  0.000000000000E+00
  0.100051011459E+03  0.401440200806E+02  0.307578947287E+01
  0.612963562012E+02  0.422960548401E+02  0.000000000000E+00
  0.100063109789E+03  0.422960548401E+02  0.291488684444E+01
  0.630895957947E+02  0.440892944336E+02  0.000000000000E+00
  0.100073191040E+03  0.440892944336E+02  0.278081049519E+01
  0.645564727783E+02  0.455561714172E+02  0.000000000000E+00
  0.100081437543E+03  0.455561714172E+02  0.267113551842E+01
  0.657383346558E+02  0.467380332947E+02  0.000000000000E+00
  0.100088081745E+03  0.467380332947E+02  0.258277045755E+01
  0.666789932251E+02  0.476786880493E+02  0.000000000000E+00
  0.100093369949E+03  0.476786880493E+02  0.251243960643E+01
  0.674204025269E+02  0.484201011658E+02  0.000000000000E+00
  0.100097538010E+03  0.484201011658E+02  0.245700615915E+01
  0.680002975464E+02  0.490000000000E+02  0.000000000000E+00
  0.100100798070E+03  0.490000000000E+02  0.241364875870E+01
POLYGONS                  48                 192
3                   0                   1                   3
3                   0                   3                   2
3                   2                   3                   5
3                   2                   5                   4
3                   4                   5                   7
3                   4                   7                   6
3                   6                   7                   9
3                   6                   9                   8
3                   8                   9                  11
3                   8                  11                  10
3                  10                  11                  13
3                  10                  13                  12
3                  12                  13                  15
3                  12                  15                  14
3                  14                  15                  17
3                  14                  17                  16
3                  16                  17                  19
3                  16                  19                  18
3                  18                  19                  21
3                  18                  21                  20
3                  20                  21                  23
3                  20                  23                  22
3                  22                  23                  25
3                  22                  25                  24
3                  24                  25                  27
3                  24                  27                  26
3                  26                  27                  29
3                  26                  29                  28
3                  28                  29                  31
3                  28                  31                  30
3                  30                  31                  33
3                  30                  33                  32
3                  32                  33                  35
3                  32                  35                  34
3                  34                  35                  37
3                  34                  37                  36
3                  36                  37                  39
3                  36                  39                  38
3                  38                  39                  41
3                  38                  41                  40
3                  40                  41                  43
3                  40                  43                  42
3                  42                  43                  45
3                  42                  45                  44
3                  44                  45                  47
3                  44                  47                  46
3                  46                  47                  49
3                  46                  49                  48
POINT_DATA                  50
SCALARS mu float 1
LOOKUP_TABLE default
 -0.523028858783E-03
 -0.523028858783E-03
 -0.521441268724E-04
 -0.521441268724E-04
 -0.529554668809E-04
 -0.529554668809E-04
 -0.593575819643E-04
 -0.593575819643E-04
 -0.681574257655E-04
 -0.681574257655E-04
 -0.788807113885E-04
 -0.788807113885E-04
 -0.910294581118E-04
 -0.910294581118E-04
 -0.103736616964E-03
 -0.103736616964E-03
 -0.115905602087E-03
 -0.115905602087E-03
 -0.127281723152E-03
 -0.127281723152E-03
 -0.135611413320E-03
 -0.135611413320E-03
 -0.140694456270E-03
 -0.140694456270E-03
 -0.140464058667E-03
 -0.140464058667E-03
 -0.136175510626E-03
 -0.136175510626E-03
 -0.127180994909E-03
 -0.127180994909E-03
 -0.114291628314E-03
 -0.114291628314E-03
 -0.989303891004E-04
 -0.989303891004E-04
 -0.813638520256E-04
 -0.813638520256E-04
 -0.658542867384E-04
 -0.658542867384E-04
 -0.491790914694E-04
 -0.491790914694E-04
 -0.361088110168E-04
 -0.361088110168E-04
 -0.254061885698E-04
 -0.254061885698E-04
 -0.112501862191E-04
 -0.112501862191E-04
 -0.205702127502E-02
 -0.205702127502E-02
  0.000000000000E+00
  0.000000000000E+00
