# vtk DataFile Version 3.0
TriPan results file. Generated by TriPan, USU AeroLab (c) 2021.
ASCII
DATASET POLYDATA
POINTS                 144 float
  0.000000000000E+00  0.000000000000E+00  0.000000000000E+00
  0.113538098335E+01  0.000000000000E+00 -0.658124566078E+00
  0.113538098335E+01  0.000000000000E+00  0.658124566078E+00
  0.192375373840E+01  0.192375373840E+01  0.000000000000E+00
  0.305913543701E+01  0.192375373840E+01 -0.658124983311E+00
  0.305913543701E+01  0.192375373840E+01  0.658124983311E+00
  0.423028087616E+01  0.000000000000E+00 -0.108747220039E+01
  0.423028087616E+01  0.000000000000E+00  0.108747220039E+01
  0.547033166885E+01  0.547033166885E+01  0.000000000000E+00
  0.615403699875E+01  0.192375373840E+01 -0.108747279644E+01
  0.615403699875E+01  0.192375373840E+01  0.108747279644E+01
  0.660571479797E+01  0.547033166885E+01 -0.658125698566E+00
  0.660571479797E+01  0.547033166885E+01  0.658125698566E+00
  0.939508819580E+01  0.000000000000E+00 -0.980745851994E+00
  0.939508819580E+01  0.000000000000E+00  0.980745851994E+00
  0.970061969757E+01  0.547033166885E+01 -0.108747410774E+01
  0.970061969757E+01  0.547033166885E+01  0.108747410774E+01
  0.113188476562E+02  0.192375373840E+01 -0.980746448040E+00
  0.113188476562E+02  0.192375373840E+01  0.980746448040E+00
  0.113820018768E+02  0.113820018768E+02  0.000000000000E+00
  0.125173873901E+02  0.113820018768E+02 -0.658127009869E+00
  0.125173873901E+02  0.113820018768E+02  0.658127009869E+00
  0.145402030945E+02  0.000000000000E+00 -0.479613035917E+00
  0.145402030945E+02  0.000000000000E+00  0.479613035917E+00
  0.148654365540E+02  0.547033166885E+01 -0.980747580528E+00
  0.148654365540E+02  0.547033166885E+01  0.980747580528E+00
  0.156122989655E+02  0.113820018768E+02 -0.108747613430E+01
  0.156122989655E+02  0.113820018768E+02  0.108747613430E+01
  0.164639663696E+02  0.192375373840E+01 -0.479613333941E+00
  0.164639663696E+02  0.192375373840E+01  0.479613333941E+00
  0.176505107880E+02  0.000000000000E+00 -0.144198849797E+00
  0.176505107880E+02  0.000000000000E+00  0.144198849797E+00
  0.190000000000E+02  0.000000000000E+00  0.000000000000E+00
  0.195742740631E+02  0.192375373840E+01 -0.144198939204E+00
  0.195742740631E+02  0.192375373840E+01  0.144198939204E+00
  0.197561950684E+02  0.197561950684E+02  0.000000000000E+00
  0.200105609894E+02  0.547033166885E+01 -0.479613870382E+00
  0.200105609894E+02  0.547033166885E+01  0.479613870382E+00
  0.207771244049E+02  0.113820018768E+02 -0.980749428272E+00
  0.207771244049E+02  0.113820018768E+02  0.980749428272E+00
  0.208915824890E+02  0.197561950684E+02 -0.658128738403E+00
  0.208915824890E+02  0.197561950684E+02  0.658128738403E+00
  0.209237651825E+02  0.192375373840E+01  0.000000000000E+00
  0.231208724976E+02  0.547033166885E+01 -0.144199103117E+00
  0.231208724976E+02  0.547033166885E+01  0.144199103117E+00
  0.239865016937E+02  0.197561950684E+02 -0.108747911453E+01
  0.239865016937E+02  0.197561950684E+02  0.108747911453E+01
  0.244703655243E+02  0.547033166885E+01  0.000000000000E+00
  0.259222583771E+02  0.113820018768E+02 -0.479614794254E+00
  0.259222583771E+02  0.113820018768E+02  0.479614794254E+00
  0.290325775146E+02  0.113820018768E+02 -0.144199386239E+00
  0.290325775146E+02  0.113820018768E+02  0.144199386239E+00
  0.291513423920E+02  0.197561950684E+02 -0.980752110481E+00
  0.291513423920E+02  0.197561950684E+02  0.980752110481E+00
  0.292438049316E+02  0.292438049316E+02  0.000000000000E+00
  0.303791980743E+02  0.292438049316E+02 -0.658130764961E+00
  0.303791980743E+02  0.292438049316E+02  0.658130764961E+00
  0.303820724487E+02  0.113820018768E+02  0.000000000000E+00
  0.334741249084E+02  0.292438049316E+02 -0.108748245239E+01
  0.334741249084E+02  0.292438049316E+02  0.108748245239E+01
  0.342964897156E+02  0.197561950684E+02 -0.479616105556E+00
  0.342964897156E+02  0.197561950684E+02  0.479616105556E+00
  0.374068183899E+02  0.197561950684E+02 -0.144199773669E+00
  0.374068183899E+02  0.197561950684E+02  0.144199773669E+00
  0.376179962158E+02  0.376179962158E+02  0.000000000000E+00
  0.386389808655E+02  0.292438049316E+02 -0.980755090714E+00
  0.386389808655E+02  0.292438049316E+02  0.980755090714E+00
  0.387533912659E+02  0.376179962158E+02 -0.658132553101E+00
  0.387533912659E+02  0.376179962158E+02  0.658132553101E+00
  0.387563171387E+02  0.197561950684E+02  0.000000000000E+00
  0.418483314514E+02  0.376179962158E+02 -0.108748543262E+01
  0.418483314514E+02  0.376179962158E+02  0.108748543262E+01
  0.435296669006E+02  0.435296669006E+02  0.000000000000E+00
  0.437841453552E+02  0.292438049316E+02 -0.479617565870E+00
  0.437841453552E+02  0.292438049316E+02  0.479617565870E+00
  0.446650657654E+02  0.435296669006E+02 -0.658133804798E+00
  0.446650657654E+02  0.435296669006E+02  0.658133804798E+00
  0.468944816589E+02  0.292438049316E+02 -0.144200220704E+00
  0.468944816589E+02  0.292438049316E+02  0.144200220704E+00
  0.470131988525E+02  0.376179962158E+02 -0.980757772923E+00
  0.470131988525E+02  0.376179962158E+02  0.980757772923E+00
  0.470762481689E+02  0.470762481689E+02  0.000000000000E+00
  0.477600097656E+02  0.435296669006E+02 -0.108748745918E+01
  0.477600097656E+02  0.435296669006E+02  0.108748745918E+01
  0.482116432190E+02  0.470762481689E+02 -0.658134579659E+00
  0.482116432190E+02  0.470762481689E+02  0.658134579659E+00
  0.482439842224E+02  0.292438049316E+02  0.000000000000E+00
  0.490000000000E+02  0.490000000000E+02  0.000000000000E+00
  0.501353988647E+02  0.490000000000E+02 -0.658134996891E+00
  0.501353988647E+02  0.490000000000E+02  0.658134996891E+00
  0.506007728577E+02  0.494653701782E+02 -0.465371757746E+00
  0.506007728577E+02  0.494653701782E+02  0.465371757746E+00
  0.507935333252E+02  0.496581344604E+02 -0.771266485397E-15
  0.513065910339E+02  0.470762481689E+02 -0.108748877048E+01
  0.513065910339E+02  0.470762481689E+02  0.108748877048E+01
  0.521583786011E+02  0.376179962158E+02 -0.479618877172E+00
  0.521583786011E+02  0.376179962158E+02  0.479618877172E+00
  0.529248886108E+02  0.435296669006E+02 -0.980759620667E+00
  0.529248886108E+02  0.435296669006E+02  0.980759620667E+00
  0.532303466797E+02  0.490000000000E+02 -0.108748936653E+01
  0.532303466797E+02  0.490000000000E+02  0.108748936653E+01
  0.539993209839E+02  0.497689704895E+02 -0.768971264362E+00
  0.539993209839E+02  0.497689704895E+02  0.768971264362E+00
  0.543178405762E+02  0.500874900818E+02 -0.157378642191E-15
  0.552687225342E+02  0.376179962158E+02 -0.144200608134E+00
  0.552687225342E+02  0.376179962158E+02  0.144200608134E+00
  0.564714775085E+02  0.470762481689E+02 -0.980760753155E+00
  0.564714775085E+02  0.470762481689E+02  0.980760753155E+00
  0.566182289124E+02  0.376179962158E+02  0.000000000000E+00
  0.580700759888E+02  0.435296669006E+02 -0.479619771242E+00
  0.580700759888E+02  0.435296669006E+02  0.479619771242E+00
  0.583952369690E+02  0.490000000000E+02 -0.980761349201E+00
  0.583952369690E+02  0.490000000000E+02  0.980761349201E+00
  0.590887413025E+02  0.496935043335E+02 -0.693503141403E+00
  0.590887413025E+02  0.496935043335E+02  0.693503141403E+00
  0.593759994507E+02  0.499807624817E+02  0.000000000000E+00
  0.611804275513E+02  0.435296669006E+02 -0.144200876355E+00
  0.611804275513E+02  0.435296669006E+02  0.144200876355E+00
  0.616166725159E+02  0.470762481689E+02 -0.479620337486E+00
  0.616166725159E+02  0.470762481689E+02  0.479620337486E+00
  0.625299339294E+02  0.435296669006E+02  0.000000000000E+00
  0.635404319763E+02  0.490000000000E+02 -0.479620635509E+00
  0.635404319763E+02  0.490000000000E+02  0.479620635509E+00
  0.638795776367E+02  0.493391418457E+02 -0.339143037796E+00
  0.638795776367E+02  0.493391418457E+02  0.339143037796E+00
  0.640200576782E+02  0.494796218872E+02  0.296956834055E-15
  0.647270278931E+02  0.470762481689E+02 -0.144201040268E+00
  0.647270278931E+02  0.470762481689E+02  0.144201040268E+00
  0.660765380859E+02  0.470762481689E+02  0.000000000000E+00
  0.666507873535E+02  0.490000000000E+02 -0.144201144576E+00
  0.666507873535E+02  0.490000000000E+02  0.144201144576E+00
  0.667527542114E+02  0.491019668579E+02 -0.101965606213E+00
  0.667527542114E+02  0.491019668579E+02  0.101965606213E+00
  0.667949905396E+02  0.491441993713E+02 -0.260488604752E-16
  0.680002975464E+02  0.490000000000E+02  0.000000000000E+00
  0.190000000000E+02  0.000000000000E+00  0.000000000000E+00
  0.209237651825E+02  0.192375373840E+01  0.000000000000E+00
  0.244703655243E+02  0.547033166885E+01  0.000000000000E+00
  0.303820724487E+02  0.113820018768E+02  0.000000000000E+00
  0.387563171387E+02  0.197561950684E+02  0.000000000000E+00
  0.482439842224E+02  0.292438049316E+02  0.000000000000E+00
  0.566182289124E+02  0.376179962158E+02  0.000000000000E+00
  0.625299339294E+02  0.435296669006E+02  0.000000000000E+00
  0.660765380859E+02  0.470762481689E+02  0.000000000000E+00
POLYGONS                 256                1024
3                 135                  33                 136
3                  32                  30                  33
3                  30                  28                  33
3                  30                  22                  28
3                  22                  17                  28
3                  22                  13                  17
3                  13                   6                  17
3                  17                   6                   9
3                   6                   1                   9
3                   9                   1                   4
3                   1                   0                   4
3                   4                   0                   3
3                   0                   5                   3
3                   0                   2                   5
3                   2                  10                   5
3                   2                   7                  10
[...]
CELL_DATA                 256
SCALARS sigma float 1
LOOKUP_TABLE default
 -0.312203412765E-01
 -0.312204245077E-01
 -0.321851929521E-01
 -0.321851269198E-01
 -0.219396659359E-01
 -0.219396800736E-01
  0.543495414701E-01
  0.543495548507E-01
  0.209325209967E+00
  0.209325195020E+00
  0.505004151211E+00
  0.505004151947E+00
  0.389032675293E+00
  0.389032674315E+00
  0.621729882848E-01
  0.621730044398E-01
 -0.955439059401E-01
 -0.955439191270E-01
 -0.170494451517E+00
 -0.170494437242E+00
 -0.180428502259E+00
 -0.180428567890E+00
 -0.179494453116E+00
 -0.179494371590E+00
 -0.312203121949E-01
 -0.312203411841E-01
 -0.321851804238E-01
 -0.321851926887E-01
 -0.219396733987E-01
 -0.219396659721E-01
  0.543495547971E-01
  0.543495449714E-01
  0.209325195521E+00
  0.209325234118E+00
  0.505004146323E+00
  0.505004109695E+00
  0.389032624971E+00
  0.389032670960E+00
  0.621730294571E-01
  0.621729884336E-01
 -0.955439155665E-01
 -0.955439058458E-01
 -0.170494437523E+00
 -0.170494444891E+00
 -0.180428566413E+00
 -0.180428554368E+00
 -0.179494371059E+00
 -0.179494342812E+00
 -0.312203697948E-01
 -0.312203121889E-01
 -0.321851230957E-01
 -0.321851804835E-01
 -0.219396724525E-01
 -0.219396734121E-01
  0.543495449976E-01
  0.543495447156E-01
  0.209325233684E+00
  0.209325171823E+00
  0.505004107601E+00
  0.505004083481E+00
  0.389032593751E+00
  0.389032623358E+00
  0.621729640877E-01
  0.621730293282E-01
 -0.955439158919E-01
 -0.955439156124E-01
 -0.170494444995E+00
 -0.170494444051E+00
 -0.180428554702E+00
 -0.180428498662E+00
 -0.179494342777E+00
 -0.179494398770E+00
 -0.312203551642E-01
 -0.312203698240E-01
 -0.321850902572E-01
 -0.321851232146E-01
 -0.219396859359E-01
 -0.219396724429E-01
  0.543495447078E-01
  0.543495480546E-01
  0.209325172719E+00
  0.209325229697E+00
  0.505004096505E+00
  0.505004314494E+00
  0.389032868884E+00
  0.389032603784E+00
  0.621730242417E-01
  0.621729643537E-01
 -0.955439125583E-01
 -0.955439158780E-01
 -0.170494443976E+00
 -0.170494457200E+00
 -0.180428499328E+00
 -0.180428467226E+00
 -0.179494398938E+00
 -0.179494384704E+00
 -0.312203838149E-01
 -0.312203551919E-01
 -0.321851502484E-01
 -0.321850902100E-01
 -0.219396568163E-01
 -0.219396859200E-01
  0.543495480579E-01
  0.543495398678E-01
  0.209325229188E+00
  0.209325303831E+00
  0.505004290685E+00
  0.505003836031E+00
  0.389032299042E+00
  0.389032850542E+00
  0.621731024699E-01
  0.621730240903E-01
 -0.955439206898E-01
 -0.955439125642E-01
 -0.170494457076E+00
 -0.170494428584E+00
 -0.180428466962E+00
 -0.180428525400E+00
 -0.179494384864E+00
 -0.179494412646E+00
 -0.312203690423E-01
 -0.312203837021E-01
 -0.321851819727E-01
 -0.321851501032E-01
 -0.219396347284E-01
 -0.219396568016E-01
  0.543495398619E-01
  0.543495279503E-01
  0.209325303080E+00
  0.209325108503E+00
  0.505003850300E+00
  0.505004089125E+00
  0.389032600473E+00
  0.389032310034E+00
  0.621728977347E-01
  0.621731022471E-01
 -0.955439324944E-01
 -0.955439206793E-01
 -0.170494428470E+00
 -0.170494406838E+00
 -0.180428524586E+00
 -0.180428555628E+00
 -0.179494411998E+00
 -0.179494397764E+00
 -0.312205639227E-01
 -0.312203690930E-01
 -0.321851200412E-01
 -0.321851821305E-01
 -0.219396750981E-01
 -0.219396347658E-01
  0.543495279664E-01
  0.543495391314E-01
  0.209325107995E+00
  0.209325180064E+00
  0.505004060709E+00
  0.505003733320E+00
  0.389032176715E+00
  0.389032578582E+00
  0.621729735906E-01
  0.621728975838E-01
 -0.955439214570E-01
 -0.955439325227E-01
 -0.170494407128E+00
 -0.170494446804E+00
 -0.180428556513E+00
 -0.180428495881E+00
 -0.179494398055E+00
 -0.179494587430E+00
 -0.312203868177E-01
 -0.312205639216E-01
 -0.321851173486E-01
 -0.321851202041E-01
 -0.219396413125E-01
 -0.219396752289E-01
  0.543495391378E-01
  0.543495350388E-01
  0.209325186986E+00
  0.209325189086E+00
  0.505003880726E+00
  0.505004840622E+00
  0.389033495494E+00
  0.389032290270E+00
  0.621729778783E-01
  0.621729756464E-01
 -0.955439255233E-01
 -0.955439214682E-01
 -0.170494447820E+00
 -0.170494414172E+00
 -0.180428496794E+00
 -0.180428493990E+00
 -0.179494587424E+00
 -0.179494414850E+00
 -0.312204633831E-01
 -0.312203875078E-01
 -0.321851788110E-01
 -0.321851174965E-01
 -0.219396983694E-01
 -0.219396410663E-01
  0.543495350141E-01
  0.543495503063E-01
  0.209325179776E+00
  0.209325230478E+00
  0.505004677361E+00
  0.505004175399E+00
  0.389032703223E+00
  0.389033369725E+00
  0.621730299140E-01
  0.621729751130E-01
 -0.955439104089E-01
 -0.955439254798E-01
 -0.170494412259E+00
 -0.170494470117E+00
 -0.180428494819E+00
 -0.180428555760E+00
 -0.179494418818E+00
 -0.179494493139E+00
 -0.300253063807E-01
 -0.309644577103E-01
 -0.309649513327E-01
 -0.210223687043E-01
 -0.210222200157E-01
  0.505862579358E-01
  0.505863653568E-01
  0.185317557751E+00
  0.185317741375E+00
  0.428365937808E+00
  0.329994021580E+00
  0.550426555255E-01
  0.550423569836E-01
 -0.889280602336E-01
 -0.889282223845E-01
 -0.163364700914E+00
 -0.163364804756E+00
 -0.173588019534E+00
 -0.173587715905E+00
 -0.172623227401E+00
 -0.762374012747E-01
 -0.772925474915E-01
 -0.772878564313E-01
 -0.662085035733E-01
 -0.662097832597E-01
  0.982723154353E-02
  0.982708730996E-02
  0.138889213103E+00
  0.138889080283E+00
  0.351482486280E+00
  0.315637253439E+00
  0.879602008603E-01
  0.879605200509E-01
 -0.485770451989E-01
 -0.485766446518E-01
 -0.128456683344E+00
 -0.128456303976E+00
 -0.140060915514E+00
 -0.140061575412E+00
 -0.138956786530E+00
SCALARS C_p_inc float 1
LOOKUP_TABLE default
 -0.257492428636E+00
 -0.557311762854E+00
 -0.174670499678E+00
 -0.171327182044E+00
 -0.166555182241E+00
 -0.175153298173E+00
 -0.142136299564E+00
 -0.168880669703E+00
  0.419773218541E-01
 -0.670556759176E-01
  0.478061122715E+00
  0.437217975867E+00
 -0.233774058538E-01
  0.237426252826E+00
 -0.370644889143E+00
 -0.229988049708E+00
 -0.282478555865E+00
 -0.293073074367E+00
 -0.174247636384E+00
 -0.110509265133E+00
  0.434188726983E-01
  0.137677799658E+00
  0.444690465432E+00
  0.355454623206E+00
 -0.188593981476E+00
 -0.249351282304E+00
 -0.128805287460E+00
 -0.177094153340E+00
 -0.158759789392E+00
 -0.168108417095E+00
 -0.169289916550E+00
 -0.189729088019E+00
 -0.617504186222E-01
 -0.102164151075E+00
  0.377639643826E+00
  0.372679601450E+00
 -0.136328842600E+00
 -0.395622379436E-01
 -0.425978303001E+00
 -0.363983982401E+00
 -0.271670191302E+00
 -0.292398118773E+00
 -0.109051987450E+00
 -0.576541695765E-01
  0.133284381058E+00
  0.138042419402E+00
  0.348378823183E+00
  0.326249219604E+00
 -0.167997073667E+00
 -0.187523884339E+00
 -0.111247853432E+00
 -0.128819278841E+00
 -0.145744114503E+00
 -0.160246522293E+00
 -0.190971557232E+00
 -0.190214413071E+00
 -0.101612511230E+00
 -0.112995491605E+00
  0.367486260723E+00
  0.366422163456E+00
 -0.162459261132E+00
 -0.137793447348E+00
 -0.433100844085E+00
 -0.428315810951E+00
 -0.253841049311E+00
 -0.278954830159E+00
 -0.569874926288E-01
 -0.428139195107E-01
  0.136804629571E+00
  0.135781672996E+00
  0.325168224301E+00
  0.319762621111E+00
 -0.159973815499E+00
 -0.167663123364E+00
 -0.105389832367E+00
 -0.111242635526E+00
 -0.140689529598E+00
 -0.146074118409E+00
 -0.191673169624E+00
 -0.187995444406E+00
 -0.113400253663E+00
 -0.112902560482E+00
  0.369380801874E+00
  0.368684808751E+00
 -0.156522292624E+00
 -0.161829988303E+00
 -0.427333969147E+00
 -0.436185500994E+00
 -0.248588751279E+00
 -0.256487364551E+00
 -0.427310232100E-01
 -0.400528263257E-01
  0.135610864843E+00
  0.135428692295E+00
  0.319678343365E+00
  0.317725684634E+00
 -0.151817890695E+00
 -0.159664946629E+00
 -0.101779807427E+00
 -0.105327859939E+00
 -0.138954021177E+00
 -0.140676210566E+00
 -0.188395188611E+00
 -0.187813087783E+00
 -0.113096230017E+00
 -0.113569380129E+00
  0.370038486910E+00
  0.368981731008E+00
 -0.150912439324E+00
 -0.156203733504E+00
 -0.423747060936E+00
 -0.428306227703E+00
 -0.246398497861E+00
 -0.249104151103E+00
 -0.400399367219E-01
 -0.389696825916E-01
  0.135419013588E+00
  0.134968630274E+00
  0.317765803864E+00
  0.315083431572E+00
 -0.127111516699E+00
 -0.151428910187E+00
 -0.920068888892E-01
 -0.101555751468E+00
 -0.136794781589E+00
 -0.138640642421E+00
 -0.187457315817E+00
 -0.190491943316E+00
 -0.113449649145E+00
 -0.117624344249E+00
  0.368455275271E+00
  0.365923651269E+00
 -0.145190200544E+00
 -0.150906216327E+00
 -0.419489429142E+00
 -0.423837047230E+00
 -0.243055186191E+00
 -0.246524720951E+00
 -0.389602259966E-01
 -0.359098961192E-01
  0.135075465013E+00
  0.135333056099E+00
  0.315503306517E+00
  0.309162966555E+00
 -0.684554010827E-01
 -0.126997682324E+00
 -0.621592611644E-01
 -0.916220958888E-01
 -0.121956638334E+00
 -0.135794736428E+00
 -0.188915316415E+00
 -0.195777553444E+00
 -0.116973011567E+00
 -0.130876360366E+00
  0.362795068827E+00
  0.356604716308E+00
 -0.136208634342E+00
 -0.145489825788E+00
 -0.412453499711E+00
 -0.418940598229E+00
 -0.231495663671E+00
 -0.243443090480E+00
 -0.359098644273E-01
 -0.197957148678E-01
  0.136317937169E+00
  0.140718510775E+00
  0.312534006715E+00
  0.297374075676E+00
 -0.140794800121E-01
 -0.690102279698E-01
 -0.162414561102E-01
 -0.619006500174E-01
 -0.896917742779E-01
 -0.120470345708E+00
 -0.193354919345E+00
 -0.176350021153E+00
 -0.128993699057E+00
 -0.162786018472E+00
  0.345395994057E+00
  0.331782582310E+00
 -0.126272883916E+00
 -0.137526972206E+00
 -0.398986773215E+00
 -0.410262990700E+00
 -0.185147444809E+00
 -0.235882329003E+00
 -0.201121905140E-01
  0.750841847036E-02
  0.143781261258E+00
  0.147768822679E+00
  0.307539968429E+00
  0.252497831515E+00
 -0.323375782528E+03
 -0.175749982540E+00
 -0.623566599966E+00
 -0.161304621221E-01
 -0.541776308966E-01
 -0.885081509346E-01
 -0.176552075598E+00
 -0.129082894187E+00
 -0.161308486104E+00
 -0.137505656060E+00
  0.268615295476E+00
  0.235468594549E+00
 -0.135132324871E+00
 -0.136811000399E+00
 -0.281989754337E+00
 -0.403473271962E+00
 -0.119396063515E+00
 -0.207128581006E+00
  0.321895682261E-02
  0.280803229677E-01
  0.148205123564E+00
 -0.472778532992E+00
  0.309090702839E-01
 -0.325962167263E+03
 -0.711598263430E+03
 -0.521141596028E+01
 -0.673930068441E+00
 -0.330759725743E-01
 -0.548951975186E-01
 -0.129458458123E+00
 -0.120122773412E+00
 -0.160523673475E+00
 -0.155397765392E+00
  0.203015000676E-01
 -0.180988969393E+00
 -0.211047309279E+00
 -0.296500720184E+00
 -0.108156751734E+00
 -0.171480982590E+00
 -0.335822009393E-03
 -0.136233141310E-01
 -0.723463264782E+00
 -0.417355343606E+01
 -0.703944850973E+03
 -0.475220665124E+03
 -0.693902693400E+01
 -0.896312687676E+00
 -0.322824473599E-01
 -0.502376609237E-01
 -0.129642655531E+00
 -0.130720682657E+00
 -0.182135209550E+00
 -0.183733038620E+00
 -0.929281469830E-01
 -0.162322040974E+00
 -0.204774829223E+00
 -0.222975197998E+00
 -0.125490967598E+00
 -0.147441684223E+00
 -0.297230418456E-01
 -0.430875696460E-01
 -0.100525111036E+01
 -0.513372589096E+01
 -0.467695146161E+03
SCALARS inclination float 1
LOOKUP_TABLE default
  0.100000000000E+01
  0.100000000000E+01
  0.100000000000E+01
  0.100000000000E+01
  0.100000000000E+01
  0.100000000000E+01
  0.100000000000E+01
  0.100000000000E+01
  0.100000000000E+01
  0.100000000000E+01
  0.100000000000E+01
  0.100000000000E+01
  0.100000000000E+01
  0.100000000000E+01
  0.100000000000E+01
  0.100000000000E+01
  0.100000000000E+01
  0.100000000000E+01
  0.100000000000E+01
  0.100000000000E+01
  0.100000000000E+01
  0.100000000000E+01
  0.100000000000E+01
  0.100000000000E+01
  0.100000000000E+01
  0.100000000000E+01
  0.100000000000E+01
  0.100000000000E+01
  0.100000000000E+01
  0.100000000000E+01
  0.100000000000E+01
  0.100000000000E+01
  0.100000000000E+01
  0.100000000000E+01
  0.100000000000E+01
  0.100000000000E+01
  0.100000000000E+01
  0.100000000000E+01
  0.100000000000E+01
  0.100000000000E+01
  0.100000000000E+01
  0.100000000000E+01
  0.100000000000E+01
  0.100000000000E+01
  0.100000000000E+01
  0.100000000000E+01
  0.100000000000E+01
  0.100000000000E+01
  0.100000000000E+01
  0.100000000000E+01
  0.100000000000E+01
  0.100000000000E+01
  0.100000000000E+01
  0.100000000000E+01
  0.100000000000E+01
  0.100000000000E+01
  0.100000000000E+01
  0.100000000000E+01
  0.100000000000E+01
  0.100000000000E+01
  0.100000000000E+01
  0.100000000000E+01
  0.100000000000E+01
  0.100000000000E+01
  0.100000000000E+01
  0.100000000000E+01
  0.100000000000E+01
  0.100000000000E+01
  0.100000000000E+01
  0.100000000000E+01
  0.100000000000E+01
  0.100000000000E+01
  0.100000000000E+01
  0.100000000000E+01
  0.100000000000E+01
  0.100000000000E+01
  0.100000000000E+01
  0.100000000000E+01
  0.100000000000E+01
  0.100000000000E+01
  0.100000000000E+01
  0.100000000000E+01
  0.100000000000E+01
  0.100000000000E+01
  0.100000000000E+01
  0.100000000000E+01
  0.100000000000E+01
  0.100000000000E+01
  0.100000000000E+01
  0.100000000000E+01
  0.100000000000E+01
  0.100000000000E+01
  0.100000000000E+01
  0.100000000000E+01
  0.100000000000E+01
  0.100000000000E+01
  0.100000000000E+01
  0.100000000000E+01
  0.100000000000E+01
  0.100000000000E+01
  0.100000000000E+01
  0.100000000000E+01
  0.100000000000E+01
  0.100000000000E+01
  0.100000000000E+01
  0.100000000000E+01
  0.100000000000E+01
  0.100000000000E+01
  0.100000000000E+01
  0.100000000000E+01
  0.100000000000E+01
  0.100000000000E+01
  0.100000000000E+01
  0.100000000000E+01
  0.100000000000E+01
  0.100000000000E+01
  0.100000000000E+01
  0.100000000000E+01
  0.100000000000E+01
  0.100000000000E+01
  0.100000000000E+01
  0.100000000000E+01
  0.100000000000E+01
  0.100000000000E+01
  0.100000000000E+01
  0.100000000000E+01
  0.100000000000E+01
  0.100000000000E+01
  0.100000000000E+01
  0.100000000000E+01
  0.100000000000E+01
  0.100000000000E+01
  0.100000000000E+01
  0.100000000000E+01
  0.100000000000E+01
  0.100000000000E+01
  0.100000000000E+01
  0.100000000000E+01
  0.100000000000E+01
  0.100000000000E+01
  0.100000000000E+01
  0.100000000000E+01
  0.100000000000E+01
  0.100000000000E+01
  0.100000000000E+01
  0.100000000000E+01
  0.100000000000E+01
  0.100000000000E+01
  0.100000000000E+01
  0.100000000000E+01
  0.100000000000E+01
  0.100000000000E+01
  0.100000000000E+01
  0.100000000000E+01
  0.100000000000E+01
  0.100000000000E+01
  0.100000000000E+01
  0.100000000000E+01
  0.100000000000E+01
  0.100000000000E+01
  0.100000000000E+01
  0.100000000000E+01
  0.100000000000E+01
  0.100000000000E+01
  0.100000000000E+01
  0.100000000000E+01
  0.100000000000E+01
  0.100000000000E+01
  0.100000000000E+01
  0.100000000000E+01
  0.100000000000E+01
  0.100000000000E+01
  0.100000000000E+01
  0.100000000000E+01
  0.100000000000E+01
  0.100000000000E+01
  0.100000000000E+01
  0.100000000000E+01
  0.100000000000E+01
  0.100000000000E+01
  0.100000000000E+01
  0.100000000000E+01
  0.100000000000E+01
  0.100000000000E+01
  0.100000000000E+01
  0.100000000000E+01
  0.100000000000E+01
  0.100000000000E+01
  0.100000000000E+01
  0.100000000000E+01
  0.100000000000E+01
  0.100000000000E+01
  0.100000000000E+01
  0.100000000000E+01
  0.100000000000E+01
  0.100000000000E+01
  0.100000000000E+01
  0.100000000000E+01
  0.100000000000E+01
  0.100000000000E+01
  0.100000000000E+01
  0.100000000000E+01
  0.100000000000E+01
  0.100000000000E+01
  0.100000000000E+01
  0.100000000000E+01
  0.100000000000E+01
  0.100000000000E+01
  0.100000000000E+01
  0.100000000000E+01
  0.100000000000E+01
  0.100000000000E+01
  0.100000000000E+01
  0.100000000000E+01
  0.100000000000E+01
  0.100000000000E+01
  0.100000000000E+01
  0.100000000000E+01
  0.100000000000E+01
  0.100000000000E+01
  0.100000000000E+01
  0.100000000000E+01
  0.100000000000E+01
  0.100000000000E+01
  0.100000000000E+01
  0.100000000000E+01
  0.100000000000E+01
  0.100000000000E+01
  0.100000000000E+01
  0.100000000000E+01
  0.100000000000E+01
  0.100000000000E+01
  0.100000000000E+01
  0.100000000000E+01
  0.100000000000E+01
  0.100000000000E+01
  0.100000000000E+01
  0.100000000000E+01
  0.100000000000E+01
  0.100000000000E+01
  0.100000000000E+01
  0.100000000000E+01
  0.100000000000E+01
  0.100000000000E+01
  0.100000000000E+01
  0.100000000000E+01
  0.100000000000E+01
  0.100000000000E+01
  0.100000000000E+01
  0.100000000000E+01
  0.100000000000E+01
  0.100000000000E+01
  0.100000000000E+01
  0.100000000000E+01
  0.100000000000E+01
  0.100000000000E+01
VECTORS v float
  0.180161888223E+03 -0.220281434392E+02  0.216048898434E+02
  0.200036511702E+03 -0.277353651390E+02  0.243384414862E+02
  0.175576461457E+03 -0.327519387217E+01  0.192872961619E+02
  0.175321410611E+03 -0.343431144381E+01  0.192769392295E+02
  0.175161172931E+03 -0.327407326404E+01  0.173795448298E+02
  0.175833534390E+03 -0.215941525495E+01  0.173364670206E+02
  0.174161297057E+03 -0.487177201442E+00  0.360896228867E+01
  0.176031367830E+03 -0.738799020856E+01  0.379020498669E+01
  0.157864379349E+03  0.107790132910E+02 -0.204047823021E+02
  0.166141387542E+03 -0.117682712103E+02 -0.246809520029E+02
  0.101346326989E+03  0.530268127125E+02 -0.280084481904E+02
  0.108935644478E+03  0.360959729574E+02 -0.422215785780E+02
  0.143127300729E+03  0.190431670599E+01  0.818600247981E+02
  0.127101248004E+03  0.376564816688E+02  0.518467359892E+02
  0.187253586857E+03 -0.224958746147E+02  0.290980049873E+02
  0.179056810890E+03 -0.167149819709E+00  0.248632867416E+02
  0.184465869203E+03 -0.557620591638E+01 -0.392705710354E+01
  0.185135061915E+03 -0.804561735302E+01 -0.399191734210E+01
  0.175806678507E+03  0.128279783133E+01 -0.169985785663E+02
  0.170747062464E+03 -0.710515888795E+01 -0.173227608176E+02
  0.158478352220E+03  0.516361205393E+01 -0.165333892292E+02
  0.150493379281E+03  0.182122387760E+00 -0.162095084769E+02
  0.116120662044E+03  0.345550096735E+02 -0.871562831443E+01
  0.126598869973E+03  0.315351934486E+02 -0.101579432892E+02
  0.175991118476E+03 -0.139608023084E+02  0.202971847885E+02
  0.180217016745E+03 -0.165465561896E+02  0.210250463375E+02
  0.171890664314E+03 -0.822015569532E+01  0.194230853526E+02
  0.175514962330E+03 -0.862491151241E+01  0.198575794066E+02
  0.174403783473E+03 -0.751372775033E+01  0.177187203246E+02
  0.175124433285E+03 -0.718353959445E+01  0.177567496879E+02
  0.176031068105E+03 -0.809018167377E+01  0.380470959491E+01
  0.177382241362E+03 -0.114119516534E+02  0.390127521818E+01
  0.166356306180E+03 -0.386011641814E+00 -0.231317371056E+02
  0.169280841382E+03 -0.600613306487E+01 -0.243171222899E+02
  0.112601693033E+03  0.506730358102E+02 -0.358969980782E+02
  0.113352008384E+03  0.494726999614E+02 -0.370276899498E+02
  0.152576796023E+03  0.102479123215E+02  0.825010462195E+02
  0.147334731041E+03  0.186340416949E+02  0.746014652620E+02
  0.190734650227E+03 -0.247658859811E+02  0.298958463118E+02
  0.187334115274E+03 -0.182310288361E+02  0.285175256727E+02
  0.183223852162E+03 -0.141207481459E+02 -0.407796315569E+01
  0.184460924005E+03 -0.171620072347E+02 -0.416637019247E+01
  0.170781110141E+03 -0.348214697772E+01 -0.169731943410E+02
  0.166707432236E+03 -0.534863022700E+01 -0.167582165977E+02
  0.150614797076E+03  0.107440804072E+02 -0.150835976319E+02
  0.150196223129E+03  0.107908259268E+02 -0.150334158680E+02
  0.126630719458E+03  0.343564655986E+02 -0.985987869539E+01
  0.129323397742E+03  0.327072133255E+02 -0.103238305501E+02
  0.174616920181E+03 -0.119932233498E+02  0.199401110922E+02
  0.175991797970E+03 -0.130457027518E+02  0.201994744990E+02
  0.170578850414E+03 -0.763272337073E+01  0.192182606682E+02
  0.171890407698E+03 -0.824247972628E+01  0.194254649639E+02
  0.173293800464E+03 -0.964587919620E+01  0.178182803188E+02
  0.174382514303E+03 -0.977698061020E+01  0.179370902392E+02
  0.177381659089E+03 -0.127761387245E+02  0.392945319090E+01
  0.177331730717E+03 -0.126825360093E+02  0.392648726530E+01
  0.169306313391E+03 -0.465711600302E+01 -0.241335104667E+02
  0.170117195917E+03 -0.591334288874E+01 -0.244202630132E+02
  0.113629158861E+03  0.505747142590E+02 -0.365495564010E+02
  0.113776900116E+03  0.503762580985E+02 -0.367502266550E+02