# vtk DataFile Version 3.0
MachLine results file. Generated by MachLine, USU AeroLab (c) 2023.
ASCII
DATASET POLYDATA
POINTS                   6 float
  0.492345819850E+01  0.000000000000E+00  0.000000000000E+00
  0.246172909920E+01  0.000000000000E+00 -0.253156538570E+00
  0.246172909920E+01  0.153125603210E+02  0.000000000000E+00
  0.000000000000E+00  0.000000000000E+00  0.000000000000E+00
  0.246172909920E+01  0.000000000000E+00  0.253156538570E+00
  0.246172909920E+01 -0.153125603210E+02 -0.100000000000E-03
POLYGONS                   8                  32
3                   0                   1                   2
3                   1                   3                   2
3                   3                   4                   2
3                   4                   0                   2
3                   0                   5                   1
3                   1                   5                   3
3                   3                   5                   4
3                   4                   5                   0
CELL_DATA                   8
NORMALS normals float
  0.102283551724E+00  0.164436508579E-01 -0.994619365081E+00
 -0.102283551728E+00  0.164436508579E-01 -0.994619365080E+00
 -0.102283551728E+00  0.164436508579E-01  0.994619365080E+00
  0.102283551724E+00  0.164436508579E-01  0.994619365081E+00
  0.102283551724E+00 -0.164436508579E-01 -0.994619365081E+00
 -0.102283551728E+00 -0.164436508579E-01 -0.994619365080E+00
 -0.102283551728E+00 -0.164436508579E-01  0.994619365080E+00
  0.102283551724E+00 -0.164436508579E-01  0.994619365081E+00
SCALARS inclination float 1
LOOKUP_TABLE default
  0.100000000000E+01
  0.100000000000E+01
  0.100000000000E+01
  0.100000000000E+01
  0.100000000000E+01
  0.100000000000E+01
  0.100000000000E+01
  0.100000000000E+01
SCALARS distribution_order float 1
LOOKUP_TABLE default
  0.100000000000E+01
  0.100000000000E+01
  0.100000000000E+01
  0.100000000000E+01
  0.100000000000E+01
  0.100000000000E+01
  0.100000000000E+01
  0.100000000000E+01
SCALARS N_discontinuous_edges float 1
LOOKUP_TABLE default
  0.200000000000E+01
  0.200000000000E+01
  0.200000000000E+01
  0.200000000000E+01
  0.200000000000E+01
  0.200000000000E+01
  0.200000000000E+01
  0.200000000000E+01
VECTORS centroid float
  0.328230546563E+01  0.510418677367E+01 -0.843855128567E-01
  0.164115273280E+01  0.510418677367E+01 -0.843855128567E-01
  0.164115273280E+01  0.510418677367E+01  0.843855128567E-01
  0.328230546563E+01  0.510418677367E+01  0.843855128567E-01
  0.328230546563E+01 -0.510418677367E+01 -0.843855128567E-01
  0.164115273280E+01 -0.510418677367E+01 -0.843855128567E-01
  0.164115273280E+01 -0.510418677367E+01  0.843855128567E-01
  0.328230546563E+01 -0.510418677367E+01  0.843855128567E-01
SCALARS C_p_inc float 1
LOOKUP_TABLE default
 -0.166203199920E+00
 -0.166203199932E+00
 -0.166203201544E+00
 -0.166203201532E+00
 -0.166205803412E+00
 -0.166205803424E+00
 -0.166200598137E+00
 -0.166200598125E+00
SCALARS sigma float 1
LOOKUP_TABLE default
  0.000000000000E+00
  0.000000000000E+00
  0.000000000000E+00
  0.000000000000E+00
  0.000000000000E+00
  0.000000000000E+00
  0.000000000000E+00
  0.000000000000E+00
VECTORS v float
  0.106498998569E+03 -0.105787050003E+01  0.178571053950E+02
  0.106498998569E+03  0.105787050009E+01 -0.178571053958E+02
  0.106498998560E+03  0.105787048759E+01  0.178571059022E+02
  0.106498998559E+03 -0.105787048753E+01 -0.178571059014E+02
  0.106499013274E+03  0.105775423087E+01  0.178577535472E+02
  0.106499013274E+03 -0.105775423094E+01 -0.178577535481E+02
  0.106498983854E+03 -0.105798675667E+01  0.178564577501E+02
  0.106498983854E+03  0.105798675661E+01 -0.178564577492E+02
VECTORS v_inner float
 -0.832543208903E+02 -0.735347334382E+00 -0.165120169067E+01
 -0.832543208936E+02  0.735347325774E+00  0.165120169084E+01
 -0.832543209027E+02  0.735347313271E+00 -0.165120118445E+01
 -0.832543208994E+02 -0.735347321879E+00  0.165120118428E+01
 -0.832543059705E+02  0.735358430083E+00 -0.165055562209E+01
 -0.832543059739E+02 -0.735358424266E+00  0.165055562226E+01
 -0.832543358225E+02 -0.735336217522E+00 -0.165184725297E+01
 -0.832543358192E+02  0.735336223339E+00  0.165184725280E+01
VECTORS dC_f float
  0.322141255384E+00  0.517891512484E-01 -0.313254600076E+01
 -0.322141255408E+00  0.517891512501E-01 -0.313254600087E+01
 -0.322141258532E+00  0.517891517523E-01  0.313254603124E+01
  0.322141258508E+00  0.517891517506E-01  0.313254603114E+01
  0.322146301569E+00 -0.517899625001E-01 -0.313259507056E+01
 -0.322146301593E+00 -0.517899625018E-01 -0.313259507066E+01
 -0.322136212512E+00 -0.517883405272E-01  0.313249696305E+01
  0.322136212489E+00 -0.517883405256E-01  0.313249696295E+01
POINT_DATA                   6
SCALARS mu float 1
LOOKUP_TABLE default
  0.472059923596E+01
 -0.994941764051E-09
 -0.332481811430E-09
 -0.472059923786E+01
 -0.994941384996E-09
 -0.546149217789E-09
SCALARS Phi_u float 1
LOOKUP_TABLE default
  0.472059923596E+03
 -0.994941764051E-07
 -0.332481811430E-07
 -0.472059923786E+03
 -0.994941384996E-07
 -0.546149217789E-07
SCALARS convex float 1
LOOKUP_TABLE default
  0.000000000000E+00
  0.000000000000E+00
  0.100000000000E+01
  0.000000000000E+00
  0.100000000000E+01
  0.100000000000E+01
