# vtk DataFile Version 3.0
MachLine results file. Generated by MachLine, USU AeroLab (c) 2022.
ASCII
DATASET POLYDATA
POINTS                 500 float
 -0.997194935031E+00 -0.520345464803E-01  0.538021144741E-01
  0.585399676393E+00 -0.193826640302E+00 -0.787234686983E+00
 -0.787832918593E+00  0.275635167498E+00 -0.550767234700E+00
 -0.737448025246E+00 -0.548164138212E+00  0.394571270671E+00
  0.350554176007E+00  0.913726788099E+00 -0.205463199612E+00
  0.246231913859E-01  0.738833571151E+00  0.673437935215E+00
 -0.402447585813E+00 -0.511254315376E-01 -0.914014294704E+00
  0.635071533599E+00 -0.676892499799E+00 -0.372156809596E+00
  0.536808014807E+00  0.692137126890E+00 -0.482476271768E+00
 -0.745720668273E+00  0.377860707779E+00  0.548745815863E+00
 -0.710261045030E+00 -0.622780285302E+00 -0.328137111818E+00
  0.368558878021E+00 -0.928530710131E+00 -0.446662487391E-01
 -0.165692552469E+00  0.966601020894E+00 -0.195520956580E+00
  0.811915034270E+00  0.979410460894E-01 -0.575501110874E+00
 -0.188295312021E+00 -0.458062987679E+00 -0.868748050236E+00
 -0.441349638396E+00  0.443468634653E+00  0.780093626924E+00
 -0.679818452397E+00 -0.723340192472E+00 -0.120937329784E+00
 -0.727250969629E+00 -0.321902334086E+00  0.606205340197E+00
 -0.195911940101E+00  0.121602059015E+00  0.973052645528E+00
 -0.673410277296E+00  0.177474866359E+00 -0.717649824248E+00
 -0.341516400611E+00  0.845693855201E-01  0.936063335008E+00
 -0.318769676011E+00 -0.601694684582E+00  0.732358791987E+00
  0.104076776877E+00 -0.341503154831E-01  0.993982786806E+00
  0.536130068506E+00 -0.760394957199E+00  0.366557033366E+00
 -0.185730879972E+00  0.540288215675E+00 -0.820726924274E+00
 -0.277802843027E+00  0.326572598358E+00  0.903424550479E+00
  0.701601289028E+00 -0.546846793141E+00  0.456852510189E+00
 -0.457881377969E+00  0.952936646430E-01  0.883891260952E+00
 -0.232486589381E-01 -0.986201795561E+00  0.163907041612E+00
 -0.856487585920E-01  0.946231606974E+00  0.311945565949E+00
  0.854813008655E+00 -0.271684380636E+00  0.442133823127E+00
 -0.958288506328E+00  0.363175960607E-01 -0.283485750709E+00
 -0.262079014679E+00 -0.959332020331E+00 -0.104864983827E+00
  0.303793752681E+00 -0.709226053158E+00 -0.636166457269E+00
  0.792301729629E+00  0.178074137168E+00  0.583564538761E+00
 -0.607011476307E+00  0.525728362034E+00  0.595941907391E+00
  0.946726831436E+00 -0.285399038016E+00 -0.149183429843E+00
 -0.942337063256E+00  0.274253237863E+00  0.191796821495E+00
  0.626536761428E+00  0.648759333013E+00  0.431929409057E+00
  0.255307581071E+00 -0.263181012776E+00 -0.930351435513E+00
 -0.423888264020E+00  0.361698455807E+00  0.830357132018E+00
  0.322315865390E+00 -0.165242126330E+00  0.932098451133E+00
  0.162015210929E+00  0.915825377975E+00 -0.367443803166E+00
 -0.583972979811E+00 -0.337917677245E+00 -0.738097014122E+00
 -0.393222039229E+00 -0.514807555684E+00  0.761806805217E+00
 -0.559886434208E-01 -0.822666368793E+00 -0.565760830621E+00
  0.117640212513E+00  0.336807908286E+00 -0.934195489882E+00
  0.562565815441E+00  0.668390641051E+00 -0.486593931582E+00
 -0.685532980814E+00 -0.268957775991E+00  0.676539907877E+00
 -0.138010989493E+00 -0.417989455407E+00  0.897907446203E+00
  0.819709503442E-01  0.852033481475E+00 -0.517029699093E+00
 -0.666280413425E+00  0.712993034190E+00  0.218429265171E+00
 -0.615105932632E+00  0.602269017131E+00 -0.508838601763E+00
  0.198036323469E+00  0.115726410720E+00  0.973339104551E+00
  0.554887342965E+00  0.480932166662E+00 -0.678825668112E+00
 -0.724864418994E+00  0.560886582955E+00  0.399972267959E+00
 -0.404320315421E+00  0.726118026062E+00  0.556127408753E+00
  0.395824562057E+00  0.398299044033E+00  0.827454402124E+00
  0.199011691357E+00 -0.612266954403E+00  0.765195088359E+00
  0.530543600258E+00  0.825837359340E+00  0.191091978230E+00
  0.457237585747E+00  0.394312164699E+00  0.797152248288E+00
  0.658910409116E+00  0.777127243231E-01 -0.748196368100E+00
 -0.785936725265E+00  0.612091098195E+00 -0.874525665195E-01
  0.756793281363E+00 -0.478443299737E+00  0.445371685472E+00
  0.971823265876E+00  0.235070957064E+00  0.173546837172E-01
  0.309093158726E-01 -0.999109572343E+00  0.287171837751E-01
 -0.968923035976E+00  0.106292436987E+00 -0.223360847495E+00
 -0.716029439008E+00  0.690571270460E+00 -0.102044906239E+00
  0.659895406564E+00  0.527382018220E+00 -0.535169374361E+00
 -0.430451933673E+00  0.688079444132E+00  0.584172758146E+00
 -0.139958048785E+00 -0.454095671491E+00 -0.879891394271E+00
 -0.580657260133E+00 -0.811380411950E+00  0.670743867558E-01
  0.797961198374E-01  0.678597721711E+00  0.730162797839E+00
 -0.560932194898E+00 -0.920144045620E-01  0.822732290651E+00
 -0.834624287910E+00 -0.419868772007E+00 -0.356528417275E+00
  0.663301915563E+00 -0.518277852857E+00  0.539832044297E+00
  0.744347201492E+00 -0.587228509689E+00  0.317977862499E+00
 -0.711533253514E+00  0.226321798115E+00 -0.665205887558E+00
  0.334051453360E+00 -0.921532734048E+00 -0.197957183719E+00
  0.963561535809E+00  0.211700508546E+00 -0.163499423211E+00
  0.540126218702E+00 -0.572752748337E+00  0.616618161542E+00
  0.306688589679E+00  0.401147705572E-01  0.950964202346E+00
  0.164578588993E+00 -0.243309197350E+00 -0.955884157484E+00
  0.712222636248E+00 -0.667143587919E+00 -0.218307923616E+00
  0.361780674129E+00 -0.560012468575E+00  0.745319246274E+00
  0.301417451983E+00 -0.877858204909E+00 -0.372172663846E+00
  0.469056535799E+00  0.204754912781E+00 -0.859104994699E+00
  0.418734525958E-01 -0.908838737895E-01 -0.994980771398E+00
  0.700445104890E+00 -0.319097900279E+00  0.638398923145E+00
  0.384084278464E+00  0.779191096441E+00  0.495318586632E+00
  0.715957818538E+00 -0.416899059991E+00 -0.559999621297E+00
  0.639473565298E+00  0.755955028532E+00 -0.140019834746E+00
  0.922899790043E-01  0.985657919420E+00 -0.141283493937E+00
  0.312625055370E-01 -0.999483892772E+00  0.738944093089E-02
 -0.679555303764E+00  0.720362551369E+00 -0.138861023011E+00
 -0.489558507102E+00  0.662213599601E+00  0.567279134666E+00
  0.629495790642E+00 -0.181949084000E-01  0.776790830837E+00
 -0.175529741635E+00  0.936880152994E+00 -0.302398559402E+00
  0.412198306758E+00 -0.216396732162E+00  0.885022604353E+00
 -0.309326851593E+00 -0.315779439998E+00 -0.896995119362E+00
  0.597319260873E+00  0.652780462265E+00 -0.465926355420E+00
  0.424058236830E+00  0.776200526809E+00  0.466569773945E+00
  0.701160049461E+00 -0.570095316984E+00  0.428212464312E+00
  0.176438067944E+00  0.776926896125E+00  0.604362644658E+00
  0.700059422798E+00  0.983129749044E-01 -0.707284499700E+00
 -0.769021054298E+00 -0.251673370607E+00 -0.587594360570E+00
 -0.746893580430E+00  0.542494265986E-01  0.662726926589E+00
  0.114362403602E+00  0.360957238271E+00 -0.925543684967E+00
 -0.986181544654E+00  0.128131137299E+00 -0.105016058958E+00
 -0.293077634393E+00  0.811388385725E+00 -0.505721650446E+00
 -0.733694089005E+00  0.598509532768E+00 -0.321682021482E+00
  0.324422949479E+00 -0.387900691031E+00 -0.862718264412E+00
 -0.521659530915E+00  0.743154233122E+00  0.419038327124E+00
  0.510025189054E+00 -0.464425527392E+00  0.724004997246E+00
 -0.244303004157E+00 -0.655950583824E+00 -0.714174260066E+00
  0.301331376574E+00  0.939940729624E+00  0.160345958124E+00
 -0.971340254065E-01 -0.853238813302E+00 -0.512394875640E+00
  0.787680948970E+00  0.504138864331E+00  0.354122476131E+00
  0.192632392719E+00 -0.849216114608E+00 -0.491655114858E+00
 -0.735740939247E+00  0.412615918012E+00  0.537059935686E+00
  0.757151537803E+00  0.445323519512E+00 -0.477921030896E+00
 -0.713282230251E+00  0.663511553435E+00  0.225789456058E+00
 -0.901613241939E+00  0.366365849969E+00  0.229933959947E+00
 -0.532852146053E+00 -0.824346459399E+00  0.191106005460E+00
  0.874503793107E+00  0.484100766452E+00 -0.298255555112E-01
 -0.256307188148E+00 -0.808600944848E+00  0.529595257999E+00
  0.811127130820E+00  0.209040372664E+00  0.546237036684E+00
  0.763628893817E+00 -0.643343916969E+00 -0.545849523904E-01
  0.218262336443E+00  0.975826470204E+00 -0.111468623113E-01
  0.752369324545E+00  0.615176061984E+00  0.235581858904E+00
 -0.310834720237E+00  0.672595526735E+00 -0.671563127421E+00
  0.274317197911E+00  0.638200498660E+00 -0.719340113188E+00
  0.317497314657E+00 -0.778916410219E+00  0.540818528785E+00
  0.260475565218E+00 -0.917056226277E-01  0.961115268167E+00
 -0.941157446437E+00 -0.281531083733E+00  0.186983715624E+00
  0.423992755584E+00  0.440652878445E+00  0.791236490520E+00
  0.682184938458E+00 -0.526729855312E+00  0.507128552996E+00
  0.537866412061E+00  0.723143909885E+00 -0.433315829821E+00
  0.204175439629E-01  0.972968167124E+00 -0.230034931395E+00
  0.628536327968E+00  0.148701884876E+00  0.763432926889E+00
 -0.500434277706E+00 -0.234913614919E-01  0.865455769888E+00
 -0.437942846924E+00 -0.846334703018E+00  0.303189104843E+00
 -0.141946749358E+00 -0.520391392789E+00  0.842047456298E+00
  0.698326174079E+00  0.697595910055E+00  0.160313757586E+00
 -0.592200267031E+00 -0.221155606919E+00 -0.774847753599E+00
  0.331382733042E+00  0.652277831959E+00  0.681703098259E+00
  0.552834217336E+00 -0.754004037853E+00  0.354756591262E+00
  0.359780342594E+00  0.585985765157E+00  0.726070787262E+00
 -0.976847919584E+00  0.401556155708E-01 -0.210132502347E+00
 -0.463523578720E+00 -0.878258235694E+00 -0.117508992873E+00
  0.886824819960E+00 -0.325901902513E+00  0.327612100877E+00
  0.478858305871E+00 -0.614524143213E+00 -0.626940826798E+00
 -0.992232753256E+00  0.280374339222E-01 -0.121194330166E+00
 -0.427587793603E+00  0.903746777315E+00  0.202593497771E-01
 -0.751764291145E-01  0.880355763779E+00  0.468318517342E+00
 -0.873547072409E+00  0.483852313389E+00  0.529381820021E-01
 -0.400805000726E+00 -0.862698792861E+00 -0.308392840690E+00
  0.737337111223E+00  0.529716991033E+00 -0.419206266442E+00
  0.652622225068E+00 -0.181181161129E+00  0.735702125999E+00
 -0.738997974554E+00  0.215670478086E+00  0.638254054814E+00
  0.703060980975E+00  0.697670497328E+00  0.137699434232E+00
[...]
CELL_DATA                 996
SCALARS C_p_inc float 1
LOOKUP_TABLE default
  0.920051248127E+00
 -0.122481365596E+01
 -0.117808653864E+01
 -0.122242801720E+01
 -0.123342062671E+01
  0.979499231817E+00
 -0.127870734509E+01
  0.187246436833E+00
 -0.121589718443E+01
 -0.973140089903E+00
 -0.483037263588E+00
  0.846400605672E+00
  0.989174963981E+00
 -0.328158753528E-01
  0.835869659827E+00
  0.850670843224E+00
  0.925236546202E+00
  0.851439366402E+00
  0.470427131332E+00
  0.449134176169E+00
  0.730941701673E+00
  0.720209424574E+00
 -0.478884635220E+00
 -0.718222158251E+00
 -0.152338414793E+01
 -0.819941563344E+00
 -0.110736443630E+01
 -0.129016497900E+01
 -0.110707587573E+01
 -0.104621436557E+01
 -0.580092345235E-01
 -0.753948219703E+00
 -0.589579063621E+00
 -0.923541701589E+00
 -0.624508227618E+00
  0.289912990781E+00
 -0.883609507449E+00
 -0.979026865848E+00
 -0.106758841690E+01
 -0.103108450871E+01
 -0.980678557254E+00
 -0.117303291286E+01
 -0.121391110309E+01
 -0.122889558663E+01
 -0.118215537330E+01
 -0.929429514965E+00
 -0.104699451301E+01
 -0.122559148894E+01
 -0.126015900362E+01
 -0.125153028417E+01
 -0.205184584672E+00
  0.122067672280E+00
 -0.692203338787E+00
 -0.738266574588E+00
 -0.123325570640E+01
 -0.130375945600E+01
  0.243028506142E+00
  0.986307083287E+00
 -0.153690213942E+01
 -0.169656686286E+01
 -0.935495011925E+00
 -0.874217722072E+00
 -0.820015046061E+00
 -0.835732993275E+00
 -0.127218437112E+01
 -0.126589872290E+01
 -0.140122576268E+01
 -0.945808621370E+00
 -0.130316535731E+01
 -0.943174168183E+00
 -0.918923813676E+00
 -0.109872903937E+01
 -0.939061509021E+00
 -0.101660697649E+01
 -0.109710351804E+01
 -0.115280551568E+01
 -0.324499286415E+00
  0.823630240895E-01
 -0.447080194841E+00
 -0.335003014529E+00
 -0.483015725990E+00
 -0.733680404122E+00
 -0.737262821033E+00
 -0.437866138248E+00
 -0.322101156598E+00
  0.288065260713E+00
  0.757157871682E+00
  0.755727642763E+00
  0.759767224672E+00
 -0.117639164251E+01
 -0.120111952875E+01
 -0.130790732214E+01
 -0.135216774158E+00
 -0.394458899445E+00
 -0.913907471262E+00
 -0.114364323357E+01
 -0.975173973841E+00
 -0.850278378567E+00
 -0.106268655037E+01
 -0.111750322857E+01
 -0.144078033861E+01
 -0.111066120505E+01
 -0.109610810541E+01
 -0.883318006548E+00
 -0.115843405438E+01
 -0.933052222911E+00
 -0.923284266182E+00
 -0.989434710315E+00
 -0.925740003374E+00
 -0.103489738269E+01
 -0.140323138489E+01
 -0.141081194556E+01
 -0.108713753135E+01
 -0.927730549254E+00
  0.931847398522E+00
  0.896804432204E+00
  0.837427456986E+00
  0.922317286209E+00
  0.982595287700E+00
  0.839490134247E+00
  0.760810025337E+00
  0.421707282226E+00
  0.357177049492E+00
 -0.455941902515E+00
 -0.435370158901E+00
 -0.381814879648E+00
  0.190339278925E+00
  0.291542038853E-01
  0.939418901055E+00
  0.882665457304E+00
  0.997854973806E+00
  0.903750003213E+00
  0.882965599931E+00
  0.362521880399E+00
 -0.104478220248E+00
  0.569262446446E-01
  0.659242816093E+00
  0.448452972934E+00
  0.598420995093E+00
  0.736866144124E+00
 -0.412036121344E+00
 -0.250603775549E+00
 -0.778286917725E+00
 -0.667318004715E+00
 -0.848955557640E+00
 -0.851882444446E+00
 -0.118082144623E+01
 -0.124912595281E+01
 -0.279090441276E+00
 -0.401764878917E+00
  0.316289835997E+00
 -0.699297135497E+00
 -0.543977817722E+00
 -0.120942808084E+01
 -0.741261971720E+00
 -0.113744553126E+01
 -0.736019455466E+00
 -0.623929519166E+00
 -0.633247590981E+00
 -0.147614063453E+01
 -0.132052485143E+01
 -0.135294974622E+01
 -0.143450827597E+01
 -0.137169013310E+01
 -0.141819101275E+01
 -0.126913916677E+01
 -0.128724118229E+01
 -0.460733548192E+00
 -0.128861392339E+01
 -0.972795741093E+00
 -0.124004690167E+01
 -0.622253411634E+00
 -0.828608441345E+00
 -0.547848990203E+00
 -0.277314223848E+00
 -0.508122485927E-01
 -0.130012516705E+01
 -0.965202549642E+00
 -0.134756669251E+01
 -0.128525307473E+01
  0.900730864655E+00
  0.895411743736E+00
 -0.105236230391E+01
 -0.122037160002E+01
 -0.123779390529E+01
 -0.138637111861E+01
 -0.131276382960E+01
 -0.109502959279E+01
 -0.120941069979E+01
 -0.109673652281E+01
 -0.902013633854E+00
 -0.111456759154E+01
 -0.767596085978E+00
 -0.708582664213E+00
 -0.992386396970E+00
 -0.230758832234E+00
 -0.641248877359E-01
 -0.167651428672E+00
 -0.187551838354E+00
  0.158949620020E+00
 -0.232040119376E+00
 -0.422981464074E-01
 -0.394053321789E+00
 -0.281432369332E+00
 -0.965466843848E+00
 -0.139883324699E+01
 -0.115681520435E+01
 -0.133411490822E+01
 -0.103143461619E+01
 -0.147305196685E+01
 -0.147003770641E+01
 -0.112744156028E+01
 -0.124282898717E+01
 -0.449156186024E+00
 -0.881215874307E+00
 -0.124720965420E+01
 -0.119727575850E+01
 -0.118801045230E+01
 -0.137466982824E+01
 -0.123801148596E+01
 -0.124406348509E+01
 -0.602923122792E+00
 -0.851233555268E+00
 -0.977539996093E+00
 -0.446418276661E+00
 -0.441068208193E+00
 -0.232726184952E+00
 -0.187925324024E+00
 -0.507354471283E-01
  0.897329069377E+00
  0.715872765906E+00
 -0.331883615896E+00
 -0.287162555383E+00
 -0.103105675611E+01
 -0.141961139473E+01
 -0.107510868536E+01
 -0.115107228186E+01
 -0.110625292575E+01
 -0.117912380436E+01
 -0.107772838517E+01
 -0.124240921703E+01
 -0.124033364932E+01
 -0.118313909271E+01
 -0.943898310125E+00
 -0.966028256731E+00
 -0.129175680907E+01
 -0.123037106911E+01
 -0.146134556568E+01
 -0.995092803197E+00
 -0.115248423755E+01
 -0.104973570922E+01
 -0.105386487481E+01
 -0.106119025579E+01
 -0.294188488866E+00
 -0.598476588757E+00
 -0.801149656091E-01
 -0.960984717063E-01
 -0.133404836532E+00
 -0.249411816917E+00
 -0.254507104940E+00
 -0.122137881674E+01
 -0.124642712008E+01
 -0.125723659159E+01
 -0.118228819447E+01
 -0.114999311286E+01
 -0.939191519039E+00
 -0.124421360838E+01
 -0.128645584952E+01
 -0.121248434705E+01
 -0.115258725376E+01
 -0.117592536147E+01
 -0.118076625368E+01
 -0.122325292514E+01
 -0.738179663660E+00
 -0.113920876038E+01
 -0.100705096026E+01
 -0.101630499770E+01
  0.273325368312E-01
 -0.588676507518E-01
 -0.105241722483E+00
 -0.408630743279E+00
 -0.409090118651E+00
  0.277685186832E+00
  0.778436328365E+00
  0.479070163657E+00
  0.728919964895E+00
  0.327423033036E+00
  0.246956284193E+00
  0.538738681013E+00
  0.645642541025E+00
  0.613314636349E-02
 -0.327459781938E+00
  0.100612302856E+00
 -0.235235329710E-01
  0.218972085459E+00
  0.222483341322E+00
  0.261054134918E+00
 -0.148525419259E+01
 -0.121567164583E+01
 -0.114608467339E+01
 -0.133131337699E+01
 -0.112105353292E+01
 -0.889899120175E+00
 -0.895522210199E+00
 -0.100822768003E+01
 -0.126461090053E+01
 -0.126846302572E+01
 -0.124466587440E+01
 -0.120367282771E+01
 -0.124651507082E+01
 -0.119891542923E+01
 -0.131647051636E+01
 -0.130617373140E+01
 -0.131930275279E+01
 -0.120738810602E+01
 -0.120497999079E+01
 -0.141830686420E+01
 -0.147635509913E+01
 -0.136926822042E+01
 -0.674594117980E+00
 -0.479308512884E+00
 -0.436902689128E+00
 -0.527332723626E+00
 -0.641782696753E+00
 -0.114273996933E+01
 -0.126402742284E+01
 -0.117957752438E+01
 -0.117985170102E+01
 -0.134143920190E+01
 -0.477097204737E+00
 -0.757922167125E+00
 -0.739865791504E+00
 -0.539834782784E-01
  0.957723523272E+00
  0.991293518356E+00
  0.990089359725E+00
  0.822623779559E+00
  0.838116113573E+00
  0.214294263078E+00
 -0.984863370154E-01
  0.753796052392E+00
  0.827369648275E+00
  0.954649459851E+00
 -0.334437148374E+00
 -0.700223172530E+00
 -0.628455803950E+00
 -0.437957018203E+00
 -0.435593664546E+00
 -0.529345771854E+00
 -0.161506126928E+00
  0.687795914926E-01
  0.543722387907E+00
  0.395788177296E+00
  0.553096498809E-01
  0.696135309531E-01
  0.499023379132E-01
 -0.886962382158E+00
 -0.858715789963E+00
 -0.110535343352E+01
 -0.620922072304E+00
 -0.663709157492E+00
 -0.137452204965E+01
 -0.148336535597E+01
 -0.218635277995E+00
  0.312313087836E+00
 -0.293493419011E+00
 -0.293502132070E+00
 -0.350142639304E+00
 -0.362889703200E+00
 -0.274583690563E+00
 -0.841690608295E-01
 -0.874278545141E+00
 -0.821291600861E+00
 -0.765115771129E+00
 -0.399115291568E+00
 -0.326504454043E+00
 -0.155344286742E+00
 -0.319046015391E+00
 -0.322075027907E+00
 -0.185501207990E-01
  0.244365187055E+00
  0.244652528982E+00
 -0.609370908740E+00
 -0.601280135449E+00
 -0.511614731409E+00
 -0.145940294996E+01
 -0.148595422735E+01
 -0.141085421014E+01
 -0.121024527298E+01
 -0.142434987564E+01
 -0.133728129856E+01
 -0.702228558515E+00
 -0.991308761461E+00
 -0.982828276818E+00
 -0.186464698358E+00
 -0.498121803612E+00
 -0.223828717912E+00
 -0.286496518072E+00
 -0.756318054534E+00
 -0.145182555699E+01
 -0.148581990750E+01
 -0.804205795650E+00
 -0.814089450340E+00
 -0.698043741969E+00
 -0.119345056648E+01
 -0.883393614505E+00
 -0.821979619643E+00
 -0.885040398219E+00
 -0.618350167312E+00
 -0.344838415587E+00
 -0.433070959743E+00
 -0.404868756634E+00
 -0.434357483103E+00
 -0.143527921167E+00
 -0.660424532465E+00
 -0.449410016009E+00
  0.298490245781E+00
  0.545252939963E+00
  0.584826710274E+00
  0.718339434458E+00
  0.707927011949E+00
  0.239968229324E+00
  0.634208671088E-01
 -0.236851376375E+00
 -0.254219213764E+00
 -0.124447928844E+01
 -0.141208895387E+01
 -0.118211061474E+01
 -0.130876822439E+01
 -0.112227245917E+01
 -0.117026963377E+01
 -0.120842007040E+01
 -0.108652923578E+01
 -0.106727779246E+01
 -0.114750503970E+01
 -0.390017073858E+00
 -0.511978465766E+00
 -0.167043913454E+00
 -0.999850766102E+00
 -0.110662899911E+01
 -0.119047876028E+01
 -0.114541312873E+01
 -0.220252723438E+00
 -0.447211796183E+00
 -0.295679593272E+00
 -0.240697746147E+00
 -0.163303222800E+00
 -0.763677155775E+00
 -0.446083805717E+00
 -0.239123120782E+00
 -0.736455465626E+00
 -0.656106754960E+00
 -0.596697039043E+00
 -0.415331144569E+00
 -0.589462379505E-01
  0.537641255991E+00
  0.383137397633E+00
  0.125265158104E+00
  0.374295570464E+00
  0.668634091906E+00
  0.451889003535E+00
  0.468406839366E+00
  0.129056178554E+00
  0.719343604124E-01
 -0.591226675458E-02
 -0.286388173964E+00
 -0.606221099632E+00
 -0.503812928101E+00
  0.507286327633E+00
  0.668542512097E+00
  0.647772896255E+00
 -0.137428808403E+01
 -0.110950270743E+01
 -0.112415935401E+01
 -0.136852848722E+01
 -0.735818948886E+00
 -0.113037673031E+01
 -0.950427644890E+00
 -0.932055266738E+00
 -0.115002452116E+01
 -0.907455711064E+00
 -0.884772815225E+00
 -0.977984660852E+00
 -0.110214774583E+01
 -0.112796782456E+01
 -0.129824946888E+01
 -0.119824445403E+01
 -0.127178432424E+01
 -0.139933644864E+01
 -0.114644307916E+01
 -0.113858175300E+01
 -0.142963260576E+01
 -0.144616914425E+01
 -0.768553744374E+00
 -0.108861983085E+01
 -0.857822981804E+00
 -0.940141087322E+00
 -0.890333068369E+00
 -0.930627571244E+00
 -0.922844166939E+00
 -0.545064516135E+00
 -0.546068640460E+00
 -0.455894677112E+00
 -0.393440917055E+00
 -0.163043265522E+00
 -0.149516752047E+00
  0.176730483994E-01
  0.112060818047E-01
 -0.116174944578E+01
 -0.124065154179E+01
 -0.109398043849E+01
 -0.123083560800E+01
 -0.126116693092E+01
 -0.105605578359E+01
 -0.109407272587E+01
 -0.126568914812E+01
 -0.115584163977E+01
 -0.123514328146E+01
 -0.121327635684E+01
 -0.124720703612E+01
 -0.551176279693E+00
 -0.872933909665E+00
 -0.109662559732E+01
 -0.620181050463E+00
 -0.978534515234E+00
  0.249126367390E+00
  0.241580968676E+00
  0.594457019961E+00
 -0.137915304129E-02
 -0.164500522373E+00
 -0.218538842670E+00
  0.321742843039E+00
  0.402044300400E+00
  0.399083682861E+00
  0.619360713936E+00
  0.620456347729E+00
 -0.127109127258E+01
 -0.123405129592E+01
 -0.120621573739E+01
 -0.128412123931E+01
 -0.117477309010E+01
 -0.139596429748E+01
 -0.109630952811E+01
 -0.109320110069E+01
 -0.641307332771E+00
 -0.526826159506E+00
 -0.508318354989E+00
 -0.529676060568E+00
 -0.914731528031E+00
 -0.800541072306E+00
 -0.955228522317E+00
 -0.116329779777E+01
 -0.115579165853E+01
 -0.299394219829E+00
 -0.248568949459E+00
 -0.586105756293E+00
 -0.582120908510E+00
 -0.733990834329E+00
 -0.839662582762E+00
 -0.102533128206E+01
 -0.920483536765E+00
 -0.950018788244E+00
 -0.930190028991E+00
 -0.961249662293E+00
 -0.870346174335E+00
 -0.929729020128E+00
 -0.960122980887E+00
 -0.135245190355E+01
  0.685524137186E+00
  0.432146544143E+00
  0.641836995271E+00
  0.522446890998E+00
 -0.109318889122E+01
 -0.994158128164E+00
 -0.107255550314E+01
 -0.734953982216E+00
 -0.783214587516E+00
 -0.659545579555E+00
 -0.999615997905E+00
 -0.102953579126E+01
 -0.102950429191E+01
  0.230093616398E+00
  0.700658947076E+00
  0.438147722598E+00
  0.362963342224E+00
  0.679138739413E+00
  0.717009852947E+00
  0.692415599416E+00
  0.674399536641E+00
  0.324584792159E+00
 -0.592452349132E+00
 -0.336552232180E+00
 -0.299727170080E+00
 -0.141921354050E+01
 -0.116406868433E+01
 -0.658971692134E+00
 -0.564981640684E+00
 -0.796789488492E+00
 -0.122096254421E+01
  0.672098522356E-02
 -0.137326083694E-01
 -0.119639243959E+00
 -0.390214809423E+00
 -0.335701217692E+00
 -0.390647674510E+00
 -0.319869423010E+00
 -0.104793189750E+01
 -0.715220266050E+00
 -0.642602101738E+00
 -0.117073867120E+01
 -0.113657436734E+01
 -0.117777402034E+01
 -0.651550254920E+00
 -0.393838931849E+00
 -0.769724232801E+00
 -0.781435119792E+00
 -0.666697471235E+00
 -0.922679774203E+00
 -0.917405791714E+00
  0.413210634819E+00
 -0.106865364673E+01
 -0.104486400644E+01
 -0.107083283393E+01
 -0.761435391973E+00
 -0.366691567456E+00
 -0.708576079737E+00
 -0.746899064260E+00
 -0.439183877011E+00
  0.446359261317E-01
  0.875283673027E-01
 -0.219997937018E-01
  0.544474168643E-01
  0.106008411216E-01
  0.688336629602E-01
  0.559073574342E+00
  0.546043543895E+00
  0.139044762383E+00
 -0.811225807364E-01
  0.287294039259E+00
  0.676194245141E-01
  0.291146662865E+00
  0.235907436277E+00
 -0.157818261436E+00
 -0.118320537867E+00
 -0.126348792218E+01
 -0.125404803167E+01
 -0.125686409666E+01
 -0.105388217041E+01
 -0.116349273329E+01
 -0.110739190027E+01
 -0.109559848360E+01
 -0.115408872542E+01
 -0.109024626683E+01
 -0.106908199557E+01
 -0.679727033887E+00
 -0.585834167824E+00
 -0.224169577695E+00
 -0.208798164208E+00
 -0.119260771684E+01
 -0.953504089262E+00
 -0.121543040594E+01
 -0.117947294567E+01
 -0.625922176485E-01
 -0.241871147709E+00
  0.179993620317E+00
  0.302718850765E+00
  0.576936811440E-02
 -0.312516173428E+00
 -0.590973479839E+00
 -0.463947479692E+00
 -0.870135308767E+00
 -0.748620514108E+00
 -0.608983663253E+00
 -0.634492675844E+00
 -0.727282372731E+00
 -0.110657407917E+01
 -0.376536442642E+00
 -0.840494819670E-01
 -0.432648569103E+00
 -0.326176603422E+00
 -0.384314076638E+00
 -0.154246337723E+00
 -0.144066306267E+00
  0.301240751064E+00
  0.376394433814E+00
  0.247611443637E+00
  0.450531372083E+00
  0.256287368396E+00
  0.386012524250E+00
  0.492341844501E-01
  0.113637346416E+00
 -0.438004469050E-03
  0.445163017293E-01
  0.781269384689E-01
  0.260297911608E+00
  0.202803047613E+00
  0.208951285835E+00
 -0.943343302034E-01
 -0.118265972464E+00
 -0.843210820705E+00
 -0.905929844845E+00
 -0.302320140241E+00
 -0.282116929450E+00
  0.816403644887E-01
 -0.184072263922E+00
  0.505484554372E-01
 -0.118377210220E-02
  0.917665340819E+00
  0.915077397628E+00
  0.966112708632E+00
  0.891494469338E+00
  0.885082530461E+00
  0.987881966647E+00
  0.973585141428E+00
  0.715510987214E+00
  0.795978387679E+00
  0.896497894069E+00
  0.918098997430E+00
  0.770998900189E+00
  0.794538110778E+00
  0.717871954636E+00
 -0.107954736243E+01
 -0.134274459292E+01
 -0.120776705775E+01
 -0.108639647497E+01
 -0.110786086032E+01
 -0.100213815881E+01
 -0.110056000760E+01
 -0.896157774980E+00
 -0.116743744737E+01
 -0.111755414414E+01
 -0.107206572700E+01
  0.709707849559E+00
  0.490841297796E+00
  0.453319830792E+00
  0.497831115260E+00
  0.486536389864E+00
 -0.977301496512E+00
 -0.119442246581E+01
 -0.104913434693E+01
 -0.129516037156E+01
 -0.120598835998E+01
 -0.624802158112E+00
 -0.612921924888E+00
 -0.331420950607E+00
 -0.124621533671E+01
 -0.125771040294E+01
 -0.125465341742E+01
 -0.925172224457E+00
 -0.898349210736E+00
 -0.119176867777E+01
 -0.119565865052E+01
 -0.240421104158E+00
 -0.355498810906E+00
 -0.435302421897E+00
 -0.102450478642E+00
 -0.779214069726E-01
 -0.258582684266E+00
 -0.910251881622E-01
 -0.103220585622E+01
 -0.101366160906E+01
 -0.885609601222E+00
 -0.833909887236E+00
 -0.106424147584E+01
 -0.112813282365E+01
 -0.101984585499E+01
 -0.119783496847E+01
 -0.108365732547E+01
 -0.114623937332E+01
 -0.126122335695E+01
 -0.113085135074E+01
 -0.114904822540E+01
 -0.116750454900E+01
 -0.144477113157E+01
 -0.126594533089E+01
 -0.122601020582E+01
 -0.109717513342E+01
 -0.124270448049E+01
 -0.143733815995E+01
 -0.111535595747E+01
 -0.147326199474E+01
 -0.107879603357E+01
 -0.103948382246E+01
 -0.105647026076E+01
 -0.128753637717E+01
 -0.115120543290E+01
 -0.121098269474E+01
 -0.104047553589E+01
 -0.998455984029E+00
 -0.116339155626E+01
 -0.782138037973E+00
  0.270760672884E+00
 -0.674468255958E+00
 -0.743920862234E+00
 -0.816219264522E+00
 -0.749754099012E+00
 -0.713935620062E+00
 -0.665984643446E+00
  0.180688434660E-01
  0.275830121383E+00
  0.215299970143E+00
  0.391730784097E+00
  0.674702157312E+00
  0.816207312136E+00
  0.796832766973E+00
 -0.146478415563E+01
 -0.998649334619E+00
 -0.145986153431E+01
 -0.105747419943E+01
 -0.968318295488E+00
 -0.126184598582E+01
 -0.123068368679E+01
 -0.106884686544E+01
 -0.126866113064E+01
 -0.126289042776E+01
 -0.121609619697E+01
 -0.918506789570E+00
 -0.755997496202E+00
 -0.604730993076E+00
 -0.710698395709E+00
 -0.738924228257E+00
 -0.475541781106E+00
 -0.445993309480E+00
 -0.389112277893E+00
 -0.309328905989E+00
 -0.285224113576E+00
  0.307236543221E+00
  0.410349186018E+00
  0.754979436827E+00
  0.232181907064E+00
  0.245517263934E+00
  0.415606120810E+00
 -0.122697850877E+01
 -0.123406876215E+01
 -0.142326988948E+01
 -0.122764378920E+01
 -0.123879458687E+01
 -0.694600673006E+00
 -0.672856933166E+00
 -0.610780202994E+00
 -0.367729209187E+00
 -0.551466558926E-01
  0.784063539478E-01
  0.117387300332E+00
 -0.328392829552E-01
 -0.138126253332E+00
  0.914437856251E+00
  0.626623855660E+00
  0.904366325924E+00
  0.930986377016E+00
  0.320366376740E+00
  0.330726504491E+00
  0.423551932355E+00
  0.592789418328E+00
  0.712457578750E+00
  0.703001993643E+00
  0.318347500390E+00
  0.270759031535E+00
  0.391639816537E+00
  0.642958454380E+00
  0.569067336702E+00
 -0.447029270052E-01
 -0.108796576482E+00
 -0.320774489628E+00
 -0.441811761324E+00
 -0.334838840211E+00
 -0.400173386258E+00
 -0.389241947671E+00
 -0.427167659709E+00
 -0.460845388502E+00
 -0.375063707883E+00
 -0.787658462062E+00
 -0.393478253202E+00
 -0.675242606262E+00
 -0.365513115554E+00
 -0.379922683889E+00
 -0.745099963754E+00
 -0.782572393757E+00
  0.697748547327E+00
  0.689452168869E+00
  0.720433414936E+00
  0.672278373945E+00
  0.509280398079E+00
 -0.113858689612E+01
 -0.110059451613E+01
 -0.113552964036E+01
 -0.119507700196E+01
 -0.125944747250E+01
 -0.122817187675E+01
 -0.125162292488E+01
 -0.964923745841E+00
 -0.931353024104E+00
 -0.100612941727E+01
 -0.896966947832E+00
 -0.891807158212E+00
 -0.219471255421E+00
  0.167996365968E+00
 -0.514140268236E-01
 -0.171459630250E+00
 -0.724324266758E+00
 -0.623765642151E+00
 -0.514891305554E+00
 -0.816148917391E+00
 -0.101095508205E+01
 -0.119331542861E+01
 -0.122861892562E+01
 -0.969253032717E+00
 -0.954655399238E+00
 -0.134799866389E+01
 -0.967677545285E+00
 -0.128313870023E+01
 -0.129915276596E+01
 -0.127450709499E+01
 -0.133175071754E+01
 -0.128530899781E+01
 -0.104198854426E+01
 -0.105509720189E+01
 -0.906185057033E+00
 -0.806986492384E+00
 -0.801560588614E+00
  0.128923843219E+00
  0.569863459298E+00
 -0.265651623929E+00
  0.508991816499E+00
  0.590050140294E+00
  0.585441842743E+00
 -0.272353258002E-01
 -0.266990148354E+00
 -0.277316956349E+00
 -0.129503523949E+00
  0.214250134030E+00
  0.405943946551E+00
  0.399100560666E+00
  0.409027981861E+00
  0.668958008918E+00
  0.673819410855E+00
  0.660955889784E+00
  0.923160206437E+00
  0.717077430510E+00
  0.696543792962E+00
  0.759516022314E+00
  0.696916988635E+00
  0.428261626668E+00
  0.647752013199E+00
  0.570020075654E+00
  0.591172949215E+00
 -0.120215267837E+01
 -0.120818845496E+01