# vtk DataFile Version 3.0
MachLine results file. Generated by MachLine, USU AeroLab (c) 2022.
ASCII
DATASET POLYDATA
POINTS                 500 float
  0.876500276797E+00  0.111790493624E+00 -0.468241551242E+00
  0.806354148291E+00  0.274584580514E+00 -0.523828498344E+00
  0.214853690830E+00  0.878746938450E+00  0.426194450576E+00
  0.584323201073E+00  0.363360108154E+00 -0.725627885690E+00
 -0.500018328451E+00 -0.285326863330E+00  0.817661453339E+00
 -0.437177895334E+00  0.792013966728E+00  0.426133035962E+00
 -0.801845265676E+00 -0.207454055169E-01  0.597171498033E+00
 -0.688562108756E+00 -0.368516109380E+00 -0.624562326363E+00
 -0.599870827695E+00 -0.793378629050E+00  0.103466618030E+00
 -0.798154561916E+00  0.586377158845E+00  0.138242984910E+00
  0.798636220821E+00 -0.595421363395E+00  0.874847804230E-01
 -0.526933286143E+00 -0.640137542167E+00 -0.559075342922E+00
 -0.812428427914E+00 -0.574852008337E+00  0.974947076953E-01
  0.516628308867E+00 -0.728122229401E+00 -0.450481086761E+00
 -0.223863489016E+00 -0.960515245359E+00 -0.165213806078E+00
  0.718572992265E-01 -0.723761693326E+00  0.686298433498E+00
 -0.759950610904E+00 -0.192142634872E-01 -0.649696760855E+00
  0.248494545290E+00 -0.708301381217E+00  0.660726580612E+00
 -0.160908674084E-01  0.243387568211E+00 -0.969795636011E+00
 -0.110738396409E+00 -0.838398237197E+00  0.533690362875E+00
  0.696195813868E+00 -0.509154740335E+00 -0.506036401009E+00
  0.108620700326E+00 -0.773374098532E+00  0.624575093308E+00
  0.156806240359E+00 -0.326318744071E+00 -0.932163011631E+00
 -0.962775407985E-01 -0.502713304811E+00  0.859075065582E+00
  0.740450093351E+00  0.584422731012E+00  0.331939347975E+00
  0.215835423872E+00  0.937946307054E+00  0.271425486803E+00
 -0.232639205863E+00 -0.700396301300E+00 -0.674777015777E+00
 -0.838366151870E+00  0.507181150017E+00 -0.199773562982E+00
  0.756163187169E+00  0.633354782420E+00  0.164556841113E+00
 -0.909475742641E-01  0.973272148950E+00 -0.210878787018E+00
  0.850925401187E+00  0.356375339119E+00 -0.385904883725E+00
  0.322706867452E+00  0.551362803654E+00  0.769323947662E+00
 -0.739494184408E+00 -0.393386882029E+00  0.546255537523E+00
 -0.470221027399E+00  0.811447231016E+00  0.347052700133E+00
 -0.540407314108E+00 -0.818060145808E+00  0.196818527328E+00
 -0.109152775025E+00  0.327364845963E+00  0.938572282422E+00
 -0.567288486473E+00 -0.739328182229E+00 -0.362736284479E+00
  0.222153693707E+00  0.864831982730E+00 -0.450237024265E+00
 -0.235051589200E+00  0.654623893767E+00  0.718483338793E+00
  0.959787318357E+00  0.993506457596E-01  0.262559998300E+00
 -0.632530424285E-01 -0.890005753842E+00  0.451540486282E+00
 -0.514909019231E+00  0.687453221397E+00 -0.512129642089E+00
 -0.382435524857E-01  0.994975516737E+00  0.925264923512E-01
 -0.508029129919E+00  0.845391317515E+00 -0.164984615717E+00
  0.762037572141E+00 -0.219813725488E+00  0.609081821049E+00
 -0.639345652891E+00  0.381892841870E+00  0.667379197652E+00
  0.130851681091E+00 -0.237279670260E-01  0.991117965298E+00
  0.158888577146E+00  0.623071946644E+00  0.765856232826E+00
  0.678015895384E+00  0.456889857802E+00 -0.575800402434E+00
 -0.770805631193E-01 -0.792290767702E+00 -0.605255257063E+00
 -0.148599953727E+00  0.447987837058E+00 -0.881603624993E+00
  0.865535533565E+00  0.378077943087E+00 -0.328489435276E+00
 -0.894473391764E-01  0.902878459754E+00  0.420487408166E+00
 -0.585309241100E-01  0.631296679716E+00  0.773329575991E+00
 -0.894653181085E+00  0.301853949111E+00  0.329362837886E+00
  0.426005032168E+00  0.293218620822E+00 -0.855886997781E+00
  0.299243876075E+00  0.914924114228E+00  0.270863374853E+00
  0.683920569271E+00  0.439255981544E+00  0.582500504382E+00
  0.498104411168E+00 -0.430191390034E+00 -0.752879381785E+00
 -0.698053829425E+00 -0.597590223506E+00  0.394470247288E+00
 -0.292688505634E+00 -0.520209715005E+00  0.802318696706E+00
 -0.471578428189E-01 -0.685070837970E+00 -0.726948474669E+00
  0.702553918283E+00 -0.340642589212E+00  0.624804464069E+00
  0.959825058245E-01  0.259821098639E+00 -0.960874786472E+00
  0.102416217522E+00 -0.375936265055E+00 -0.920968426715E+00
  0.215495487665E+00  0.146667546156E+00 -0.965427535189E+00
  0.474486966267E+00  0.349949017204E+00  0.807711460981E+00
  0.665013855877E+00  0.746031975876E+00  0.345378410118E-01
 -0.499297213646E+00  0.800881494769E+00  0.330592080639E+00
 -0.394690747292E+00  0.843927387110E+00 -0.363325995888E+00
 -0.381771668830E+00  0.698041104457E+00  0.605796178072E+00
 -0.886308039809E+00  0.235472220041E+00  0.398761698461E+00
  0.940355545712E-01  0.910499613194E+00 -0.402675761438E+00
 -0.650620062203E+00  0.246881602471E+00  0.718152497051E+00
 -0.847249758909E+00 -0.226689806819E+00 -0.480395230528E+00
  0.492457370705E+00  0.838414120928E+00 -0.233554061979E+00
  0.944724124852E+00 -0.197966463833E+00  0.261353414213E+00
  0.970318686881E+00 -0.189172036117E+00 -0.150650544777E+00
 -0.124535498251E+00 -0.527962881594E+00  0.840086962960E+00
 -0.102942380337E+00 -0.201630410545E+00  0.974036982806E+00
  0.344206339454E+00  0.894334979738E+00  0.285809271887E+00
 -0.720025664412E+00 -0.449467636476E+00 -0.528717208296E+00
  0.131311059173E+00 -0.979711743945E+00  0.151401137762E+00
  0.423215897606E+00 -0.594059097730E+00 -0.684092166610E+00
 -0.318886782258E+00  0.863682933999E+00 -0.390337046181E+00
 -0.696069167929E+00 -0.371891948033E+00  0.614153150644E+00
 -0.404492820371E+00  0.317302149095E+00 -0.857732420076E+00
  0.896729223549E-01  0.718587285146E+00 -0.689631119239E+00
  0.393175091989E+00 -0.576059979891E+00 -0.716636760575E+00
 -0.178629738130E+00  0.555546516990E+00  0.812071107795E+00
 -0.480817484932E+00 -0.409105724253E+00  0.775530175149E+00
 -0.773814541229E+00  0.148205350003E+00  0.615829708615E+00
 -0.754091419469E+00  0.547583032748E+00 -0.362627844117E+00
 -0.544676593100E+00 -0.619369437723E+00  0.565428075482E+00
  0.332267073305E+00  0.377590813304E+00 -0.864305368320E+00
  0.830164157789E+00 -0.548067071698E+00 -0.102225026501E+00
 -0.912374285764E+00  0.811682368260E-01 -0.401229211308E+00
 -0.828445578676E+00 -0.280590392534E+00  0.484713270697E+00
  0.940759698242E+00  0.196205688425E+00  0.276540264686E+00
  0.888315126212E+00 -0.269412841506E+00 -0.371904500343E+00
  0.376320376027E+00 -0.616804259831E+00 -0.691328778254E+00
  0.783471809431E-01  0.996892702652E+00  0.816447406959E-02
  0.194423218188E+00 -0.643273197582E+00 -0.740539806831E+00
  0.828219896687E+00  0.893800353713E-01 -0.553229619606E+00
 -0.111779056791E+00  0.328983578258E+00  0.937696778122E+00
  0.294926855041E+00  0.897100199891E+00  0.328982342279E+00
  0.301034396598E+00 -0.837094294690E+00  0.456783793345E+00
  0.409596330635E+00  0.263170537950E+00  0.873482749621E+00
  0.689693412538E+00 -0.331982639858E+00 -0.643514198394E+00
 -0.178016498612E-01  0.692376093044E+00  0.721317161202E+00
 -0.457176749179E+00  0.623201169219E+00 -0.634515344727E+00
  0.922963169481E+00  0.338827578039E+00 -0.182578367125E+00
 -0.764709330733E+00  0.116316719796E+00 -0.633790233584E+00
 -0.267429119737E+00  0.104186212285E+00  0.957928441527E+00
  0.239783471374E-01  0.994924830259E+00 -0.977221622887E-01
 -0.385320382387E+00 -0.247000718511E+00  0.889111268611E+00
 -0.827254284997E+00  0.267969917212E+00 -0.493804082024E+00
  0.904207966628E+00  0.171591478057E+00  0.391106529919E+00
  0.297335420878E+00  0.216690802318E-02  0.954770627953E+00
  0.824409846688E+00  0.655585964060E-01 -0.562183666715E+00
  0.409139167712E+00  0.311058376436E+00 -0.857815730733E+00
  0.586075150621E+00 -0.631719383083E-01  0.807790334205E+00
  0.172487929157E+00 -0.481874785579E+00 -0.859095224826E+00
  0.525838281500E+00 -0.280280280744E+00  0.803079738218E+00
 -0.856008146514E+00  0.237734709224E+00  0.459055836616E+00
 -0.476845231164E+00 -0.166950309189E+00 -0.862986801624E+00
 -0.293492093690E+00 -0.260543084483E+00 -0.919771543412E+00
  0.649156901987E-01 -0.106067233988E+00 -0.992237721033E+00
  0.767238557345E+00  0.477571505499E+00  0.428100984885E+00
  0.571100445722E+00  0.655323003754E+00 -0.494364280310E+00
 -0.461252487107E+00  0.836813138484E+00 -0.294940526884E+00
  0.658767425272E+00  0.224637380463E+00 -0.718027525029E+00
  0.111450064831E+00  0.578914259896E+00 -0.807735824845E+00
  0.556114299602E+00  0.170061626688E+00  0.813520699741E+00
  0.387699046194E+00  0.918354712561E+00 -0.794611319952E-01
 -0.775672030968E+00  0.564327217326E+00  0.282608726262E+00
 -0.532096864172E+00 -0.749633718098E+00  0.393601595307E+00
 -0.206340181138E+00 -0.659814621783E-01  0.976253131261E+00
  0.485907333289E+00  0.832384994872E+00 -0.266513196236E+00
  0.391401725444E-01 -0.990562878204E+00 -0.131351555822E+00
  0.913176204706E+00  0.339254937748E+00 -0.225865682149E+00
  0.464180912593E+00  0.163150886933E+00  0.870584785347E+00
 -0.271798263124E+00  0.772728868975E+00  0.573598988158E+00
 -0.299094791788E+00  0.786947439848E+00  0.539681417544E+00
 -0.780919082387E+00 -0.251953069088E+00 -0.571563677766E+00
 -0.370405703373E+00 -0.285274093723E+00  0.883978679810E+00
 -0.606553145054E+00  0.688306469799E+00 -0.397903865095E+00
  0.294541933524E+00 -0.948370371747E+00 -0.117637950457E+00
 -0.986124013606E+00 -0.735102256793E-01  0.148847830050E+00
  0.622251308127E+00  0.317695103158E+00 -0.715453094873E+00
 -0.403004457089E+00 -0.906662588503E+00  0.124701075274E+00
 -0.663957557909E+00 -0.513588058727E+00  0.543495784003E+00
 -0.736537294787E+00 -0.459919267084E+00  0.495970847080E+00
  0.256922146245E+00 -0.617294820126E+00  0.743598087555E+00
  0.432888341224E+00  0.359043720680E+00  0.826858688455E+00
  0.853054192719E+00 -0.478655124876E+00 -0.207816784006E+00
  0.874885307896E+00  0.241827584258E-01 -0.483726050801E+00
  0.636697401236E+00  0.425127924827E+00 -0.643337133074E+00
  0.508007640375E+00 -0.435030173579E-01  0.860253291073E+00
 -0.982236788887E+00 -0.152964840472E+00  0.108686007090E+00
 -0.969051050570E+00  0.165727844769E+00 -0.182959948778E+00
[...]
CELL_DATA                 996
SCALARS C_p_inc float 1
LOOKUP_TABLE default
  0.984578867670E+00
  0.973016909978E+00
  0.898514167983E+00
 -0.103366406661E+01
 -0.186874427404E+00
  0.242511388863E+00
 -0.396675791904E+00
 -0.306620694566E+00
 -0.118081084182E+01
 -0.117667347621E+01
 -0.150957761242E+01
 -0.832941018614E+00
  0.921347483850E+00
  0.936931214615E+00
  0.706891282895E+00
 -0.189667712536E+00
 -0.685820880871E+00
 -0.626968700551E+00
 -0.859522372302E+00
 -0.820738499938E+00
 -0.746904658846E+00
 -0.658890434453E+00
 -0.442812455970E+00
  0.886639286044E+00
  0.713552772338E+00
 -0.735452956614E+00
 -0.106647470779E+01
 -0.506785534391E+00
  0.609102214711E+00
  0.603036212120E+00
  0.785005871759E+00
 -0.102739060893E+01
 -0.978104099124E+00
 -0.984629150889E+00
 -0.867602692550E+00
  0.859686642019E+00
 -0.427148552257E+00
 -0.721796817785E+00
 -0.147213402312E+00
 -0.450252889603E+00
  0.184919194020E+00
  0.190846276544E+00
 -0.150828878483E-01
 -0.258899667116E+00
 -0.245226270819E+00
 -0.238437172272E+00
 -0.133621475255E+01
 -0.122538773766E+01
 -0.140278068561E+01
 -0.139884836435E+01
 -0.135198098701E+01
 -0.127497530655E+01
 -0.133822724118E+01
 -0.118021411857E+01
 -0.116147728203E+01
 -0.117965654325E+01
 -0.114617464271E+01
 -0.127640241704E+01
 -0.665407231731E+00
 -0.981112824942E+00
 -0.244243798251E+01
 -0.124414192413E+01
 -0.128877689801E+01
 -0.125083241427E+01
 -0.127793295379E+01
 -0.126400946941E+01
 -0.120655442661E+01
 -0.142530584922E+01
 -0.133522516637E+01
 -0.147576931027E+01
 -0.776653686671E+00
 -0.117085877809E+01
  0.288642531209E+00
  0.483460728787E+00
  0.409463374838E+00
  0.647722643360E+00
  0.619105231598E+00
  0.451379649899E+00
  0.415229171940E+00
  0.530145249586E+00
 -0.535929051432E+00
 -0.205236845669E+00
 -0.866059345329E+00
 -0.903593989108E+00
 -0.736953657636E+00
 -0.805985173814E+00
 -0.836690100761E+00
 -0.487678879396E+00
 -0.125903674709E+01
 -0.126836144478E+01
 -0.121589755547E+01
 -0.123095585869E+01
  0.282844766196E+00
 -0.670299960170E+00
 -0.674407471835E+00
 -0.112761441761E+01
 -0.113585297402E+01
 -0.965280738521E+00
 -0.878690069111E+00
  0.551252609964E+00
  0.631354994889E+00
 -0.677544658054E+00
 -0.641562034940E+00
 -0.999469496783E+00
 -0.819367982325E+00
 -0.734931378712E+00
 -0.737079752318E+00
 -0.309003552196E+00
 -0.495595008578E+00
 -0.444224271256E+00
 -0.110525086410E+01
 -0.824403403811E+00
 -0.716820993041E+00
 -0.104443916131E+01
 -0.694277408630E+00
 -0.689322411950E+00
 -0.117812205717E+01
 -0.118316028850E+01
  0.706447614713E+00
  0.648829955065E+00
  0.837201070865E+00
  0.735130264515E+00
 -0.305369773246E+00
 -0.390283110365E+00
  0.667122980738E+00
  0.267696419908E+00
  0.893034557112E-02
  0.536824687504E+00
  0.509971159285E+00
  0.353056100994E+00
  0.303391466705E+00
  0.597829279499E+00
 -0.230904124239E+00
 -0.755179904802E+00
 -0.893991703134E+00
 -0.656517371265E+00
 -0.661798200987E+00
 -0.756444035923E+00
 -0.106510308996E+00
 -0.142940197630E-01
 -0.310278927842E-01
 -0.292873901113E+00
 -0.106684355277E+01
 -0.107966052119E+01
 -0.755387565848E+00
 -0.757538579376E+00
 -0.117312473393E+01
 -0.129815517680E+01
 -0.118541629103E+01
 -0.129189191526E+01
 -0.126582340967E+01
 -0.129228837340E+01
  0.314712480441E+00
 -0.854915645168E+00
 -0.122207277470E+01
  0.165998293955E+00
  0.524117906529E+00
  0.437678177895E+00
 -0.407331025109E+00
 -0.714242319969E+00
 -0.665570165793E+00
 -0.724593009293E+00
 -0.136920129769E+01
 -0.132698843909E+01
 -0.123899427949E+01
 -0.110238179392E+01
 -0.106327049703E+01
 -0.103602048658E+01
 -0.114753217846E+01
 -0.987539897863E+00
 -0.124421499768E+01
 -0.113866080045E+01
  0.399155231705E+00
 -0.203375277274E+00
 -0.814177050475E+00
 -0.678581820242E+00
 -0.564560963954E+00
 -0.658878213813E+00
 -0.663887839656E+00
 -0.996988586453E+00
 -0.100544786710E+01
 -0.980391972303E+00
 -0.879949421428E+00
 -0.925487339190E+00
 -0.100401130888E+01
 -0.495794857335E+00
 -0.118464242404E+01
 -0.951536087090E+00
  0.869552212801E+00
  0.815626224951E+00
  0.651049745725E+00
  0.646308371625E+00
  0.631280268616E+00
  0.493181815578E+00
  0.245699182343E+00
  0.336186221587E+00
  0.704110390014E+00
  0.752611405364E+00
  0.626699049454E+00
  0.492998844917E+00
 -0.946540321543E+00
 -0.116808970072E+01
 -0.126031519872E+01
 -0.124834621719E+01
 -0.915268933675E+00
 -0.115894736924E+01
 -0.116377115241E+01
  0.614462069106E+00
  0.546020458448E+00
 -0.925580194959E-01
 -0.546586398678E+00
 -0.981980541841E+00
 -0.905297794343E+00
 -0.167884291554E+01
 -0.120814792776E+01
 -0.119254568316E+01
 -0.134819219357E+01
 -0.998867970776E-01
 -0.342145824793E+00
 -0.374147235354E+00
 -0.573914502604E+00
 -0.564646641357E+00
  0.247908373619E+00
  0.110213543899E+00
  0.578333232859E+00
 -0.546991770006E-01
  0.118443688415E+00
  0.401350847262E+00
  0.384574460857E+00
  0.319871894561E+00
  0.210220706515E+00
 -0.215360867662E+00
 -0.919451293462E+00
 -0.484213795761E+00
 -0.324257409074E+00
 -0.338592872736E+00
 -0.536099942220E+00
 -0.543724443862E+00
 -0.126227236299E+01
 -0.123473331708E+01
 -0.149072586487E+01
 -0.134963722050E+01
 -0.142261668223E+01
 -0.121004522992E+01
  0.244396039694E+00
  0.537934805397E+00
  0.531062194764E+00
 -0.883752465359E-01
 -0.517655475062E-01
 -0.790090611565E+00
 -0.565330508895E+00
 -0.654726731318E+00
  0.801546507925E+00
  0.905564023151E+00
  0.912051582834E+00
  0.820893938522E+00
  0.793289923726E+00
  0.811715856664E+00
  0.688197630563E+00
  0.694479921109E+00
  0.645351989958E+00
  0.780364572916E+00
  0.794060343201E+00
 -0.100604784077E+00
 -0.901969162870E+00
 -0.102566534539E+01
 -0.115581736220E+01
 -0.115934467230E+01
 -0.139243652161E+01
 -0.647162784343E+00
 -0.592434297531E+00
 -0.716066983942E+00
 -0.102508858863E+01
 -0.118443908460E+01
 -0.110046190745E+01
 -0.963185269963E+00
 -0.144066077507E+01
 -0.148924858358E+01
 -0.117763120298E+01
  0.266198175976E+00
  0.908355040902E-01
 -0.165890181729E+00
 -0.107826462796E+00
  0.129846556893E-01
  0.227069910244E+00
  0.670543727615E+00
  0.675466154552E+00
  0.183789016063E+00
  0.244381736926E+00
  0.235184987100E+00
  0.359629806254E+00
 -0.101393874334E+01
 -0.914222564183E+00
 -0.657898835585E+00
 -0.125595476066E+01
 -0.117011993778E+01
 -0.121612543604E+01
 -0.119227139441E+01
 -0.984737111756E+00
 -0.103761228579E+01
 -0.637579142904E+00
 -0.185193237680E+01
 -0.753892619175E+00
 -0.131232685874E+01
  0.326778044069E+00
  0.481887756972E+00
  0.440090581731E+00
 -0.950265280851E+00
 -0.451374230712E+00
 -0.116708353781E+01
 -0.112271172303E+01
  0.140030840900E+00
 -0.354646434577E+00
  0.272766182657E+00
  0.172228922281E+00
 -0.116272160031E+01
 -0.120932020310E+01
 -0.118700491036E+01
 -0.147853839753E+01
 -0.122276057234E+01
 -0.132168021734E+01
 -0.126067129382E+01
 -0.107904968344E+01
 -0.105675819617E+01
 -0.712104600273E+00
 -0.775423944251E+00
 -0.108543307961E+01
 -0.115275682715E+01
 -0.979316330057E+00
 -0.112218607137E+01
 -0.176070322844E+01
 -0.179254039178E+01
 -0.135433851777E+01
  0.972891018398E-01
 -0.189669161459E+00
 -0.338844302365E+00
 -0.381910213650E+00
 -0.460265361521E+00
 -0.599442857774E+00
 -0.466552163206E+00
 -0.215320189953E+00
 -0.391951845148E+00
 -0.445041377615E+00
 -0.406565056732E+00
 -0.456721202178E+00
  0.607240728286E+00
  0.678841423577E+00
 -0.489782425222E+00
 -0.682096494064E+00
 -0.245250693307E+00
 -0.328210096237E+00
 -0.173442329624E+00
  0.387454174383E+00
 -0.103072492560E+01
 -0.645122663944E+00
 -0.911157019208E+00
 -0.129868108502E+01
 -0.128196055608E+01
 -0.876022656868E+00
 -0.771307623029E+00
 -0.118421634002E+01
 -0.110205333309E+01
 -0.559486405228E+00
 -0.557399772557E+00
 -0.130214479777E+01
 -0.107239355825E+01
 -0.125637118687E+01
  0.868161071336E+00
  0.675867772004E+00
  0.654416538279E+00
  0.945343175634E+00
 -0.132778763209E+01
 -0.117565364921E+01
 -0.117002706414E+01
 -0.654967376726E+00
 -0.122384017560E+01
 -0.122054112786E+01
 -0.126788300735E+01
 -0.123590023382E+01
 -0.122841716225E+01
 -0.124672316267E+01
 -0.121908916106E+01
 -0.138251645250E+01
 -0.775479751996E+00
 -0.801378356074E+00
 -0.116300469360E+01
 -0.113874280267E+01
 -0.144030842737E+01
  0.113641176723E+00
 -0.269889432181E-01
 -0.103888231947E+01
 -0.113813452706E+01
 -0.109121624532E+01
 -0.103215972547E+01
 -0.120956605997E+01
 -0.121418428472E+01
 -0.105616808940E+01
 -0.112291298216E+01
  0.382959273441E+00
 -0.707840897699E+00
 -0.993833294317E+00
 -0.999614689152E+00
 -0.916435484893E+00
 -0.997193190777E+00
 -0.931066694633E+00
 -0.784717300806E+00
 -0.309087543233E+00
 -0.281607162558E+00
 -0.782770941659E+00
 -0.663233306371E+00
 -0.851042094174E+00
 -0.860610619662E+00
 -0.798320993933E+00
 -0.140728610991E+01
 -0.133411563180E+01
 -0.132181568681E+01
 -0.102130545499E+01
 -0.113429302883E+01
 -0.115561822467E+01
 -0.116846036769E+01
 -0.152886539633E+01
 -0.166038936455E+01
 -0.161014007449E+01
 -0.869637584076E+00
 -0.932855527848E-01
 -0.492966356667E+00
 -0.456525272544E+00
  0.251866819848E+00
  0.504970911750E+00
  0.579012485493E+00
 -0.159325301775E+00
  0.171391429892E+00
 -0.945097808094E-01
 -0.511359263111E-01
  0.109670696646E+00
 -0.944412445238E+00
 -0.817192570907E+00
 -0.991546327345E+00
 -0.109034826223E+01
 -0.995183821531E+00
  0.281918005191E+00
  0.450223992462E+00
 -0.135431510732E+00
 -0.818438779447E-01
 -0.107183987679E+01
 -0.821872922540E+00
 -0.891526316428E+00
 -0.201872480754E+00
 -0.461282558969E+00
 -0.360195448979E+00
 -0.257711632184E+00
 -0.294614958437E+00
  0.946289729391E+00
  0.991438189922E+00
  0.982199290945E+00
  0.620530069583E+00
  0.524818897883E+00
  0.128548609283E+00
  0.202163480490E+00
  0.260965160039E+00
  0.524109963618E+00
 -0.640623156352E+00
 -0.555635794651E+00
 -0.291378947491E+00
 -0.192387233444E+00
 -0.575229562720E+00
 -0.621875334229E+00
 -0.421308891311E+00
  0.275185195158E+00
  0.150913574693E+00
 -0.139364274059E+01
 -0.118198528097E+01
 -0.139131237487E+01
 -0.144894349979E+01
 -0.120719457392E+01
 -0.120363801574E+01
 -0.127657170974E+01
 -0.151821280723E+01
 -0.158004596267E+01
 -0.164906836265E+01
  0.446953486456E+00
  0.585987061595E+00
  0.621778346281E+00
  0.956651619984E+00
  0.917162788739E+00
  0.582452077736E+00
  0.620439679975E+00
  0.606005646252E+00
  0.509948719370E+00
  0.664816858726E+00
  0.628493906089E+00
  0.578320460887E+00
  0.579828384593E+00
  0.639416339300E+00
  0.438047314759E+00
  0.504761823755E+00
  0.710463512696E+00
  0.805528789794E+00
  0.906425065754E+00
  0.875740128157E+00
 -0.730055210979E+00
 -0.581908872496E+00
 -0.133549524877E+01
 -0.128689457558E+01
 -0.116829880308E+01
 -0.119318877330E+01
 -0.117861692862E+01
 -0.114838864408E+01
 -0.120092871450E+01
 -0.411477907071E+00
 -0.378768174539E+00
  0.914971052675E-01
 -0.717634957961E+00
 -0.828337884340E+00
 -0.137364489168E+01
 -0.137173552540E+01
 -0.138082072924E+01
 -0.106053860826E+01
 -0.107089680128E+01
 -0.886715864551E-01
 -0.441938812770E+00
 -0.432529733069E+00
 -0.128478034554E+01
 -0.128468263381E+01
 -0.122027553613E+01
 -0.140043792098E+01
 -0.351838214043E+00
  0.475910830644E-01
 -0.433693259181E+00
 -0.352959727486E+00
 -0.148438846508E+00
 -0.101651569002E+01
 -0.115877350868E+01
 -0.926604660286E+00
 -0.114265327412E+01
 -0.959300586586E+00
 -0.106528398536E+01
 -0.122890247008E+01
 -0.123322880933E+01
 -0.109796131864E+01
 -0.114004392642E+01
 -0.117359954202E+01
 -0.127013819385E+01
 -0.124022267616E+01
 -0.119193160485E+01
 -0.119006078892E+01
 -0.118062222055E+01
 -0.417649751949E-01
 -0.890686860266E-01
  0.416839920429E+00
 -0.101531237575E+01
 -0.101088187227E+01
 -0.101106004531E+01
 -0.766083741438E+00
 -0.102082589692E+01
  0.341288075732E+00
  0.388623708464E+00
  0.440621241414E+00
 -0.940265431904E-01
 -0.737185760759E+00
 -0.343113501312E+00
 -0.156557120363E+00
 -0.177552520158E+00
 -0.454120422700E+00
 -0.212165054702E+00
 -0.188378239352E+00
 -0.132104869450E+01
 -0.128838566223E+01
 -0.124695474396E+01
 -0.129162800305E+01
 -0.125950616342E+01
 -0.953435174795E+00
 -0.915881271819E+00
 -0.847669341968E+00
 -0.883348529867E+00
 -0.121863910117E+01
 -0.119782459711E+01
 -0.128343169970E+01
 -0.126311924354E+01
  0.979006310107E+00
  0.947288818100E+00
  0.950030486323E+00
  0.871755872584E+00
  0.788167568752E+00
  0.737723438793E+00
  0.768977429516E+00
 -0.119280091934E+01
 -0.118564681507E+01
 -0.125344248044E+01
 -0.112787791411E+01
 -0.127508471406E+01
 -0.142895687291E+01
 -0.112533606695E+01
 -0.142259443702E+01
 -0.117831480688E+01
 -0.121377177494E+01
 -0.112279963439E+01
 -0.112404758004E+01
 -0.948699395597E+00
 -0.792693263072E+00
 -0.799287924334E+00
 -0.616445339578E+00
 -0.623940078507E+00
 -0.104467183917E+01
 -0.123549753182E+01
 -0.828104873160E+00
 -0.121312819959E+01
  0.390681026152E+00
  0.473284565139E+00
  0.481642090577E+00
 -0.640926259760E+00
 -0.106338903299E+01
 -0.932161574939E+00
 -0.991070444797E+00
 -0.101816345253E+01
 -0.121731907608E+01
 -0.115076996217E+01
 -0.123930471467E+01
 -0.120085322982E+01
 -0.122247471790E+01
 -0.107296759875E+01
 -0.137054858020E+01
 -0.116099945942E+01
 -0.113777290904E+01
 -0.245966244120E+01
 -0.134808850991E+01
 -0.128418885649E+01
  0.203247155951E+00
  0.284683980694E+00
 -0.193243750363E+00
 -0.251113955262E+00
 -0.264771034679E+00
 -0.264332972860E+00
 -0.579784903491E+00
 -0.839204918362E+00
 -0.105749510320E+01
 -0.111165369691E+01
 -0.111140535977E+01
 -0.783839894587E+00
 -0.106838635305E+01
 -0.811924239855E+00
 -0.830181839850E+00
 -0.963760411874E+00
 -0.454437076660E+00
 -0.594225450971E+00
 -0.586987574226E+00
 -0.560714227182E+00
 -0.532861309722E+00
 -0.608945623163E+00
 -0.569970728535E+00
 -0.103985328527E+01
 -0.102133712814E+01
 -0.103171878688E+01
 -0.824541550280E+00
 -0.173584999245E+00
 -0.851509864530E+00
 -0.414453757103E+00
 -0.749370285685E+00
 -0.188358159464E+00
  0.126339933706E+00
 -0.112945990217E+00
 -0.179742097050E-01
 -0.204801092243E+00
 -0.166943739252E+00
 -0.219546431328E-01
 -0.190509824943E-01
  0.136970764777E+00
 -0.993966017814E-02
  0.172033483762E+00
  0.221361338100E+00
  0.226503488861E+00
 -0.181022255405E+00
 -0.433361230310E-01
 -0.349463930580E+00
 -0.275255075396E+00
 -0.111420992667E+00
 -0.137011802416E+00
  0.409495792778E-01
  0.904905713665E-01
  0.112211402900E+00
  0.824452102851E+00
  0.980263525600E+00
  0.925313848563E+00
  0.943894313657E+00
  0.689158867311E+00
  0.516220565518E+00
  0.241068823100E+00
  0.218860270308E+00
  0.491369794617E-01
  0.110636523230E+00
 -0.660992847979E+00
 -0.573531997482E+00
 -0.584091353903E+00
 -0.532959343067E+00
 -0.526093108166E+00
 -0.530219567187E-01
 -0.209894935565E+00
 -0.270815610867E+00
 -0.111472201994E+00
 -0.201151737175E+00
 -0.802636611376E-01
 -0.879394860034E-01
  0.512487686973E+00
  0.490580158747E+00
  0.526483240760E+00
  0.809204183699E+00
  0.724779280897E+00
  0.828519309681E+00
  0.686046846298E+00
  0.577407898180E+00
  0.624557386325E+00
  0.638544918896E+00
  0.577322853959E+00
  0.367434987052E+00
  0.408127486112E+00
  0.485488303127E+00
  0.507709419075E+00
  0.122135498931E+00
 -0.747210567864E+00
 -0.744961382432E+00
 -0.596031902800E+00
 -0.600911362527E+00
 -0.990066406659E+00
 -0.830654632540E+00
 -0.527971721388E+00
 -0.717803121411E+00
 -0.473303884884E+00
 -0.115284614037E+01
 -0.119715041872E+01
 -0.114657405755E+01
 -0.126087898423E+01
 -0.120846940590E+01
 -0.118998784929E+01
 -0.122805543830E+01
 -0.492112118920E+00
 -0.361710853119E+00
  0.980756768940E-01
  0.536305451812E-01
  0.162441865712E+00
 -0.216360252740E+00
 -0.111806921386E+00
 -0.662274692496E+00
 -0.425221554236E+00
 -0.502987546052E+00
 -0.496405764068E+00
 -0.812076766638E+00
 -0.753746415671E+00
 -0.983392856026E+00
 -0.112078016715E+01
 -0.136865545790E+01
 -0.124458943828E+01
 -0.119202782682E+01
 -0.120110543522E+01
 -0.130623559083E+01
 -0.333964433858E+00
 -0.318509753949E+00
  0.210607557052E+00
  0.164494172165E+00
 -0.440586549480E-01
 -0.102452079469E+00
 -0.145657080161E+00
 -0.193098323480E+00
 -0.182231098389E+00
  0.287936792199E+00
  0.103754077486E+00
  0.754630349086E-01
  0.449963030291E+00
 -0.112069390200E+00
 -0.620696649971E+00
 -0.726564233287E+00
 -0.668622884077E+00
 -0.375829587804E+00
 -0.562993423969E+00
 -0.515759535444E+00
 -0.138756399646E+00
 -0.181105612483E+00
 -0.975026007245E-01
 -0.257432883427E-01
  0.218085984072E+00
  0.224401139081E-01
  0.166351068386E+00
  0.168695427287E+00
 -0.623147322944E+00
 -0.887456333860E+00
 -0.739779271567E+00
 -0.798732457066E+00
 -0.809709625332E+00
 -0.988612990786E+00
 -0.736731630970E+00
 -0.988390455312E+00
 -0.953128235735E+00
 -0.915073191329E+00
 -0.602643210681E-01
 -0.882870471030E-01
 -0.504440122553E+00
 -0.545101024362E+00
 -0.112254181983E+01
 -0.124850448432E+01
 -0.123994976586E+01
 -0.121047237354E+01
 -0.218957834187E+00
 -0.201899557887E+00
 -0.151946430546E+00
 -0.201374849456E+00
  0.218306647812E+00
  0.175115409225E+00
 -0.742529692326E+00
 -0.705885649020E+00
 -0.945736928268E+00
 -0.943201962059E+00
 -0.758794448362E+00
 -0.963840409723E+00
  0.227214717181E+00
  0.240578812669E+00
  0.145813236733E-02
  0.428948982562E-01
 -0.304802984904E+00
 -0.558104631739E+00
 -0.131468302407E+01
 -0.115375230023E+01
 -0.115661715604E+01
 -0.121093882073E+01
 -0.120767987286E+01
 -0.522430901559E+00
 -0.107070439384E+01
 -0.816856535958E+00
 -0.379190864114E+00
 -0.372617549933E+00
 -0.717015657182E+00
 -0.751761083127E+00
 -0.123541767985E+01
 -0.107842471264E+01
 -0.126783327261E+01
 -0.114831580818E+01
 -0.114759131692E+01
 -0.120780040337E+01
 -0.819079436530E+00
 -0.781673873467E+00
 -0.113444126195E+01
 -0.106616412721E+01
 -0.816518308194E+00
 -0.892729373099E+00
  0.419627517491E+00
  0.348707438938E+00
  0.353481057772E+00
  0.472736528593E+00
  0.560387226182E+00
 -0.496504811842E+00
 -0.289033842216E+00
 -0.684966239157E+00
 -0.686023389743E+00
 -0.778361660753E+00
  0.375360046396E-01
  0.667690484945E-01
  0.183010577920E+00
  0.237872910246E+00
 -0.802379963481E+00
 -0.964102107314E-01
 -0.610485573310E+00
 -0.249345479711E+00
  0.120554908937E+00
  0.296623045466E-02
  0.272097305900E+00
 -0.148864806724E+00
  0.671119015031E+00
  0.681173861701E+00
  0.903210223211E+00
  0.907143430502E+00
  0.726077738203E+00
  0.709657382085E+00
  0.744477112086E-01
 -0.410695815454E+00
 -0.380344866896E+00
 -0.216455617646E-01
 -0.165946601473E+00
 -0.124381913262E+01
 -0.137674130600E+01
 -0.127308347576E+01
 -0.133925904179E+01
 -0.135145162801E+01
 -0.131101519901E+01
 -0.127869963395E+01
 -0.120933676449E+01
 -0.121572660582E+01
 -0.120860958035E+01
 -0.110380229533E+01
 -0.118967741551E+01
 -0.866376412813E+00
 -0.321932098344E+00
  0.171036348702E+00
  0.182909896850E+00
  0.446084650649E+00
  0.112526072252E+00
  0.101166913071E+00
 -0.951432216567E+00
 -0.873522692351E+00
 -0.105647870004E+01
 -0.800319431527E+00
 -0.784734830664E+00
 -0.923627044143E+00
 -0.111311664820E+01
 -0.974676933999E+00
 -0.106433783311E+01
 -0.673641704707E-01
  0.122623153090E+00
  0.133795503004E+00
 -0.710382375867E-01
 -0.142599262048E+00
 -0.632837725307E-01
  0.193443867434E-01
  0.149940575497E+00
  0.449280638067E+00
  0.526860139967E+00
  0.432070790094E+00
  0.467729885789E+00
  0.417969503723E+00
 -0.568955516772E+00
 -0.899451277857E+00
 -0.702098168613E+00
 -0.160027363568E+00
 -0.288622975412E+00
 -0.343249179645E+00
 -0.157279602503E+00
 -0.658646394905E+00
 -0.723549858164E+00
 -0.818990994946E+00
 -0.852403659072E+00
 -0.822323891252E+00
 -0.910622101401E+00
 -0.116680227111E+01
 -0.119006727463E+01
 -0.118921758649E+01
 -0.100750964170E+01
 -0.126516610386E+01
 -0.100499520371E+01
 -0.130957877007E+01
 -0.122325405022E+01
 -0.120587453528E+01
  0.434281852999E+00
  0.654684729811E+00
  0.564157398005E+00
  0.478240624248E+00
  0.326577683825E+00
 -0.389458392006E+00
 -0.426725315949E+00
 -0.558680791897E+00
 -0.651065618957E+00
 -0.690415276902E+00