# vtk DataFile Version 3.0
MachLine results file. Generated by MachLine, USU AeroLab (c) 2022.
ASCII
DATASET POLYDATA
POINTS                1000 float
  0.855805423379E+00 -0.276243083043E+00 -0.437363506006E+00
  0.778884088599E+00 -0.181575115106E+00  0.600308299211E+00
  0.624220040468E+00  0.245516166677E+00 -0.741667818486E+00
  0.378519203771E-01  0.550145036077E+00 -0.834210807532E+00
 -0.405698480463E+00  0.462627766889E+00 -0.788279323751E+00
  0.587264018501E+00  0.217745208914E+00 -0.779556281848E+00
  0.984729735478E+00  0.735674015734E-01 -0.157782082290E+00
  0.138484632238E+00  0.976929179957E+00  0.162577316936E+00
 -0.592980045055E+00 -0.226175499824E+00 -0.772799656733E+00
 -0.422720561324E+00 -0.861689871604E+00 -0.280709622579E+00
  0.786669568945E+00  0.617368906565E+00 -0.257342224700E-02
 -0.895523384859E+00  0.390151080639E+00 -0.214056070802E+00
  0.200928744423E+00  0.714486382912E+00 -0.670176729152E+00
 -0.903452607547E+00  0.989726802712E-01  0.417106454608E+00
 -0.334173914120E+00  0.464200960843E+00  0.820271456942E+00
 -0.226260252433E+00 -0.552951605104E+00  0.801904495923E+00
  0.104931221829E+00  0.842419241880E+00  0.528506631553E+00
 -0.898523991423E+00 -0.799189451843E-01  0.431587301757E+00
  0.264873669350E+00 -0.659179358705E+00 -0.703792947067E+00
 -0.570166189638E-02  0.221991612515E+00  0.975031904619E+00
 -0.337993752894E+00 -0.131552246514E+00  0.931908916924E+00
  0.505924184936E+00 -0.595431790219E+00  0.624100714864E+00
  0.333805014722E+00  0.458019812444E+00  0.823888380520E+00
  0.685476153525E+00  0.727309090452E-01 -0.724453351030E+00
 -0.324048484322E+00 -0.654405867284E-01 -0.943774395402E+00
 -0.427190421433E+00 -0.838329153535E+00  0.338692447761E+00
 -0.344049431221E+00 -0.589596495102E+00  0.730757115491E+00
  0.955608471492E+00  0.285525519539E+00  0.727160704685E-01
 -0.152116723316E+00  0.904423012639E+00  0.398596935131E+00
  0.569354779687E+00  0.335900275016E+00 -0.750337350857E+00
 -0.578605282521E+00  0.632107873419E+00  0.515417853204E+00
  0.324190624736E+00  0.308844797305E+00  0.894156211191E+00
  0.700621692115E+00  0.122756152149E+00  0.702894139716E+00
 -0.252708149062E+00 -0.920843716334E+00 -0.296960336553E+00
 -0.388769197494E-01 -0.919457888726E+00 -0.391261774226E+00
 -0.388882429580E+00 -0.684144773954E+00 -0.617022191039E+00
 -0.861839739337E-01  0.968072242557E+00  0.235390007920E+00
  0.753612993288E+00  0.359244559129E+00  0.550464170572E+00
  0.311589542018E+00 -0.227740357227E+00 -0.922521700013E+00
 -0.191893278126E+00  0.948781686188E+00  0.250978648026E+00
 -0.653445037896E+00 -0.545890364916E+00  0.524417097300E+00
  0.205838177910E+00  0.973091941951E+00 -0.103550552988E+00
 -0.375093146092E-01 -0.872755912498E+00 -0.486713641187E+00
 -0.697331555369E-02  0.981230138930E+00  0.192714263419E+00
 -0.149835233663E-01  0.994083904329E+00  0.107576415547E+00
  0.172033398593E+00  0.958506566218E+00  0.227309639666E+00
  0.332340445217E+00  0.893372620450E+00 -0.302382521823E+00
 -0.193511786789E+00 -0.264762358939E-01  0.980740637124E+00
  0.507217849981E+00 -0.264828506452E+00 -0.820119451562E+00
 -0.592217743733E+00 -0.599013057324E+00  0.538944803448E+00
 -0.904749645745E+00  0.486261626558E-01  0.423159042005E+00
 -0.843152642458E-01 -0.804062683846E+00 -0.588535586572E+00
  0.155004410501E+00 -0.249307967790E+00 -0.955938894450E+00
 -0.174015048962E+00 -0.978998434995E+00 -0.106211237696E+00
  0.703301477925E+00 -0.672942338769E+00  0.229162911138E+00
 -0.788310084377E+00  0.604970502426E+00  0.112151246378E+00
 -0.368556983546E+00  0.884883331112E+00  0.284863546631E+00
  0.676354192813E+00  0.593342706188E+00 -0.436450958159E+00
 -0.668620337497E+00 -0.468490076432E+00 -0.577463325736E+00
  0.711539484984E+00 -0.445345993844E-02  0.702632000412E+00
  0.194756485721E+00  0.837679079101E+00 -0.510258436192E+00
  0.771824831712E+00  0.595087918110E+00  0.223957136240E+00
 -0.763113176217E+00  0.444132191760E+00 -0.469472977419E+00
  0.355256043077E+00  0.191481794394E+00 -0.914946919921E+00
  0.111837347112E+00 -0.682478396738E+00  0.722298861814E+00
 -0.916304097142E+00 -0.376073015584E+00 -0.137680385351E+00
  0.894933507484E+00 -0.391436324419E+00 -0.214176611954E+00
 -0.831506434673E+00 -0.411476684165E+00  0.373207700196E+00
 -0.972215884060E+00  0.195543700616E+00 -0.128681529098E+00
  0.449250440220E+00  0.332743987330E+00  0.829129351102E+00
 -0.926454128347E+00 -0.365395694706E+00 -0.903810508861E-01
  0.893324889077E+00 -0.307186592995E-01 -0.448360353428E+00
 -0.685322272105E+00 -0.725853596702E+00  0.589061924715E-01
 -0.168393446477E+00 -0.864509848322E+00  0.473567703013E+00
  0.552713302667E-01  0.998467986699E+00 -0.259992064213E-02
  0.712147119424E+00  0.698723570374E+00 -0.680577144800E-01
 -0.430037187424E+00 -0.148097479196E+00 -0.890581357366E+00
  0.504939167170E+00 -0.816245457209E+00 -0.280677378929E+00
  0.718384358424E+00  0.683682842379E+00  0.128458882946E+00
 -0.652068433079E+00 -0.361257940275E+00  0.666557918842E+00
 -0.884461161274E+00 -0.241368544681E+00  0.399336549588E+00
 -0.854656590295E+00  0.491058473791E+00  0.168593261975E+00
  0.858050758956E+00 -0.279178195636E+00 -0.431055019849E+00
  0.515972009023E+00 -0.453039916000E+00 -0.726999119955E+00
  0.809947278211E+00  0.542213504924E+00  0.223584260621E+00
  0.658091700472E+00 -0.489648335214E+00  0.571978864637E+00
  0.160034315216E-01  0.279657293607E+00 -0.959966503745E+00
 -0.487272464281E+00 -0.112916270048E+00 -0.865918853884E+00
 -0.648798093521E-01  0.158356668664E+00  0.985248078317E+00
 -0.304440079338E-01 -0.855239348047E+00  0.517338206527E+00
  0.878256798832E+00  0.470993047540E+00 -0.826471080818E-01
 -0.932123436080E+00 -0.551815530083E-01 -0.357911855237E+00
  0.204404308126E+00 -0.973830452536E+00 -0.993636177497E-01
  0.818629416015E+00 -0.574291984142E+00  0.588185218886E-02
 -0.990508376339E+00  0.150415804095E-01  0.136626890697E+00
 -0.370487642907E+00  0.919077855307E+00  0.134293716671E+00
 -0.167495529826E+00  0.777350694079E+00  0.606358924981E+00
 -0.106082965487E+00  0.949827698419E+00 -0.294234171620E+00
  0.931827941297E+00 -0.322059958693E+00 -0.167254509133E+00
  0.653857624292E+00 -0.167157575528E+00  0.737921779119E+00
  0.260402425979E+00  0.365604309057E+00  0.893601737769E+00
  0.236950853885E+00 -0.797305588928E+00  0.555119888589E+00
 -0.265462889930E+00 -0.950478953046E+00 -0.161614398762E+00
 -0.422845002017E+00  0.880917899237E-01 -0.901910162276E+00
  0.819763351964E+00 -0.215054137321E+00  0.530791639721E+00
  0.890559754049E-01  0.391469203010E-02 -0.996018929755E+00
 -0.462653318010E+00  0.698039134581E+00 -0.546528383461E+00
 -0.961210948553E+00  0.203268775198E+00  0.186427780686E+00
 -0.319823220249E+00 -0.173122862377E+00  0.931526479662E+00
  0.572588623890E+00 -0.819817503002E+00 -0.644434353619E-02
  0.133748512698E+00  0.505409666717E+00 -0.852450822124E+00
 -0.198201513546E-01 -0.816523949616E+00 -0.576971230916E+00
  0.328672769568E+00 -0.819833409682E+00  0.468878865927E+00
  0.262368488526E+00  0.387431768847E+00  0.883775650670E+00
  0.677136678369E-01  0.312359216369E+00  0.947547665892E+00
 -0.900717884724E+00 -0.248438651964E+00  0.356350288829E+00
  0.568841738857E+00  0.809994330143E+00 -0.142577211608E+00
 -0.984470657666E+00 -0.144561811139E-01 -0.174952973743E+00
  0.666438569561E+00  0.698678404923E+00 -0.260207839035E+00
 -0.383449265274E+00  0.800383152792E+00  0.460818261018E+00
  0.496115068381E+00  0.847653649770E+00  0.188024277572E+00
  0.160921382191E+00 -0.978115079269E+00  0.131890865716E+00
  0.946625334243E+00  0.229240409435E+00  0.226603864158E+00
 -0.794829489439E+00 -0.684100035489E-01 -0.602964471700E+00
  0.767788635201E+00 -0.366921788360E+00  0.525232341810E+00
 -0.981642289835E+00 -0.916209926268E-01 -0.167284214787E+00
 -0.362753042993E+00  0.825423566439E+00  0.432534583318E+00
 -0.611248067435E+00 -0.673252720329E+00 -0.416060782370E+00
  0.305130861747E+00  0.889358740488E+00  0.340494035083E+00
  0.273175088004E+00 -0.914022852148E+00  0.299895977042E+00
  0.190751105330E+00 -0.976592187218E+00 -0.994068190821E-01
  0.830470558217E+00 -0.283594178865E+00  0.479471577519E+00
  0.583189903391E+00 -0.555016095229E+00  0.593166646584E+00
  0.287987597844E+00 -0.120641637504E+00  0.950004599351E+00
  0.797146712092E+00 -0.288099317966E+00 -0.530618415047E+00
 -0.872997542167E+00  0.224578195514E+00  0.432943328243E+00
 -0.603246869990E+00  0.763878621321E+00  0.229309105220E+00
 -0.306396262843E+00 -0.951599276783E+00  0.240862313597E-01
  0.863465477791E+00 -0.485611652336E+00  0.136413678857E+00
 -0.254160601179E-01  0.844651637550E+00  0.534712665899E+00
 -0.339745376681E+00  0.378274453440E+00  0.861093210343E+00
 -0.725515118583E+00 -0.309425155368E+00 -0.614722608932E+00
 -0.821269619723E+00 -0.564606884072E+00  0.820687405637E-01
 -0.407021580110E+00 -0.756999995123E+00 -0.511159897398E+00
  0.386133392239E+00  0.844019218665E+00 -0.372199626441E+00
 -0.915853557592E-01 -0.967525760937E+00  0.235597165800E+00
 -0.880182574756E+00  0.467410303842E+00 -0.824999573292E-01
  0.946526231572E+00 -0.278733442365E+00 -0.162467723112E+00
 -0.204300167929E+00 -0.123933476444E+00  0.971031376836E+00
 -0.799493572656E+00  0.348037588707E+00 -0.489571102221E+00
  0.411097316669E+00 -0.416833499560E+00  0.810708844082E+00
 -0.157506981395E+00 -0.713571058454E+00  0.682647709546E+00
 -0.278826389561E+00  0.695693157527E+00 -0.662017277006E+00
 -0.911785070338E+00  0.544705889390E-01 -0.407039236991E+00
 -0.314633102750E+00 -0.193899844689E+00 -0.929197966465E+00
 -0.383456437491E+00  0.922791993449E+00 -0.376310692618E-01
 -0.149417546860E+00 -0.569681497763E+00 -0.808169157910E+00
 -0.893257640230E+00 -0.373032604390E+00  0.250873402800E+00
 -0.621510843785E+00  0.147766539531E+00 -0.769343434919E+00
  0.396551095740E+00 -0.915668195225E+00  0.655666433559E-01
  0.549957551819E+00  0.192318912228E+00  0.812748501811E+00
[...]
CELL_DATA                1996
SCALARS C_p_inc float 1
LOOKUP_TABLE default
 -0.356619397402E+00
 -0.110452075682E+01
  0.334722315065E+00
 -0.636708670808E+00
 -0.122492209011E+00
  0.520499872184E+00
  0.522523630838E+00
  0.293075396131E+00
 -0.455880835137E+00
 -0.550638147550E+00
  0.728850037252E+00
  0.575078858322E+00
  0.576610147547E+00
  0.343806245247E+00
 -0.121839345602E+01
 -0.127157855098E+01
 -0.350534324671E+00
 -0.100695400733E+01
 -0.100554797585E+01
 -0.106327345095E+01
 -0.133811152647E+01
 -0.651088819406E+00
 -0.856308606713E+00
  0.703603331483E-01
  0.430745193381E+00
  0.770573394778E+00
  0.834618378034E+00
 -0.405612002748E+00
 -0.652860123802E-01
 -0.868159427774E-01
  0.471305283024E-01
 -0.356481989689E+00
  0.373168552062E+00
  0.487875556885E+00
  0.995161787937E+00
  0.932661251037E+00
  0.937629546432E+00
  0.916174302828E+00
  0.988516920085E+00
  0.994869770935E+00
  0.997546798582E+00
  0.507698601579E+00
 -0.905602740925E+00
 -0.970726000171E+00
 -0.921709027197E+00
 -0.101174667864E+01
 -0.646180101604E+00
 -0.570530472954E+00
 -0.601720075421E+00
 -0.921319051975E+00
 -0.103035968403E+01
 -0.892848037560E+00
 -0.955557663630E+00
 -0.870446911190E+00
 -0.859021075469E+00
 -0.295869328108E+00
 -0.249708084259E+00
  0.533806017635E-01
  0.306853304637E+00
  0.514629875020E+00
 -0.553083551609E+00
 -0.571293387998E+00
  0.474786102422E+00
  0.409830995344E+00
  0.404958097891E+00
 -0.898649422790E+00
  0.276622904897E+00
  0.189962080741E+00
 -0.411701884070E+00
 -0.410907885121E+00
 -0.810303723559E+00
 -0.744666260541E+00
  0.780707192318E+00
  0.819115165237E+00
  0.971193008724E+00
  0.745755995339E+00
  0.682673783594E+00
  0.661957801497E+00
  0.453692760562E+00
  0.353810132776E+00
  0.467936838998E-01
  0.240858706385E+00
  0.926487862708E+00
  0.733802241282E+00
  0.865088547049E+00
  0.890534393584E+00
  0.982314837765E+00
  0.949358619976E+00
  0.744399136755E+00
  0.835109297092E+00
  0.679102528456E+00
 -0.270038022959E+00
  0.489429877113E-01
 -0.263610128971E+00
 -0.234327734059E+00
  0.686275900572E-01
  0.835115795460E+00
  0.786388864646E+00
  0.806148217357E+00
 -0.117694735708E+01
  0.108837923880E+00
 -0.262630027038E+00
 -0.123950721910E+01
 -0.113497701118E+01
 -0.124951811044E+01
 -0.118282324395E+01
 -0.122469803602E+01
 -0.121245460524E+01
 -0.101988199792E+01
 -0.601027204252E+00
 -0.123665444989E+01
 -0.103682812737E+01
 -0.120970774812E+01
 -0.119345769705E+01
 -0.118035507120E+01
 -0.117833633811E+01
 -0.117658515949E+01
 -0.116871670072E+01
 -0.972523165703E+00
 -0.118535827081E+01
 -0.123600013486E+01
 -0.103025758227E+01
 -0.110446157643E+01
 -0.718317961839E+00
 -0.807381161170E+00
 -0.104513508495E+01
 -0.118970913576E+01
 -0.101939335101E+01
 -0.993620198699E+00
 -0.937147976093E+00
 -0.112453685831E+01
 -0.852239429533E+00
 -0.768772436730E+00
 -0.101879507158E+01
 -0.998116805573E+00
 -0.996172882418E+00
 -0.130806061474E+01
 -0.109542795507E+01
 -0.134492563915E+01
 -0.135286759406E+01
 -0.115534164492E+01
 -0.935066706854E+00
 -0.114402666019E+01
 -0.784634228613E+00
 -0.873417455792E+00
 -0.106592764210E+01
 -0.986044263342E+00
 -0.991763389573E+00
 -0.119164206485E+01
 -0.119716199713E+01
 -0.116746412009E+01
 -0.115549903623E+01
 -0.127739705248E+01
 -0.927208205449E+00
 -0.101144627419E+01
 -0.923827737865E+00
 -0.916887396014E+00
  0.738963022088E+00
  0.711689398191E+00
  0.587006954280E+00
  0.430801677110E+00
  0.944966306482E+00
  0.862261051149E+00
  0.820972492236E+00
  0.679187457885E+00
  0.777643832323E+00
  0.747418461001E+00
  0.890188335090E+00
  0.880247076577E+00
  0.939525377852E+00
  0.994337002829E+00
  0.980834010272E+00
  0.985194640128E+00
  0.985515705377E+00
 -0.647402904598E+00
  0.134109124832E+00
 -0.130126297393E+00
 -0.334122972023E-02
 -0.411814156036E+00
 -0.523770278801E+00
 -0.791522296221E+00
 -0.763708696450E+00
 -0.612361168306E+00
 -0.498543529885E+00
 -0.337493752321E+00
  0.346322501814E-01
  0.500066572425E-01
 -0.332079391528E-01
  0.666540235252E+00
  0.610457793380E+00
  0.561267673237E+00
  0.474124949421E+00
  0.551109327236E+00
  0.611175912568E+00
  0.662731120782E+00
  0.683223617128E+00
  0.195264793170E+00
  0.494282265296E+00
  0.145772917524E+00
  0.187243189594E+00
  0.879607817353E+00
  0.966504242114E+00
  0.981237229842E+00
  0.715802016527E+00
  0.890315208095E+00
  0.762648310295E+00
  0.912141771586E+00
  0.835867310772E+00
 -0.128885996633E+01
 -0.129111479067E+01
 -0.129243835692E+01
 -0.149946518001E+01
 -0.134500803868E+01
 -0.102756043640E+01
 -0.118748792829E+01
 -0.880793045426E+00
 -0.144039246762E+00
 -0.167414948298E+00
 -0.997221160811E+00
 -0.100297551031E+01
 -0.104900204766E+01
 -0.107381819321E+01
 -0.812087025785E+00
 -0.109177692687E+01
 -0.128654969792E+01
 -0.105552890443E+01
 -0.113844628626E+01
 -0.113988922719E+01
 -0.552189336228E+00
 -0.504689044432E+00
 -0.366682961651E+00
 -0.368655340187E+00
 -0.740491783124E+00
 -0.740460336774E+00
 -0.842127151776E+00
 -0.890507112686E+00
 -0.985587470099E+00
 -0.824456784718E+00
 -0.545061963811E+00
 -0.503298407717E+00
 -0.467461802760E+00
 -0.688502474084E+00
 -0.534481543672E+00
 -0.102723806677E+01
 -0.583983000093E+00
 -0.528808445917E+00
 -0.498298721852E+00
 -0.119564153927E+01
 -0.121724321820E+01
 -0.994437762675E+00
 -0.816331251183E+00
 -0.933452207292E+00
 -0.845971196739E+00
 -0.983977579399E+00
  0.168977344628E+00
  0.105518423573E+00
 -0.724320876942E+00
 -0.734658818856E+00
  0.503531789935E+00
  0.473329483466E+00
 -0.386594964983E+00
 -0.380709281155E+00
 -0.480087206307E+00
  0.614356513619E+00
  0.614825082692E+00
  0.731233137602E+00
  0.481372788816E+00
 -0.193518052444E+00
 -0.761738491285E+00
 -0.666338820807E+00
 -0.577940607048E+00
 -0.207474854546E+00
 -0.903709723896E-01
  0.613345951881E-01
  0.149997879395E+00
  0.428666491523E+00
  0.469414143473E+00
  0.604045322831E+00
 -0.530806679850E+00
 -0.698838654838E+00
 -0.581275258937E-01
 -0.437268398738E+00
 -0.346891347039E+00
 -0.821962210969E+00
 -0.823235802519E+00
 -0.502086880280E+00
 -0.595624443019E+00
  0.215856795907E+00
  0.198880796085E+00
 -0.142714169649E+00
 -0.102633683937E+01
 -0.564705142638E+00
 -0.509933480046E+00
 -0.393166248624E+00
 -0.863773558738E+00
 -0.581773001205E+00
 -0.578260376335E+00
 -0.125259570878E+01
 -0.857762480058E+00
 -0.927284409072E+00
 -0.689602038840E+00
  0.898246995151E+00
  0.755526279667E+00
  0.747816018314E+00
  0.953579683443E+00
  0.433145387258E+00
  0.536380457542E+00
  0.507899398945E+00
  0.658065702901E+00
  0.659465403684E+00
  0.553131416263E+00
  0.560158911354E+00
  0.383936687445E+00
  0.236023649288E+00
  0.201656638496E+00
  0.367787623135E+00
  0.696376445696E+00
  0.690183292343E+00
  0.409826160035E+00
 -0.105496589409E+00
  0.418168775813E-01
  0.285648083115E+00
 -0.322593207033E+00
 -0.118684472593E+00
 -0.169512747627E+00
 -0.293317536028E+00
 -0.407255444408E+00
  0.310081104626E+00
  0.436615392747E+00
 -0.734866555558E+00
  0.306119007758E+00
  0.247627890432E+00
 -0.705972426407E+00
 -0.791463328683E+00
  0.451274597206E+00
  0.339564021628E+00
  0.445371492154E+00
  0.467834757863E+00
  0.900471189098E+00
  0.795480078440E+00
  0.873326741974E+00
  0.604247670909E+00
  0.619636779286E+00
  0.675091191375E+00
  0.752125307631E+00
  0.816613749994E+00
  0.811034471365E+00
  0.802258987602E+00
  0.822904219955E+00
  0.800525500898E+00
  0.690196146514E+00
  0.438244073433E+00
  0.427232241077E+00
  0.197205685598E+00
  0.991078509935E-01
 -0.119188678302E+01
 -0.121883974116E+01
  0.407964753022E+00
  0.694625937018E+00
  0.688689406421E+00
 -0.251912130293E+00
 -0.337438460804E+00
 -0.164508192156E+00
 -0.332755529246E+00
  0.324528028152E+00
  0.248585154406E+00
  0.585898556512E+00
  0.624334420867E+00
 -0.464306991041E-01
 -0.257209554588E+00
  0.788704557047E-01
  0.474533736149E+00
  0.492664896571E+00
  0.661708966493E+00
  0.630614160884E+00
 -0.115639911362E+01
 -0.115634072523E+01
 -0.124288460919E+01
 -0.120664798875E+01
 -0.116961977089E+01
 -0.116114938003E+01
 -0.349431776902E-01
 -0.249763630462E+00
 -0.350030689457E+00
 -0.327864630807E+00
 -0.313951266958E+00
 -0.811118587769E-03
  0.266950495793E-01
 -0.312790171046E+00
 -0.617242261471E+00
 -0.617319671107E+00
 -0.107582640560E+01
 -0.109279462909E+01
 -0.100342346613E+01
 -0.112987835019E+01
 -0.113379245872E+01
 -0.114332314647E+01
 -0.143736523194E+01
 -0.111649983414E+01
 -0.116956305977E+01
 -0.593993470716E+00
 -0.606086732610E+00
 -0.601319171766E+00
 -0.722291713207E+00
 -0.400255889404E+00
 -0.554718704689E+00
 -0.870482557781E+00
 -0.855220739002E+00
 -0.871896545895E+00
 -0.627741065553E+00
 -0.633652617421E+00
 -0.900901477879E+00
 -0.724002439666E+00
 -0.866905179509E+00
 -0.789142456178E+00
 -0.858637830064E+00
 -0.101345445313E+01
 -0.998452303395E+00
 -0.125080488846E+01
 -0.134081225114E+01
 -0.143702426745E+01
 -0.109522379813E+01
 -0.123861763570E+01
 -0.100919997491E+01
 -0.123907035850E+01
 -0.134148728579E+01
 -0.117824464773E+01
 -0.111367705755E+01
 -0.108747097037E+01
 -0.101441366507E+01
 -0.991328688242E+00
 -0.121488140371E+01
 -0.164387828293E+01
 -0.122471120047E+01
 -0.164377505610E+01
 -0.112509864647E+01
 -0.111835004809E+01
 -0.136141551167E+01
 -0.113208169186E+01
 -0.135856912477E+01
 -0.116794796314E+01
 -0.118866506882E+01
 -0.127436267436E+01
 -0.122827653009E+01
 -0.117351798874E+01
 -0.123400586916E+01
 -0.938568821828E+00
 -0.115610548678E+01
 -0.951807208056E+00
 -0.928290907938E+00
 -0.894041932657E+00
 -0.852775294855E+00
 -0.909181803371E+00
 -0.111368486025E+01
 -0.962927535865E+00
 -0.833575798579E+00
 -0.814140548377E+00
 -0.884130321989E+00
 -0.101013417716E+01
 -0.904784375972E+00
 -0.626021393101E+00
 -0.622582864851E+00
 -0.667369861401E+00
 -0.113389271683E+01
 -0.118871253836E+01
 -0.119159159990E+01
 -0.128623338449E+01
 -0.129680415904E+01
 -0.109690431936E+01
 -0.110046704306E+01
 -0.116971144938E+01
 -0.124059109921E+01
 -0.143105038069E+01
 -0.130530605331E+01
 -0.128165696289E+01
 -0.129910053561E+01
 -0.124487121848E+01
 -0.122829350942E+01
 -0.110322748268E+01
 -0.109045338639E+01
 -0.103027395507E+01
 -0.114922876838E+01
 -0.122011829954E+01
 -0.127893341718E+01
 -0.130484262393E+01
 -0.122029872713E+01
 -0.123270995358E+01
 -0.133459518618E+01
 -0.124074999927E+01
 -0.120043917384E+01
 -0.118440769517E+01
 -0.145054668050E+01
 -0.131099409500E+01
 -0.130867956399E+01
 -0.130885957806E+01
 -0.129029586814E+01
 -0.128187114002E+01
 -0.116206148820E+01
 -0.144516974580E+01
 -0.117251449260E+01
 -0.115992894927E+01
 -0.103022863018E+01
  0.668332630217E+00
  0.458438884339E+00
  0.475060615446E+00
  0.593060205924E+00
  0.788895484692E+00
  0.818013712288E+00
  0.880669042601E+00
  0.891610270386E+00
  0.927582321994E+00
 -0.879674887520E+00
 -0.976250217914E+00
 -0.987140091959E+00
 -0.924997924684E+00
 -0.658806884054E+00
 -0.609478267610E+00
 -0.655785043222E+00
 -0.711316050866E+00
 -0.485940150177E+00
 -0.482227530885E+00
 -0.144373114637E+00
 -0.183643768072E+00
 -0.361718750740E+00
 -0.251118429476E+00
 -0.105911925609E+00
 -0.151569775209E-01
  0.541114471504E+00
  0.361217179196E+00
  0.374486150784E+00
  0.496751089270E+00
  0.517355100020E+00
  0.328823800651E+00
  0.189124593753E+00
  0.100936462577E+00
  0.998458833202E-01
  0.508403713218E+00
  0.335376819139E+00
  0.290977040430E+00
  0.323994726949E+00
  0.339844258399E+00
 -0.156909996434E+01
 -0.141103437659E+01
 -0.108539205582E+01
 -0.136187328610E+01
 -0.128019313399E+01
 -0.131561471697E+01
 -0.101697186437E+01
 -0.962052289246E+00
 -0.981758776975E+00
 -0.148158706526E+01
 -0.115422242363E+01
 -0.134609862763E+01
 -0.129068934117E+01
 -0.122107853782E+01
 -0.128230949536E+01
 -0.149161119119E+01
 -0.126957334491E+01
 -0.131931702231E+01
 -0.508774789311E+00
 -0.505968944200E+00
 -0.474904226638E+00
 -0.334317752912E+00
 -0.354559114939E+00
 -0.878501708576E+00
 -0.672905779193E+00
 -0.657685845192E+00
 -0.125544424885E+01
 -0.346923238090E+00
 -0.150960663420E+00
 -0.924120895273E-01
 -0.330137343295E+00
 -0.207352262303E+00
  0.322559493482E+00
  0.357727369071E+00
  0.123253909179E+00
 -0.107469518639E+00
 -0.200722583028E-01
 -0.270050543979E+00
  0.413915562336E+00
  0.598541557771E+00
 -0.843425321946E+00
 -0.737579308495E+00
 -0.840013647810E+00
 -0.756523042605E+00
 -0.728817144410E+00
 -0.658038550852E+00
 -0.638182571212E+00
 -0.537710165462E+00
 -0.552259133113E+00
 -0.543984204558E+00
 -0.509171311818E+00
 -0.179727278079E+00
 -0.433056246165E+00
 -0.775834320588E+00
 -0.951043009344E+00
 -0.680108634796E+00
 -0.823794578452E+00
 -0.782287264803E+00
 -0.786501437067E+00
 -0.779648103935E+00
 -0.639225278206E+00
 -0.641947320370E+00
 -0.416710134094E+00
 -0.141660659009E+00
  0.424738984199E-01
 -0.127192683992E+01
 -0.121685495046E+01
 -0.124504617506E+01
 -0.121443901557E+01
 -0.129287323781E+01
 -0.765946539904E+00
 -0.478462112149E+00
 -0.359814202254E+00
 -0.299723424127E+00
 -0.123928089540E+01
 -0.118854178422E+01
 -0.100232430403E+01
 -0.103010441084E+01
 -0.788992234644E+00
 -0.780908258975E+00
 -0.898847627630E+00
 -0.988909639593E+00
 -0.644541104123E+00
 -0.755659573926E+00
 -0.774804698329E+00
 -0.105034631110E+01
 -0.105120366762E+01
 -0.117748991672E+01
 -0.117099063536E+01
 -0.111956805785E+01
 -0.803693118512E-01
 -0.484610523711E+00
 -0.292360007546E+00
 -0.368798321810E+00
 -0.334998471913E+00
  0.701380956824E+00
  0.820267141879E+00
  0.706163255691E+00
  0.681069723084E+00
  0.768500548192E+00
  0.858260434649E+00
  0.895234465383E+00
 -0.354298003348E+00
 -0.359381250804E+00
 -0.396738643283E+00
 -0.233160793401E+00
  0.144896850582E+00
  0.711209242654E+00
  0.594669087306E+00
  0.311683645773E+00
  0.417407108293E+00
 -0.412791826915E+00
  0.214525391956E+00
  0.676049650437E-01
  0.541641099365E+00
  0.503328401962E+00
  0.266004447686E+00
  0.188979849550E-01
  0.612919955438E-01
 -0.163950524539E+00
 -0.155882216731E+00
 -0.354071736167E+00
 -0.355151464814E+00
 -0.857489659309E+00
 -0.103752492009E+01
 -0.160876425087E+01
 -0.114737114871E+01
 -0.101026755991E+01
 -0.140073944190E+01
 -0.103752486012E+01
 -0.115186975524E+01
 -0.100728823758E+01
 -0.824537308817E+00
 -0.889800093076E+00
 -0.946526008732E+00
 -0.676313719903E+00
 -0.771875991014E+00
 -0.587547105219E+00
 -0.566866764119E+00
 -0.516721957321E+00
 -0.312513493523E+00
 -0.288158336522E+00
 -0.311841209879E+00
 -0.221627087351E+00
 -0.214602230838E+00
 -0.426115727165E+00
 -0.513821603041E+00
 -0.538825435841E+00
 -0.415257295224E+00
 -0.361125439746E+00
  0.581202595802E-01
 -0.530965544688E+00
 -0.727606277618E+00
 -0.429301505818E+00
 -0.549721338105E+00
 -0.719252227468E+00
 -0.866205884335E+00
 -0.911680779725E+00
 -0.867296502642E+00
 -0.965189322796E+00
 -0.894798092422E+00
 -0.885199091229E+00
 -0.682838193373E-01
 -0.464338982068E-01
 -0.341523141476E+00
 -0.444781188974E+00
 -0.447449938993E+00
 -0.433130592351E+00
 -0.401753022105E+00
 -0.365815743547E+00
 -0.120778904536E+01
 -0.141760883635E+01
 -0.122463825804E+01
 -0.120748720984E+01
 -0.104051340805E+01
 -0.122680313784E+01
 -0.116640493492E+01
 -0.127247832796E+01
 -0.122903850204E+01
 -0.127984495363E+01
 -0.120378232346E+01
 -0.116729884890E+01
 -0.118656836894E+01
 -0.115292828120E+01
 -0.124498314616E+01
 -0.126909723952E+01
 -0.125576460135E+01
 -0.111086275102E+01
 -0.107556812495E+01
 -0.931730371919E+00
 -0.103328570827E+01
 -0.100285792112E+01
 -0.883685061659E+00
 -0.678163245119E+00
 -0.666077273624E+00
 -0.699924935860E+00
 -0.736356464865E+00
 -0.904589745952E+00
 -0.908044536987E+00
 -0.139255640544E+01
 -0.738462372442E+00
 -0.902289880486E+00
 -0.112995189476E+01
 -0.135833679455E+01
 -0.135652922094E+01
 -0.121199848010E+01
 -0.122422469395E+01
 -0.114532656019E+01
 -0.618244778611E+00
 -0.790813933635E+00
 -0.592014224026E+00
 -0.447154445013E+00
 -0.447928394300E+00
 -0.575955021244E+00
 -0.534955481786E+00
 -0.212671700281E+00
 -0.230918536645E+00
 -0.471993884683E+00
 -0.388687990605E+00
 -0.754779611394E+00
 -0.940209959817E+00
 -0.950732456683E+00
 -0.483507184725E+00
 -0.655536189813E+00
 -0.125510109616E+01
 -0.931606045433E+00
 -0.123569747108E+01
 -0.846742708598E+00
 -0.758152720906E+00
 -0.800834687759E+00
 -0.758307545529E+00
  0.103874142705E+00
  0.212047726228E+00
 -0.116468984384E+00
  0.521409310989E-01
  0.590036006181E-01
  0.862286234727E-01
  0.221188800180E+00
  0.241973748271E+00
  0.231635247486E+00
  0.810170199418E+00
  0.702473177927E+00
  0.742613411450E+00
  0.863016012440E+00
  0.290030577487E+00
  0.323934792233E+00
  0.562896362496E+00
  0.715058259426E+00
  0.706306694131E+00
  0.883760786353E+00
  0.833890607838E+00
  0.833354902804E+00
  0.906430759649E+00
  0.979397742999E+00
  0.945012004086E+00
 -0.803210403434E+00
 -0.821739921882E+00
 -0.111280673866E+01
 -0.686120021011E+00
 -0.695728111121E+00
  0.357572837937E+00
  0.422316216243E+00
 -0.570254542899E-02
  0.237875417147E+00
  0.262080061795E+00
 -0.264924861509E-01
 -0.105447533389E+00
 -0.493702046096E-01
 -0.194992618147E+00
 -0.483512247003E+00
 -0.230292636905E+00
 -0.229844265248E+00
 -0.233628702750E+00
 -0.496469606905E+00
  0.704090301353E+00
  0.676394782794E+00
  0.698109599387E+00
  0.547120666261E+00
  0.608963102169E+00
  0.154120801240E+00
  0.363310062619E+00
  0.292827895917E+00
  0.384220359511E+00
  0.556973503505E+00
  0.654348191090E+00
  0.425009918659E+00
  0.381447088681E+00
  0.216441295924E+00
  0.333364116595E+00
  0.209753124490E+00
  0.314301555697E+00
  0.172696179925E+00
  0.156906047015E-01
 -0.104855992890E+01
 -0.861015778680E+00
 -0.106214760423E+01
 -0.986583494169E+00
  0.152782719154E+00
  0.201877005005E+00
  0.944779619872E-01
  0.245982637471E+00
 -0.132177988978E+00
 -0.982746563526E-01
  0.401005256778E-01
 -0.923588264043E+00
 -0.959215718706E+00
  0.453661602338E+00
  0.569831236539E+00
  0.704383282579E+00
  0.815189333159E+00
  0.797232356609E+00
  0.714401038685E+00
  0.561142668899E+00
  0.490479980642E+00
  0.483291944327E+00
  0.480522792803E+00
  0.467787332400E+00
  0.322044380727E+00
  0.345533568883E+00
 -0.132602268586E+01
 -0.129499907603E+01
 -0.817735048390E+00
 -0.119652261641E+01
 -0.798039029952E+00
 -0.832815939166E+00
 -0.253467999885E-01
 -0.233753317127E-01
 -0.155590119792E+00
 -0.255132134498E+00
 -0.998162911403E+00
 -0.101256595433E+01
 -0.102797945362E+01
 -0.111224166660E+01
 -0.113473870857E+01
 -0.114157806716E+01
 -0.105075095378E+01
 -0.111037376660E+01
 -0.118679384646E+01
 -0.118082898300E+01
 -0.112926239631E+01
 -0.111105941393E+01
 -0.904636936373E+00
 -0.130329370311E+01
 -0.108642322841E+01
 -0.108133191573E+01
 -0.134048131833E+01
 -0.116444773164E+01
 -0.121883723407E+01
 -0.281938469125E+00
 -0.455673221437E+00
 -0.507785887347E+00
 -0.624147108688E+00
 -0.763182505857E+00
 -0.374167901144E+00
 -0.505784512111E+00
 -0.765009209310E+00
 -0.120696307634E+01
 -0.445470745393E+00
 -0.399133297083E+00
 -0.917183129445E+00
 -0.883198088900E+00
 -0.577395774330E+00
 -0.567141580603E+00
 -0.606896581022E+00
 -0.121215167648E+01
 -0.121131710670E+01
 -0.122477460500E+01
 -0.116391887006E+01
 -0.106907080424E+01
 -0.115336852051E+01
 -0.113676709660E+01
 -0.115767645999E+01
 -0.115315676786E+01
 -0.116798157027E+01
 -0.108675520591E+01
 -0.113597266728E+01
 -0.109786285294E+01
 -0.110455922449E+01
 -0.113287271475E+01
 -0.126642738987E+01
 -0.125196459886E+01
 -0.121134092355E+01
 -0.124620986827E+01
 -0.104967798528E+01
 -0.108536370968E+01
 -0.121376977153E+01
 -0.116647992415E+01
 -0.111891888944E+01
 -0.113907855989E+01
 -0.776475279726E+00
 -0.567989162347E+00
 -0.586933928789E+00
 -0.696602860959E+00
 -0.101440142279E+01
 -0.110004586849E+01
 -0.109195078458E+01
 -0.123903060401E+01
 -0.114035708552E+01
 -0.106613174617E+01
 -0.117027757250E+01
 -0.996453844580E+00
 -0.106622263826E+01
 -0.420039105130E+00
 -0.123532459859E+01
 -0.139604301241E+01
 -0.131702266711E+01
 -0.113525095648E+01