# vtk DataFile Version 3.0
MachLine results file. Generated by MachLine, USU AeroLab (c) 2022.
ASCII
DATASET POLYDATA
POINTS                4000 float
  0.565967444645E+00 -0.788595088441E+00 -0.240413473182E+00
 -0.540077002439E+00  0.841174591193E+00 -0.272422203119E-01
  0.377762379194E+00  0.909219864267E+00 -0.174970921263E+00
  0.569170389007E+00  0.324953665931E+00 -0.755281525840E+00
  0.550349971785E+00 -0.647377592478E+00  0.527273326951E+00
 -0.227999762748E+00 -0.897842653431E+00 -0.376689099746E+00
  0.192157001054E+00  0.899564414364E+00  0.392249348446E+00
 -0.164751695514E+00 -0.857711092819E+00 -0.487020081804E+00
 -0.706507780121E+00 -0.614615479454E+00  0.350848356194E+00
 -0.475147769188E+00 -0.875214900300E+00 -0.907385019122E-01
  0.658444928249E+00  0.617825144625E+00 -0.429816666885E+00
 -0.337557610666E+00  0.838066067885E+00  0.428602526056E+00
 -0.300765200209E-01  0.979926087216E+00 -0.197079340714E+00
 -0.616804574306E+00  0.787046394924E+00 -0.104923473410E-01
  0.923034046405E+00 -0.382810326654E+00  0.382675186640E-01
 -0.733856350560E+00 -0.340270731205E+00  0.587937655052E+00
 -0.444982437653E+00 -0.727771313561E+00 -0.521861615122E+00
 -0.883807600322E+00 -0.467647648735E+00  0.137768735974E-01
  0.270644060313E+00  0.546772307461E+00  0.792333159985E+00
  0.895752062573E+00 -0.164435259772E-01 -0.444249764040E+00
  0.408063350429E-02 -0.969532777831E+00 -0.244927624292E+00
 -0.936489544221E+00 -0.348815506814E+00 -0.362639734453E-01
 -0.714779476596E+00  0.542484640144E+00  0.441362339859E+00
 -0.818218900244E+00  0.393913617263E+00 -0.418748007062E+00
  0.567584302173E-01  0.882117228954E+00 -0.467597770505E+00
  0.821730623770E+00  0.569775802549E+00 -0.106919029351E-01
 -0.634831183105E+00 -0.425087090946E+00 -0.645205652539E+00
 -0.312913650716E+00  0.111387028540E+00 -0.943227425952E+00
  0.238292198595E+00  0.780766668751E+00  0.577598681662E+00
 -0.118935779886E+00 -0.890529148045E+00  0.439103765351E+00
 -0.607820773688E+00  0.826208404906E-01 -0.789764334337E+00
 -0.993395009137E+00  0.990390626245E-01 -0.579449730070E-01
  0.915175388000E+00 -0.315270649297E+00 -0.251114370141E+00
  0.286843306462E+00 -0.845688522818E+00  0.450035376289E+00
 -0.267495670847E+00  0.959056713960E+00 -0.930391610367E-01
 -0.550026383369E+00  0.581144584336E-01 -0.833122852477E+00
 -0.358375191405E+00  0.457657061726E+00 -0.813705865800E+00
  0.348812696300E+00  0.767850520800E-01  0.934041625773E+00
  0.358225974687E+00 -0.782223058329E+00 -0.509707011996E+00
 -0.822781429148E+00 -0.463920715669E+00  0.328341726595E+00
  0.406152023312E+00  0.864245825683E+00  0.296849602913E+00
  0.630664886888E+00  0.726520611139E+00  0.272817891708E+00
 -0.744924125534E+00  0.548674595906E+00  0.379531599481E+00
  0.450659508418E+00 -0.593674216819E+00  0.666676032085E+00
 -0.294023551177E+00 -0.758661857021E+00 -0.581362484217E+00
 -0.807782723306E+00  0.336164728199E+00  0.484231708424E+00
 -0.462182429646E+00  0.230488690192E+00 -0.856307401241E+00
  0.909752234149E+00 -0.244096008036E+00  0.335809486647E+00
  0.719475911142E+00  0.122039239089E+00 -0.683711077437E+00
 -0.639469097894E+00 -0.500638093420E+00 -0.583473026160E+00
  0.479423493536E+00 -0.861390752549E+00  0.167806690177E+00
  0.358898310082E+00  0.784352277760E+00  0.505948127176E+00
  0.575956902279E+00 -0.212749053787E+00 -0.789310766954E+00
  0.558504635909E+00  0.630132785682E-01  0.827104526884E+00
 -0.954624874341E+00  0.287468236015E+00  0.778033583591E-01
  0.969281185368E+00 -0.228537159268E+00 -0.909106733297E-01
 -0.811002926896E+00 -0.580255470617E+00  0.746849475129E-01
 -0.197276403457E+00 -0.726075989734E+00  0.658707581383E+00
  0.116613436382E+00  0.835864393962E+00 -0.536406582138E+00
 -0.412561124760E+00  0.772678642088E+00  0.482453142178E+00
  0.675650022593E+00 -0.733597969539E+00  0.730141497157E-01
 -0.532888700025E+00 -0.447984164398E+00 -0.717871730767E+00
  0.116693220682E+00 -0.956682949038E+00 -0.266721628794E+00
 -0.975561424575E+00 -0.148707997939E+00  0.161758580079E+00
  0.556337429040E+00  0.464693474759E+00 -0.688874908503E+00
 -0.753473262167E+00  0.616597160159E+00 -0.228223542352E+00
  0.669033471362E+00 -0.550005292908E+00  0.499888379511E+00
  0.378083742198E+00 -0.749490378814E-01  0.922732531997E+00
 -0.101418697715E+00 -0.150245274606E+00  0.983433071039E+00
  0.327896087444E+00 -0.785600592967E+00  0.524705502323E+00
  0.649304425167E+00 -0.959712445182E-01 -0.754448993427E+00
  0.343241386019E+00 -0.689075644588E+00  0.638247684649E+00
  0.813873452456E+00  0.708656540262E-01 -0.576704484521E+00
 -0.602695368878E+00 -0.781798323403E+00  0.159842653433E+00
  0.636878665850E+00  0.647824720879E+00 -0.417981693382E+00
 -0.479921729516E+00 -0.864314522359E+00  0.150451121557E+00
  0.366372631850E+00 -0.138311780554E+00 -0.920130939590E+00
  0.723457956137E+00  0.614526383011E+00 -0.314588477673E+00
  0.255977864340E+00 -0.257183417466E+00  0.931843346678E+00
  0.357030397764E+00  0.391743043809E+00 -0.847977996589E+00
  0.271187076582E+00  0.901334652344E+00  0.337717950336E+00
  0.755370233091E-01  0.695397146740E+00 -0.714644643452E+00
 -0.542905965867E+00  0.428934785418E+00 -0.721988962578E+00
 -0.946794368436E+00  0.319419417840E+00  0.393911082037E-01
  0.264508768165E+00  0.402938043230E-01  0.963541136069E+00
 -0.958658639680E+00 -0.242977622249E+00  0.148106339005E+00
  0.493346404196E+00 -0.339324785277E+00  0.800916984190E+00
 -0.986320764289E+00 -0.163435992097E+00  0.214482264909E-01
 -0.916435784446E+00 -0.111953245536E+00 -0.384202972139E+00
  0.363257162654E+00  0.910670625580E+00 -0.196782228584E+00
  0.344861891134E+00  0.260233466290E+00  0.901858536061E+00
 -0.861282839859E+00 -0.163659305256E+00  0.481048336000E+00
 -0.938313008674E+00 -0.344204834373E+00  0.330413339292E-01
 -0.519461384126E+00 -0.333546806402E+00  0.786706043157E+00
 -0.789475793170E+00 -0.145083204868E+00  0.596388158554E+00
  0.821282100900E+00  0.118410710532E+00  0.558099108020E+00
 -0.480751422508E+00  0.725440691556E+00 -0.492558496821E+00
 -0.490347446038E-01 -0.492159898143E+00 -0.869122677464E+00
 -0.185002986172E+00 -0.909837811426E+00 -0.371441855486E+00
 -0.772487530343E+00  0.618596620227E+00 -0.143531309853E+00
  0.934905644756E+00 -0.353891844953E+00  0.266832808822E-01
 -0.230497365726E+00 -0.957787652864E+00  0.171795740386E+00
  0.268998021190E+00 -0.962188756362E+00 -0.428119343886E-01
 -0.654576093216E+00  0.738403013801E+00  0.162145389696E+00
  0.731369160693E+00  0.256407592653E+00  0.631944852988E+00
  0.922153883088E+00 -0.203229484145E+00 -0.329135219446E+00
 -0.988592487113E+00  0.136745876853E-01  0.149993000086E+00
 -0.115301941966E-01  0.988916310501E+00 -0.148025624292E+00
  0.496578291714E+00  0.779326011737E+00  0.382179234953E+00
  0.212863558245E+00  0.919076037502E+00 -0.331644904770E+00
 -0.127730891926E+00 -0.377046725287E+00  0.917344311695E+00
  0.170637527836E+00 -0.579927497837E+00 -0.796597094739E+00
  0.281265418576E-01 -0.781260706204E+00  0.623570851295E+00
 -0.144658275414E+00 -0.412561514267E+00  0.899370324338E+00
 -0.340298566052E+00  0.904800862480E+00  0.255992744424E+00
  0.835651954872E+00  0.168509237540E+00 -0.522771888287E+00
 -0.595166905022E+00 -0.622255692381E+00  0.508501925726E+00
  0.841825126568E+00  0.296694887517E+00 -0.450890895893E+00
  0.727646518491E+00  0.640237989021E+00 -0.246223194566E+00
 -0.630745272457E+00  0.531822544310E+00 -0.565088650245E+00
 -0.498581734312E-01 -0.138856569318E+00 -0.989056629167E+00
  0.681808686584E-01  0.894229784049E+00 -0.442384970890E+00
  0.160893737193E+00  0.827118172879E+00  0.538506019860E+00
 -0.421030369731E+00 -0.823042070005E+00 -0.381228512530E+00
 -0.774498677919E+00  0.294214284803E+00 -0.559990850389E+00
 -0.222028683922E+00  0.560353896799E+00 -0.797939079039E+00
  0.958762924960E+00 -0.243541379821E+00 -0.146496587116E+00
  0.967955665932E+00 -0.246352901043E+00  0.487039725045E-01
  0.401024386784E+00  0.902265866509E+00 -0.158416373323E+00
  0.432712218218E+00 -0.881836514914E+00 -0.187415306656E+00
  0.117751917006E+00 -0.112540430728E+00 -0.986645396023E+00
  0.165435200525E+00 -0.372949698706E+00 -0.912983962982E+00
  0.341861357399E+00 -0.844115756361E-01  0.935951653781E+00
  0.642680416280E+00  0.271036977257E+00 -0.716589728848E+00
  0.962872195899E+00  0.140919911766E+00 -0.230257926752E+00
  0.433745722428E+00 -0.629198821463E+00  0.644960069574E+00
 -0.267959173669E+00 -0.952226302545E+00 -0.146502389016E+00
  0.210775349048E+00 -0.954624561579E+00  0.210394150734E+00
  0.293824949619E-02 -0.982841394842E+00  0.184429279875E+00
 -0.725443411796E+00 -0.509850592288E+00  0.462368067480E+00
  0.681431951883E+00  0.704668131807E+00  0.197720304896E+00
  0.760666248333E+00 -0.645913670802E+00  0.646713887103E-01
 -0.110737013506E+00  0.143037943518E+00  0.983502648982E+00
  0.364769791773E+00 -0.848156290519E+00 -0.384153492581E+00
  0.397340788874E-01  0.522798690124E-01 -0.997841679963E+00
  0.418810489291E+00  0.898257949385E+00 -0.133155662392E+00
  0.524473435918E+00  0.128873092961E+00  0.841617098761E+00
 -0.880310617340E+00 -0.455793821131E+00  0.131549266887E+00
 -0.848566211163E+00  0.510837070180E+00 -0.137771089138E+00
  0.175592527797E+00 -0.682248781613E+00 -0.709720976278E+00
  0.801992282953E+00  0.590874479129E+00 -0.876112321471E-01
  0.598494983714E+00 -0.726045867254E+00  0.338616528115E+00
 -0.120843264018E+00  0.950264996383E+00  0.287042404865E+00
  0.127309180035E+00  0.987351885762E+00  0.944914089315E-01
 -0.994742190680E+00  0.400381415164E-01 -0.942598605186E-01
  0.558695705216E+00  0.258333788659E+00 -0.788113419889E+00
 -0.825753773418E+00 -0.558402837916E+00 -0.794794079885E-01
 -0.571482000508E+00  0.820353972033E+00 -0.206805141588E-01
  0.103573230784E+00  0.424667383171E+00  0.899405470039E+00
  0.158894480235E+00  0.957888078169E+00  0.239171431933E+00
 -0.485578647563E+00  0.241218468700E-01  0.873860122408E+00
[...]
CELL_DATA                7996
SCALARS C_p_inc float 1
LOOKUP_TABLE default
  0.989134013914E+00
  0.880817550068E+00
 -0.125790475106E+01
 -0.123839560453E+01
  0.996117531860E+00
  0.992979803980E+00
  0.989197808407E+00
  0.983151355879E+00
  0.982981951857E+00
  0.757152247630E+00
 -0.125765502532E+01
  0.997184292743E+00
  0.915080372071E+00
  0.947502553588E+00
  0.982673685591E+00
  0.944119426943E+00
  0.946499930880E+00
  0.933646463365E+00
  0.870159045727E+00
  0.795344061209E+00
 -0.921831778378E+00
 -0.533936620662E+00
  0.280028522043E+00
 -0.111757957476E+01
 -0.117101138808E+01
 -0.714621231311E+00
 -0.122351757846E+01
 -0.128707118562E+01
 -0.130573433729E+01
 -0.121284669447E+01
 -0.124673965553E+01
 -0.116863373504E+01
 -0.123241910084E+01
 -0.118683003161E+01
 -0.123528168122E+01
 -0.126363169894E+01
 -0.120010746878E+01
 -0.118795222704E+01
 -0.101306136252E+01
 -0.757920148540E+00
 -0.599081718319E+00
 -0.977389258036E+00
 -0.103804897959E+01
 -0.100193228871E+01
  0.993753672411E+00
  0.996386804243E+00
  0.923489312436E+00
  0.980823058938E+00
  0.983171387323E+00
  0.879512672655E+00
  0.982479194607E+00
  0.992609520858E+00
 -0.231475622404E+00
 -0.236860702507E+00
  0.393108823974E+00
  0.964280590880E+00
  0.947394343958E+00
  0.899331636285E+00
 -0.922275350167E+00
 -0.122202146602E+01
 -0.120939462661E+01
 -0.108967126129E+01
 -0.125350973542E+01
 -0.116647077714E+01
 -0.122133360726E+01
 -0.121302757966E+01
 -0.474560278557E+00
 -0.319101057220E+00
  0.538769844349E+00
 -0.153179399530E+00
  0.161389531282E+00
 -0.579231441021E+00
  0.996260866053E+00
 -0.126734504636E+01
 -0.123516146208E+01
 -0.127117809707E+01
 -0.108494391385E+01
 -0.112634412316E+01
 -0.119176394118E+01
 -0.123010958523E+01
 -0.121738318540E+01
 -0.119238054753E+01
 -0.124603178633E+01
 -0.821883287713E+00
 -0.119044461503E+01
 -0.120201116572E+01
 -0.116714265650E+01
 -0.124172750993E+01
 -0.119193170177E+01
 -0.122236294917E+01
  0.791819182050E+00
  0.828713591733E+00
  0.808606199368E+00
  0.680694103804E+00
  0.475974771750E+00
  0.426948489909E+00
  0.972778570648E+00
  0.963304838259E+00
  0.987192088791E+00
  0.975288984434E+00
  0.796243461309E+00
  0.744083561156E+00
  0.742002293281E+00
  0.759676889080E+00
  0.862140841777E+00
  0.990827471119E+00
 -0.612636841465E+00
 -0.771408681885E+00
 -0.806220231660E+00
 -0.985286846999E+00
 -0.747353274302E+00
 -0.730507887998E+00
 -0.149788866227E+00
 -0.893611567276E+00
 -0.940597180216E+00
 -0.858200144405E+00
 -0.643761653869E+00
 -0.859857549828E+00
 -0.651285599988E+00
 -0.778103678051E+00
 -0.620188099628E+00
 -0.908609010835E+00
 -0.535749186442E+00
  0.973959106204E+00
  0.972233524112E+00
  0.182503628094E+00
  0.126827531667E+00
  0.266609898454E+00
 -0.243573013355E-01
 -0.121514268101E+01
 -0.100476421723E+01
 -0.101447487431E+01
 -0.111471986280E+01
 -0.107722487804E+01
 -0.115358192314E+01
 -0.111069572295E+01
 -0.106053761751E+01
 -0.689251094128E+00
 -0.125270531649E+01
 -0.119678176872E+01
 -0.126358565110E+01
 -0.130872783422E+01
 -0.124922874283E+01
 -0.126481148080E+01
 -0.125873779724E+01
 -0.124383414468E+01
 -0.122565329209E+01
 -0.126761635132E+01
 -0.120641389889E+01
 -0.125382075287E+01
 -0.753874244534E+00
 -0.566983243216E+00
 -0.556099909680E+00
 -0.498802126338E+00
 -0.118658533761E+01
 -0.114899685803E+01
 -0.102407248839E+01
 -0.101422343533E+01
 -0.111726216360E+01
 -0.111255944448E+01
 -0.709432518453E+00
 -0.740258949078E+00
 -0.947354788939E+00
 -0.794875670441E+00
 -0.826928491712E+00
 -0.275806648199E+00
 -0.578232861761E+00
 -0.460395223840E+00
 -0.936055027924E+00
 -0.883696906127E+00
 -0.894302456335E+00
 -0.983208012466E+00
 -0.959143922851E+00
 -0.115515272498E+01
 -0.116015660257E+01
  0.625462592735E+00
  0.954703732502E+00
  0.963715671377E+00
  0.980219812186E+00
  0.948256080231E+00
 -0.994356796602E+00
 -0.909145193017E+00
 -0.928268750305E+00
 -0.938028424636E+00
 -0.101085702270E+01
 -0.641231609216E+00
 -0.619258953912E+00
 -0.619505808704E+00
 -0.573988581076E+00
 -0.581734112149E+00
 -0.214617889447E+00
 -0.291682280691E+00
  0.544881970201E+00
  0.583584910923E+00
 -0.362281266356E+00
 -0.311133774230E+00
  0.360504465949E+00
  0.376698539272E+00
 -0.446599674294E-01
  0.791032856406E+00
  0.928911952443E+00
  0.927100990312E+00
  0.919073198231E+00
  0.848786998442E+00
  0.857311688206E+00
 -0.105113817294E+01
 -0.100694742029E+01
 -0.988552012781E+00
 -0.110979056255E+01
 -0.109766208825E+01
 -0.925372743565E+00
 -0.816759542017E+00
 -0.128972575779E+01
 -0.118587822384E+01
 -0.115622720801E+01
 -0.119906911519E+01
 -0.123309927911E+01
 -0.112516489606E+01
 -0.112784372042E+01
 -0.125921269040E+01
 -0.122573642898E+01
 -0.120978718544E+01
 -0.128117984400E+01
 -0.128047401801E+01
 -0.126241440972E+01
 -0.121251048832E+01
 -0.123369872033E+01
 -0.119593700775E+01
 -0.121784661345E+01
 -0.117340223658E+01
 -0.121790941042E+01
 -0.123883162719E+01
 -0.122866548856E+01
 -0.113391935582E+01
 -0.122934768088E+01
 -0.123269038103E+01
 -0.114374749093E+01
 -0.118113058854E+01
 -0.960417055991E+00
 -0.104456162309E+01
  0.215919024196E+00
  0.390410122381E+00
  0.392646592224E+00
  0.357618180464E+00
 -0.674653747211E+00
 -0.455166580842E+00
  0.107078771140E+00
 -0.578620709072E-01
  0.240129975810E-01
 -0.197438780994E+00
 -0.578303522328E-01
 -0.572869358880E-01
  0.515955929065E+00
  0.574447552976E+00
  0.560220508883E+00
  0.787319547809E+00
  0.847284165752E+00
  0.887632138152E+00
  0.475730235660E+00
  0.839897427266E+00
  0.826633078480E+00
  0.153131651530E+00
  0.116231788699E+00
 -0.622405930966E+00
 -0.122894573257E+01
 -0.126816355673E+00
 -0.115458928574E+00
 -0.843911419406E-01
  0.974210009928E-01
 -0.354650419936E-01
 -0.356547609604E+00
 -0.508539309586E+00
  0.859304695414E-02
  0.258813279971E-02
 -0.150487330685E+00
 -0.642938083150E-01
 -0.157549785205E+00
 -0.104640598587E+00
 -0.136746205042E+00
 -0.842041099966E-01
  0.400770888276E+00
  0.857780792397E-01
  0.167025006376E+00
  0.201359936916E+00
  0.217452053970E+00
  0.372015897698E+00
 -0.147291992837E+00
  0.569199954822E+00
  0.169953608720E+00
 -0.485157459952E+00
  0.519934100665E+00
  0.531274000146E+00
  0.880289299201E+00
  0.855674518042E+00
  0.990216356936E+00
  0.599405672698E+00
  0.592411435884E+00
  0.591532452723E+00
 -0.150706896940E+00
 -0.159284260132E+00
 -0.238323473271E+00
 -0.247424860920E+00
 -0.362130773272E-01
  0.158564743484E+00
 -0.120616903027E+01
 -0.118272827639E+01
 -0.116926498157E+01
 -0.117981676775E+01
 -0.100968932839E+01
 -0.104949309763E+01
 -0.105143238952E+01
 -0.100969171580E+01
 -0.112676413428E+01
 -0.120398797075E+01
 -0.123890691195E+01
 -0.126821590893E+01
 -0.134935278787E+01
 -0.133463002219E+01
 -0.104710669174E+01
 -0.116562919231E+01
 -0.123033831094E+01
 -0.114057373527E+01
 -0.129122702690E+01
 -0.118127974946E+01
 -0.129957949036E+01
 -0.120189854021E+01
 -0.109383176324E+01
 -0.110925507827E+01
 -0.131424225088E+01
 -0.131321386734E+01
 -0.586605743345E+00
 -0.512488811389E+00
 -0.658478657179E+00
 -0.537740867227E+00
 -0.577347069728E+00
 -0.947083634924E+00
 -0.874166915871E+00
 -0.909228619477E+00
 -0.780803880667E+00
 -0.791077342761E+00
 -0.126853968112E+01
 -0.122672707839E+01
 -0.125801751911E+01
 -0.120516383557E+01
 -0.123619634898E+01
 -0.107168526227E+01
 -0.105796276398E+01
 -0.115539376052E+01
 -0.116308111955E+01
 -0.101574498377E+01
 -0.127924140850E+01
 -0.122370032151E+01
 -0.124395052914E+01
 -0.128440214877E+01
 -0.118831975522E+01
 -0.120821231724E+01
 -0.120251300743E+01
 -0.648067790262E+00
 -0.108972508607E+01
 -0.564304193581E+00
  0.570743515765E+00
  0.520112197941E+00
  0.657307734072E+00
  0.648308329270E+00
  0.284075026196E+00
  0.368595824307E+00
  0.640283581500E+00
  0.530991347299E+00
  0.671176254773E+00
  0.518383015670E+00
  0.515673777549E+00
  0.817544040523E+00
  0.809307301069E+00
  0.801472305205E+00
  0.794042095905E+00
  0.800584878792E+00
  0.935732021230E+00
  0.938927994545E+00
  0.891332530268E+00
  0.953950761381E+00
  0.949469750237E+00
 -0.101454772660E+01
 -0.124041626444E+01
 -0.971594252947E+00
 -0.901683995682E+00
 -0.627451607563E+00
 -0.848941874972E+00
 -0.631005356824E+00
 -0.751873002415E+00
 -0.740036357370E+00
 -0.628377960008E+00
 -0.635136857903E+00
 -0.590987926521E+00
 -0.595270641686E+00
 -0.620227847666E+00
 -0.926008183402E+00
 -0.548841804817E+00
 -0.539455217370E+00
 -0.340090223895E+00
 -0.265127342587E+00
 -0.618820477955E+00
 -0.122342860683E+01
 -0.122427703331E+01
 -0.124439753296E+01
 -0.122550194218E+01
 -0.122562911191E+01
 -0.123132205336E+01
 -0.125545350239E+01
 -0.100862800518E+01
 -0.574246311255E+00
  0.728332920660E+00
  0.777018734000E+00
  0.904515551565E+00
  0.730311487539E+00
  0.776177483935E+00
  0.799060013108E+00
  0.840039187882E+00
 -0.104971037725E+00
 -0.121992189601E+01
 -0.942770864106E+00
 -0.333168639255E-01
 -0.218013706060E+00
  0.299152921540E+00
  0.386203020595E+00
  0.384515672456E+00
  0.359902716340E+00
  0.285227711472E+00
  0.261630668004E-01
  0.225054354230E+00
  0.282962733627E+00
 -0.136455366021E+00
  0.357541036571E+00
  0.328172551253E+00
 -0.108477031386E+00
  0.561457095001E-01
 -0.954453233149E+00
 -0.998169307411E+00
 -0.982756302394E+00
 -0.995729474162E+00
 -0.132700496955E+01
 -0.123019968096E+01
 -0.119783938578E+01
 -0.119410210014E+01
 -0.634258002420E+00
 -0.578921574572E+00
 -0.558431007944E+00
 -0.423303300244E+00
 -0.386665595818E+00
 -0.112207932456E+01
 -0.107838425067E+01
 -0.106180281608E+01
 -0.106117046373E+01
 -0.106981541050E+01
 -0.109276657921E+01
 -0.113374504908E+01
 -0.112981677370E+01
 -0.103004981304E+01
 -0.109061639429E+01
 -0.115514671733E+01
 -0.117423224495E+01
 -0.115912472743E+01
 -0.110845821607E+01
 -0.119166798443E+01
 -0.668411371677E+00
 -0.489861082821E+00
 -0.121017648913E+01
 -0.119845047383E+01
 -0.141461210413E+01
 -0.127186495690E+01
 -0.145502835802E+01
 -0.121098874116E+01
 -0.132427951053E+01
 -0.131791695996E+01
 -0.128643949963E+01
 -0.136167175645E+01
 -0.118639200379E+01
 -0.118696727359E+01
 -0.126460867085E+01
 -0.128230020968E+01
 -0.117615217577E+01
 -0.121505064024E+01
 -0.102203714507E+01
 -0.965371951528E+00
 -0.100137519172E+01
 -0.994991282570E+00
 -0.823032119382E+00
 -0.218333452531E+00
 -0.461260511756E+00
 -0.463701492822E+00
 -0.463746884313E+00
 -0.938588096552E-01
 -0.144267671316E+00
 -0.989621005975E+00
 -0.101400335110E+01
 -0.115390960979E+01
 -0.116609619606E+01
 -0.131470720821E+01
 -0.115560734641E+01
 -0.111246034406E+01
 -0.123175398942E+01
 -0.112485912587E+01
 -0.130182719626E+01
 -0.729273940699E+00
 -0.899080535741E+00
 -0.120277266273E+01
 -0.901636452096E+00
 -0.889392994866E+00
 -0.728616277541E+00
 -0.744802075399E+00
 -0.896705401161E+00
 -0.917594343947E+00
 -0.885462105916E+00
 -0.105351455941E+01
 -0.100794587350E+01
 -0.925431193223E+00
 -0.915947777787E+00
 -0.859175073102E+00
 -0.993244478496E+00
 -0.754311995169E+00
 -0.751616851050E+00
 -0.592354909581E+00
 -0.680329361541E+00
 -0.734287299194E+00
 -0.718910212140E+00
 -0.673447333430E+00
 -0.313649696945E+00
 -0.166960615669E+00
 -0.718198715709E+00
 -0.508877431639E+00
 -0.401592830509E+00
 -0.973034258210E+00
 -0.121468795812E+01
 -0.116969466432E+01
 -0.123528189758E+01
 -0.113304367894E+01
 -0.110089048408E+01
 -0.958381561850E+00
 -0.935901108771E+00
  0.725672080259E+00
  0.518617270569E+00
  0.450973810139E+00
  0.483971276830E+00
 -0.574330261497E-01
  0.661425172378E+00
  0.730316292452E+00
  0.601453049958E+00
  0.614621922938E+00
  0.350981021954E+00
  0.437895858104E-01
  0.143477378388E+00
  0.786185126636E-01
  0.446126713181E-01
  0.270080292766E+00
  0.152213958198E+00
  0.993323201299E+00
  0.996467996650E+00
  0.991598434918E+00
  0.980567852165E+00
  0.980335296557E+00
  0.980329172201E+00
  0.958224146663E+00
  0.951471961341E+00
  0.685515589552E+00
  0.834785484804E+00
  0.842033834204E+00
  0.940089617660E+00
  0.685304648981E+00
  0.501807656214E+00
 -0.896717420842E+00
 -0.976552532292E+00
 -0.897621485794E+00
 -0.658824726039E+00
 -0.792094644074E+00
 -0.803506258005E+00
 -0.766299076752E+00
 -0.391747792404E+00
 -0.596702436960E+00
 -0.588971656069E+00
 -0.105867260691E+01
 -0.997623451506E+00
 -0.827505742156E+00
 -0.739017408750E+00
 -0.907649692067E+00
 -0.253632055741E+00
 -0.314915618876E+00
 -0.261697667440E+00
 -0.337696557320E+00
 -0.322587189774E+00
  0.498630827960E-03
  0.723206652160E-01
  0.652516052852E-01
 -0.260407341560E+00
 -0.203512097160E+00
 -0.974801256842E-01
 -0.708342178438E-01
 -0.625841050122E+00
 -0.634740803744E+00
 -0.776805031423E+00
 -0.788568852691E+00
 -0.434543785596E+00
 -0.484734813822E+00
 -0.247041854419E+00
 -0.261954087411E+00
 -0.297219172089E+00
  0.378471890467E+00
  0.319956984014E+00
  0.347518853955E-01
  0.247224104788E+00
  0.334664009324E+00
  0.394027747273E+00
  0.387005786302E+00
  0.384894321873E+00
  0.425632172672E+00
 -0.429544504664E-01
  0.316829437375E-01
  0.717965366252E-01
 -0.473945168089E-01
 -0.408511906969E+00
 -0.912524962750E+00
 -0.910865362768E+00
 -0.822257376888E+00
 -0.941207344530E+00
 -0.989830653166E+00
 -0.988950956472E+00
 -0.958320114119E+00
 -0.918840018894E+00
 -0.904314550286E+00
 -0.801805189613E+00
 -0.800183585547E+00
 -0.121794644265E+01
 -0.117968720745E+01
 -0.113364606765E+01
 -0.122188666229E+01
 -0.126724507464E+01
 -0.119682501270E+01
 -0.119770089482E+01
 -0.121547281428E+01
 -0.117728829523E+01
 -0.127706596658E+01
 -0.125995688408E+01
 -0.116019189908E+01
 -0.111423857715E+01
 -0.112067729624E+01
 -0.990247586123E+00
 -0.107956870723E+01
 -0.104126174907E+01
 -0.110911283750E+01
 -0.800060761163E+00
 -0.782820429027E+00
 -0.773905888530E+00
 -0.678244971922E+00
 -0.963717334336E+00
 -0.877626960010E+00
 -0.993454963488E+00
 -0.995497232713E+00
 -0.117247999072E+01
 -0.120741399235E+01
 -0.110279501294E+01
 -0.119996762369E+01
 -0.996211739597E+00
 -0.107254599034E+01
 -0.110737287874E+01
 -0.112421617278E+01
 -0.118655017877E+01
 -0.509185098218E+00
 -0.598161208594E+00
 -0.459836219413E+00
 -0.452087982896E+00
 -0.439733142304E+00
 -0.708484596557E+00
 -0.563204210648E+00
 -0.620084995535E+00
 -0.685014178344E+00
 -0.708103720814E+00
 -0.122096517545E+01
 -0.119368431682E+01
 -0.124078353835E+01
  0.323232088402E+00
  0.371214819507E+00
  0.480376466037E+00
  0.418378062930E+00
  0.152317645014E+00
  0.242366375889E+00
  0.251686531423E+00
  0.277317800538E+00
  0.316664580668E+00
 -0.246638577232E+00
 -0.428749388804E+00
 -0.396568279891E+00
 -0.385944744099E+00
  0.293432444530E+00
  0.765083208046E+00
  0.734789573459E+00
  0.704283311209E+00
  0.670755698301E+00
  0.543391018617E+00
  0.640335850001E+00
  0.565032917184E+00
  0.642441681535E+00
  0.928518004146E+00
  0.887944362711E+00
  0.924780098827E+00
  0.406259328060E+00
  0.363911321839E+00
  0.326041994339E+00
  0.568952430019E+00
  0.632114315503E+00
 -0.338444960648E+00
 -0.496840829776E+00
 -0.482848210063E+00
 -0.486946521907E+00
 -0.816529107596E-01
 -0.105275167014E+01
 -0.763643989272E+00
 -0.870156359660E+00
 -0.834441313613E+00
 -0.839072328695E+00
 -0.953428844523E+00
 -0.623110713483E+00
 -0.775074782854E+00
 -0.828632713505E+00
 -0.303482119999E+00
 -0.323541137561E+00
 -0.775032541299E+00
 -0.767294804293E+00
 -0.655343841640E+00
 -0.630767131950E+00
 -0.123604161399E+01
 -0.128979089604E+01
 -0.123052522835E+01
 -0.127575101427E+01
 -0.116383098153E+01
 -0.289039885715E+00
  0.334699864175E+00
  0.299569859065E+00
  0.231329087512E+00
  0.163451082312E+00
  0.566597788908E-01
 -0.257442434036E-01
  0.186516563827E+00
  0.154109143044E+00
  0.859549294477E-01
 -0.347285970792E-01
 -0.151209500122E-01
  0.200903116223E-02
 -0.512120072708E+00
 -0.518486456888E+00
 -0.686943392334E+00
 -0.264858666948E+00
 -0.385779641890E+00
 -0.363446172500E+00
 -0.308781319572E+00
 -0.651895345372E+00
 -0.711959880601E+00
 -0.228192436811E+00
  0.115443093516E+00
  0.598379059943E+00
  0.662637358561E+00
  0.576108245339E+00
 -0.354669453611E+00
 -0.363938179431E+00
 -0.279000756565E+00
 -0.297067891727E+00
 -0.344526893500E+00
 -0.362985713938E+00
  0.176158266371E-01
 -0.101135338479E+00
  0.406710692144E+00
  0.371235459970E+00
  0.229258086385E+00
  0.493697149687E+00
  0.491614989822E+00
  0.427377603132E-01
  0.201770079792E-01
 -0.749819300659E-01
 -0.604323165883E-01
  0.100506895808E+00
  0.933449993084E-01
  0.188722560167E+00
  0.133959684187E+00
  0.388595161941E+00
  0.480707903519E+00
  0.401054861971E-01
  0.201376080279E-01
  0.966219740596E-02
  0.216244317539E+00
  0.252397651202E-01
  0.274440270096E-01
  0.485932419160E+00
  0.492719336118E+00
  0.472750729906E+00
 -0.396536330631E+00
 -0.490459915479E+00
 -0.465481945598E+00
 -0.625222027329E+00
 -0.887592794641E+00
 -0.108383364714E+01
 -0.103004399862E+01
 -0.104477079817E+01
 -0.427427152708E+00
 -0.448370143642E+00
 -0.557453755425E+00
  0.342250708048E+00
  0.461460614126E+00
  0.608708998803E+00
  0.588168714440E+00
  0.538368211031E+00
  0.263091698851E+00
  0.235955568512E+00
 -0.915584903167E-01
 -0.103914431914E+00
 -0.109318479679E-01
 -0.251962297532E+00
 -0.245936832851E+00
 -0.328720971596E+00
 -0.467814671951E+00
 -0.509785315992E+00
 -0.221076105401E-01
  0.110798045174E+00
 -0.635994303296E+00
 -0.684929652499E+00
  0.607241075283E+00
  0.689068509362E+00
  0.692999076556E+00
  0.294738455168E+00
  0.787718648251E+00
  0.815913152962E+00
  0.745403217938E+00
  0.729177127383E+00
  0.727487089988E+00
  0.698576747495E+00
  0.601590822333E+00
  0.553657248093E+00
  0.697766839914E+00
  0.703155087937E+00
  0.704179111787E+00
  0.798869866030E+00
  0.815541552941E+00
  0.899439482986E+00
  0.828421338032E+00
  0.882367971693E+00
  0.959563740261E+00
  0.945704934132E+00
  0.826139775881E+00
  0.902202755408E+00
  0.872181694112E+00
  0.879226232092E+00
  0.916674584145E+00
  0.151405304766E+00
  0.217357757241E+00
  0.225537950200E+00
  0.596565975976E+00
  0.464805099471E+00
  0.418658017426E+00
  0.480855909788E+00
  0.535036467202E+00
  0.678872488274E+00
  0.674431435334E+00
  0.734576457444E+00
  0.689496462789E+00
 -0.273387787712E+00
 -0.192917266077E+00
 -0.309331469147E+00
 -0.389254928822E+00
 -0.256981377272E+00
 -0.167644018907E+00
 -0.927119836338E-01
 -0.991833323266E-01
  0.582723003981E+00
  0.354375937100E+00
  0.261191360031E+00
  0.270511966913E+00
  0.231179374941E+00
  0.259199853136E+00
  0.631515346524E+00
 -0.120259058690E+01
 -0.120391336919E+01
 -0.125815147432E+01
 -0.128875544109E+01
 -0.125027247114E+01
 -0.128645740253E+01
 -0.131887801164E+01
 -0.134142528613E+01
 -0.118803421314E+01
 -0.118026013078E+01
 -0.119789857812E+01
 -0.124005647112E+01
 -0.121240591166E+01
 -0.132002342117E+01
 -0.121175416071E+01
 -0.121539993146E+01
 -0.101414673544E+01
 -0.976629009761E+00
 -0.997741793223E+00
 -0.114198801273E+01
 -0.122383363991E+01
 -0.122930875913E+01
 -0.108983161586E+01
 -0.106622848010E+01
 -0.104658873576E+01
 -0.718158522917E+00
 -0.106455632217E+01
 -0.884959444081E+00
 -0.110855456240E+01
 -0.108699640316E+01
 -0.125416134997E+01
 -0.123574427562E+01
 -0.127781363804E+01
 -0.123497372513E+01
 -0.131599702349E+01
 -0.124980415048E+01
 -0.123090672241E+01
 -0.131548479568E+01
 -0.130192470902E+01
 -0.127654804869E+01
 -0.120935241538E+01
 -0.125745144768E+01
 -0.124361770990E+01
 -0.124570862745E+01
 -0.112618501582E+01
 -0.118270374705E+01
 -0.115699623449E+01
 -0.997003813299E+00
 -0.997705295294E+00
 -0.992432707375E+00
 -0.955548371511E+00
 -0.131402122783E+01
 -0.116717008772E+01
 -0.789492545275E+00
 -0.731386718895E+00
 -0.821264124055E+00
 -0.801298657183E+00
 -0.336396115777E+00
 -0.355925270224E+00
 -0.192225860434E+00
 -0.190776821678E+00
 -0.392917767715E+00
 -0.395245094672E+00
 -0.797016860379E+00
 -0.556060286417E+00
 -0.557813864734E+00
 -0.542324231880E+00
 -0.589963512876E+00
 -0.119736737808E+01
 -0.112666752587E+01
 -0.113532819548E+01
 -0.122893249851E+01
 -0.939363908138E+00