# vtk DataFile Version 3.0
MachLine results file. Generated by MachLine, USU AeroLab (c) 2022.
ASCII
DATASET POLYDATA
POINTS                2000 float
  0.538129456401E-01 -0.983819891867E+00 -0.170887645103E+00
 -0.184979525359E+00  0.618661435476E+00 -0.763570955087E+00
  0.247121612232E+00  0.751956677474E+00  0.611139970850E+00
  0.242497086521E-01 -0.807865366869E+00  0.588867982355E+00
 -0.761502091469E+00  0.154028109681E+00  0.629595033427E+00
  0.507618636038E+00  0.809936371302E-01  0.857766489839E+00
 -0.149117953592E+00  0.986245902111E+00 -0.712941546450E-01
  0.837977466466E+00  0.496206783892E+00 -0.227096000217E+00
 -0.476696038582E+00  0.251974788663E+00  0.842181448786E+00
  0.632800142549E+00  0.748566481846E+00 -0.198020710650E+00
  0.482073720519E+00 -0.747667146968E+00  0.456726138216E+00
  0.197069897265E+00 -0.823982411967E+00 -0.531240473196E+00
 -0.865407079763E-01  0.989092069832E+00  0.119195567280E+00
  0.327342554985E+00 -0.902189538336E+00  0.280893019873E+00
 -0.311058655586E+00 -0.818182207819E+00  0.483549777783E+00
 -0.709370158253E+00  0.229182597127E+00  0.666535307208E+00
  0.475800956247E+00 -0.799278983682E+00 -0.367105647299E+00
 -0.634218041373E+00  0.644049100191E+00 -0.427747860940E+00
  0.928079678138E+00 -0.255330045463E+00  0.271062131089E+00
  0.544942036963E+00 -0.820045604495E+00 -0.174823862501E+00
  0.333745165450E+00 -0.292463045629E-01 -0.942209540499E+00
  0.272392306352E+00  0.961941426685E+00  0.217053695343E-01
 -0.713387279549E+00 -0.476329204242E+00  0.513993267041E+00
 -0.723158893906E+00  0.690656941706E+00 -0.584833635671E-02
 -0.630067909346E+00 -0.261075689663E+00 -0.731337072682E+00
 -0.609302097106E+00 -0.208463146480E+00  0.765045143127E+00
  0.904911834328E+00 -0.415378550786E+00  0.927104721131E-01
 -0.525319971260E-01  0.443183914302E+00 -0.894890164982E+00
  0.647275272174E+00 -0.604970247955E+00  0.463730224508E+00
  0.465144073499E+00 -0.759228386457E+00 -0.455206819025E+00
 -0.365193858257E+00  0.908751589439E+00 -0.201999986591E+00
  0.417786290588E+00 -0.889259819646E+00 -0.186203084184E+00
  0.284892095702E+00 -0.752180360734E+00 -0.594189530986E+00
 -0.505165258969E+00 -0.407431489990E-01 -0.862060355741E+00
 -0.869508361288E+00 -0.269614992699E+00  0.413839298958E+00
  0.718361467062E+00 -0.404074786307E+00 -0.566286473184E+00
 -0.179883469840E+00 -0.155495350737E+00  0.971320304111E+00
 -0.984033113463E+00  0.486940193203E-01 -0.171194988511E+00
 -0.773901847663E+00  0.274432390300E+00  0.570756334470E+00
  0.732537995701E+00 -0.136478541413E+00  0.666904560330E+00
  0.117713337892E+00 -0.993044447561E+00  0.250903360642E-02
 -0.931001615904E+00  0.344109607671E+00 -0.121756187079E+00
 -0.712367125971E+00 -0.136875038762E+00 -0.688330081865E+00
 -0.805458675707E+00  0.540984563819E+00 -0.242016576782E+00
  0.896993641091E+00 -0.305465094161E-01 -0.440986755589E+00
 -0.174231531915E+00 -0.713472659687E+00 -0.678675281093E+00
  0.406888213691E+00  0.399150581724E+00  0.821657346263E+00
  0.779620622391E+00  0.619193937754E+00  0.937579468201E-01
 -0.380066089613E+00 -0.583926212351E+00  0.717342279568E+00
 -0.558634850940E+00  0.772659447353E+00 -0.301536866289E+00
 -0.268593656429E-01  0.931895082110E-01  0.995286034282E+00
 -0.321235053631E-01  0.550310596050E+00  0.834341853366E+00
 -0.578877822564E+00  0.704245819802E+00  0.411021035758E+00
  0.395059155028E+00  0.261962011938E+00 -0.880513582138E+00
 -0.939566961199E+00 -0.305368426980E+00  0.154803259745E+00
  0.421320296430E+00  0.558471276618E+00 -0.714562132364E+00
 -0.864305188806E+00 -0.431755150430E+00  0.258000059457E+00
  0.426232566723E+00  0.959866104153E-01  0.899506736876E+00
 -0.376872620159E+00  0.223823882863E+00 -0.898815830766E+00
 -0.119426696804E+00 -0.990363688841E+00 -0.701215224789E-01
 -0.446094726401E+00 -0.351232915798E-01  0.894296287293E+00
 -0.564043818045E+00 -0.549843375014E+00 -0.616057492673E+00
 -0.777844508757E+00  0.720283430896E-01  0.624315495554E+00
  0.264052041892E+00 -0.953783226988E+00 -0.143436658802E+00
  0.260940632754E+00 -0.541484107585E+00 -0.799190182254E+00
  0.370479993590E+00  0.289838848514E+00 -0.882461339800E+00
  0.990220803385E+00  0.455467183450E-01 -0.131864540314E+00
  0.993783986499E+00  0.784419018820E-01  0.789952923111E-01
  0.511867795243E+00  0.685773769642E+00 -0.517402838284E+00
  0.918351175854E+00 -0.307251755172E+00 -0.249454358052E+00
  0.601720275358E+00 -0.163374714723E+00  0.781819296777E+00
  0.919979466368E+00  0.390569536431E+00  0.330638575085E-01
  0.600271236306E+00  0.786382067500E+00 -0.145868731324E+00
  0.198127383048E-01 -0.328447460024E-01  0.999264068233E+00
 -0.358701777674E-02  0.392218635289E+00  0.919865031097E+00
  0.149986243790E-01 -0.386367133755E+00  0.922223117917E+00
 -0.619769831270E+00 -0.214101707904E+00  0.755013784590E+00
  0.480780020532E+00 -0.835521022038E+00  0.265998484186E+00
  0.580985937680E+00  0.761168121528E+00 -0.288233292642E+00
 -0.416159904900E+00  0.908361948121E+00 -0.411035857297E-01
  0.999024544362E+00 -0.316905000705E-01 -0.307517799236E-01
  0.831165253796E+00  0.191526771226E-02  0.556022169191E+00
 -0.586022246380E-01  0.956158406234E+00  0.286926613362E+00
 -0.321502229451E+00 -0.946502563313E+00  0.277347092844E-01
  0.266573772222E-01 -0.926609934378E+00 -0.375077876916E+00
 -0.870650905256E-01  0.990390840300E+00 -0.107450702470E+00
 -0.663309613766E+00  0.833085882645E-02  0.748298705783E+00
 -0.155525107505E+00 -0.603396777518E+00 -0.782128039273E+00
 -0.809406675626E+00  0.330819032240E+00 -0.485200578483E+00
  0.590020237028E+00  0.595230586325E-01  0.805191359484E+00
  0.261060038239E+00 -0.964550632990E+00 -0.385970573136E-01
  0.964275307800E+00 -0.189277412799E+00 -0.185329953786E+00
  0.308102165118E-01 -0.479769718627E+00  0.876853321626E+00
  0.900622927911E+00 -0.121236225245E-01 -0.434432226587E+00
 -0.923642924435E+00 -0.153638512070E+00  0.351111030517E+00
 -0.382060202654E+00 -0.963627322085E-01  0.919099681966E+00
 -0.282847625791E+00 -0.670276722496E+00  0.686094990409E+00
 -0.255584066018E+00 -0.946390673080E+00 -0.197538550935E+00
 -0.653413094224E+00 -0.706324724382E+00 -0.272317300265E+00
 -0.835374913766E+00  0.284747038995E+00  0.470178558884E+00
 -0.168539690057E+00  0.318645796648E+00  0.932769654928E+00
  0.332553894962E+00 -0.786238423978E+00 -0.520804231556E+00
 -0.428314031455E+00  0.901783059972E+00 -0.577442915447E-01
  0.428967797400E+00  0.893791428908E+00  0.130856831711E+00
  0.100132261350E+00 -0.936755212694E+00 -0.335355336512E+00
  0.401702890953E+00  0.212093591892E+00  0.890870975887E+00
  0.770241558656E+00  0.420840401589E+00  0.479188165244E+00
  0.429963666456E+00 -0.217803085043E+00  0.876180952586E+00
  0.793348522299E+00 -0.608737062792E+00 -0.610823616443E-02
 -0.453045554054E+00 -0.670990130306E+00  0.586959939846E+00
 -0.248216928225E+00  0.645557650599E+00  0.722249040356E+00
 -0.835851068909E+00  0.959061991869E-01  0.540513636795E+00
 -0.389351823059E+00 -0.585629868688E+00  0.710945015301E+00
 -0.307757436261E+00  0.882648366990E+00 -0.355270630190E+00
 -0.302883375789E+00  0.710690823317E+00 -0.634964734708E+00
 -0.164787186471E+00  0.231471286173E+00  0.958783722668E+00
 -0.804932322028E-01 -0.884096613964E+00 -0.460319472484E+00
 -0.181058008719E+00  0.707768686077E+00 -0.682848068378E+00
  0.917229933039E+00  0.274940798992E+00 -0.288265167834E+00
 -0.452677987533E+00  0.814087224074E+00  0.363792016408E+00
 -0.322079988067E+00 -0.946695468954E+00  0.567189113324E-02
 -0.472262907492E+00  0.284885231586E+00 -0.834151155985E+00
 -0.226287956558E+00 -0.370259009123E+00 -0.900945074286E+00
 -0.886012717277E+00 -0.412431012353E+00  0.211854017838E+00
 -0.620177501858E+00 -0.645128931628E+00 -0.446305419825E+00
 -0.483615914118E+00  0.691239028710E+00 -0.536939710581E+00
 -0.217527179957E+00  0.900468830478E+00 -0.376613610106E+00
 -0.956546150454E-01  0.980246575753E+00  0.173109345052E+00
  0.720032591328E+00  0.608497452876E+00 -0.333592441863E+00
  0.715072998262E+00  0.229678298468E-01  0.698672373827E+00
 -0.795409274773E+00 -0.347120220876E+00 -0.496821535225E+00
 -0.472953882511E+00 -0.722802022673E+00 -0.503856984707E+00
 -0.358807951370E+00 -0.660854297621E+00  0.659187720873E+00
  0.535864468877E-01  0.463688149733E+00 -0.884376499296E+00
  0.882183415165E+00  0.197710605768E+00  0.427390849663E+00
 -0.969548916035E+00  0.193153621540E+00  0.150554235747E+00
 -0.666811605910E+00 -0.131662689208E+00 -0.733503386832E+00
 -0.428549805655E+00 -0.835424671236E+00 -0.344108533408E+00
  0.872352066003E+00  0.475824178785E+00  0.112219534055E+00
  0.614755254390E+00  0.335296919642E+00 -0.713899119539E+00
 -0.383279767126E+00 -0.731679992014E+00  0.563685204168E+00
  0.407746537938E+00 -0.822915698114E+00 -0.395667176547E+00
  0.942331816846E+00 -0.334521832683E+00 -0.102903070086E-01
  0.478099230243E+00 -0.666795246380E+00  0.571668807481E+00
 -0.952035076839E+00 -0.231139718481E+00 -0.200508461190E+00
 -0.509910081638E+00 -0.562074737821E+00  0.651201733526E+00
  0.871735294034E+00 -0.138079512019E-02 -0.489975173393E+00
  0.695420387777E+00  0.381719141918E+00 -0.608835758606E+00
  0.173921375365E+00 -0.918062847193E+00 -0.356247054438E+00
 -0.691132872725E+00  0.708345411594E+00 -0.143464734735E+00
  0.831914625971E-01 -0.947916960372E+00  0.307461569615E+00
 -0.681162013384E+00  0.582742126528E+00  0.443204157801E+00
  0.413157810787E+00 -0.910311072610E+00  0.251867915698E-01
 -0.295346287352E+00  0.631585770414E+00 -0.716847253715E+00
 -0.715252473517E+00  0.131133776959E+00  0.686453080456E+00
 -0.728467965320E+00  0.524398463961E+00 -0.440840872082E+00
  0.504105436734E+00 -0.696733391326E+00  0.510333508665E+00
 -0.199814725069E+00  0.914244540045E+00  0.352464177817E+00
  0.984747853436E+00  0.272838827806E-01 -0.171834964119E+00
  0.353644649344E+00  0.794961095095E+00 -0.492922224369E+00
  0.860995218944E+00  0.957612230195E-01  0.499516787627E+00
[...]
CELL_DATA                3996
SCALARS C_p_inc float 1
LOOKUP_TABLE default
  0.995407972451E+00
  0.961430301560E+00
  0.972485082629E+00
 -0.112717971246E+01
 -0.447174480804E-01
 -0.470823895675E-01
 -0.120212321231E+01
 -0.121342646951E+01
 -0.484493535251E+00
 -0.121556212654E+01
 -0.119574892479E+01
 -0.128691051395E+01
 -0.125949553530E+01
  0.900319569935E+00
  0.999620374609E+00
  0.995530978814E+00
 -0.384542944005E+00
 -0.429944552264E+00
 -0.118903845031E+01
 -0.129794761160E+01
 -0.124329595710E+01
 -0.117593945836E+01
 -0.117444086937E+01
  0.995553644586E+00
  0.970420958830E+00
  0.969847825333E+00
  0.848581769615E+00
  0.831779518444E+00
  0.921320869325E+00
  0.946188781536E+00
  0.405296321309E+00
 -0.128060045388E+01
 -0.127750882706E+01
 -0.115009371507E+01
 -0.912311604771E+00
 -0.116128581443E+01
 -0.119205295705E+01
 -0.116447855485E+01
 -0.116772078357E+01
 -0.138405972017E+00
 -0.114443789745E+00
 -0.103110143706E+01
  0.343439210662E+00
 -0.117692868379E+00
 -0.119077172356E+01
 -0.119573321425E+01
 -0.538384373552E+00
 -0.513259949617E+00
 -0.120984208582E+01
 -0.122636081789E+01
 -0.120992715553E+01
  0.695694546595E+00
  0.461771255483E+00
  0.607793715983E+00
  0.613757955940E+00
  0.980382571197E+00
  0.983808729567E+00
  0.921132541929E+00
  0.979951089321E+00
  0.997191687194E+00
 -0.120116208528E+00
 -0.908953163450E-01
 -0.219270741957E+00
 -0.131921496121E+00
 -0.294067970068E+00
 -0.340383905348E+00
 -0.147031431190E+01
 -0.125440234725E+01
 -0.988280053379E+00
 -0.990454136787E+00
 -0.533168663182E+00
 -0.553811465151E+00
 -0.579746107081E+00
 -0.599316910880E+00
 -0.343207218888E+00
 -0.396633510501E+00
 -0.328557618949E+00
 -0.862709453736E+00
 -0.116733907578E+01
 -0.115425957914E+01
 -0.790129057729E+00
 -0.934944414556E+00
 -0.634101663582E+00
 -0.852624320980E+00
 -0.924604843693E+00
 -0.944231851631E+00
 -0.101639283956E+01
 -0.915811718671E+00
 -0.115307620554E+01
 -0.115527431070E+01
 -0.116399524526E+01
 -0.110101730638E+01
 -0.119124954511E+01
 -0.113771910816E+01
 -0.126229907528E+01
 -0.128721331688E+01
 -0.125786747507E+01
 -0.128249677455E+01
 -0.126509440107E+01
 -0.119226847562E+01
 -0.115098371016E+01
 -0.117619618223E+01
 -0.122350214517E+01
  0.832774273641E+00
  0.793543134372E+00
  0.804603726850E+00
 -0.389459575805E+00
 -0.296285899850E+00
 -0.105518430235E+01
 -0.105479872874E+01
 -0.120683676602E+01
 -0.727178444766E+00
 -0.767981505255E+00
  0.110353950787E+00
  0.876592251111E+00
  0.944011733623E+00
 -0.459132776518E+00
 -0.521160061684E+00
  0.332712787817E+00
 -0.129442088110E+01
 -0.117101671207E+01
 -0.397259779936E+00
 -0.585832099351E+00
 -0.118982310336E+01
 -0.125550088987E+01
 -0.926255874690E+00
 -0.112822896640E+01
 -0.117132710496E+01
 -0.116991309089E+01
 -0.114908174399E+01
 -0.787374039010E+00
 -0.895151655783E+00
 -0.119562935865E+01
 -0.120867967795E+01
 -0.120388748045E+01
 -0.120213870903E+01
 -0.124599323263E+01
 -0.113612356060E+01
 -0.106852273158E+01
 -0.988266856788E+00
 -0.123583508042E+01
 -0.864450724971E+00
 -0.110662375791E+01
 -0.110157551589E+01
 -0.113574356595E+01
 -0.437789872377E+00
 -0.619805804384E+00
 -0.142722059032E+01
 -0.120173380477E+01
 -0.120149396266E+01
  0.722182178502E+00
 -0.299016803863E+00
 -0.405835317660E+00
  0.598000851851E+00
  0.501091521204E+00
  0.413390677200E+00
  0.654569277404E+00
  0.834121698636E+00
  0.805022594394E+00
  0.953482874844E+00
  0.943961679907E+00
  0.884674444439E+00
  0.969138061532E+00
 -0.202969141304E+00
 -0.172262425682E+00
 -0.166022014499E+00
 -0.151226187530E+00
 -0.186259138315E+00
 -0.326233198795E-01
  0.223321649152E+00
 -0.925225768165E-01
 -0.114898898758E+01
  0.310987104429E-01
  0.856911696869E-01
  0.561388708421E+00
  0.667887816041E+00
  0.330077741627E+00
  0.389056129259E+00
  0.502351394535E+00
  0.760877302049E+00
  0.780527198819E+00
  0.953479990466E+00
 -0.646781203850E-01
 -0.595322821144E-01
  0.989925622444E-01
  0.376215867978E+00
  0.369525963332E+00
  0.157586744411E+00
  0.584245882893E+00
 -0.119094084879E+01
 -0.118553739109E+01
 -0.114131588669E+01
 -0.124538664615E+01
  0.681303111377E+00
  0.721584040046E+00
  0.595920484748E+00
  0.609214727010E+00
  0.795989253720E+00
  0.758653740771E+00
  0.515748007345E+00
  0.464106977306E+00
  0.603134478151E+00
  0.647927818047E+00
  0.442941195935E+00
 -0.120698058650E+01
 -0.761621533494E+00
 -0.930837425387E+00
 -0.960435713180E+00
 -0.100344682040E+01
 -0.112693139078E+01
 -0.997006263356E+00
 -0.904186606408E+00
 -0.869049410209E+00
 -0.484333236034E+00
 -0.286529803751E-01
 -0.113484588553E+00
 -0.635664982512E-01
 -0.319982009874E+00
 -0.363065914543E+00
 -0.141164298524E+00
 -0.131885547078E+00
 -0.117617901951E+01
  0.139078502170E+00
 -0.303681564561E-01
  0.486097625382E+00
 -0.326622953584E+00
 -0.483943129482E+00
 -0.129534561253E+00
 -0.707880406807E+00
 -0.942164378924E+00
 -0.982837759296E+00
 -0.109079443503E+01
 -0.117775289108E+01
 -0.117067863733E+01
  0.379434525164E+00
  0.409025851514E+00
  0.542162274859E-01
  0.749280581067E-01
 -0.514980711622E+00
 -0.372881760183E+00
 -0.356202777230E-01
 -0.413117754141E-01
 -0.267242971279E+00
 -0.260714144659E+00
 -0.304137204383E+00
 -0.169199321746E+00
 -0.322817622440E+00
 -0.321472282921E+00
 -0.500235410011E+00
 -0.448162852284E+00
 -0.453628393214E+00
 -0.313745105134E+00
 -0.108606512514E+01
 -0.414230637635E+00
 -0.488571618175E+00
 -0.590815920755E+00
 -0.535070693201E+00
 -0.118206988197E+01
 -0.113673140667E+01
  0.474061361437E-01
  0.816765079994E-02
 -0.963235344322E-01
 -0.423566920021E+00
  0.834522525843E-01
  0.322921594620E+00
  0.292775337325E+00
  0.340585950018E+00
  0.190130524211E+00
  0.224109085585E+00
  0.192885687635E+00
  0.393519713960E+00
  0.433287312285E+00
 -0.970239994593E-01
 -0.136300470599E+00
 -0.127926893086E+01
 -0.115306300396E+01
 -0.128242334219E+01
 -0.152293376970E+01
 -0.120878306603E+01
 -0.112764924555E+01
 -0.119449410232E+01
 -0.123594607367E+01
  0.163274301737E+00
 -0.144205631018E+00
 -0.359735563148E+00
  0.219728581633E+00
  0.911389542091E+00
  0.753387771684E+00
  0.704565848428E+00
  0.713763053394E+00
  0.931836320945E+00
  0.996917615129E+00
  0.991147024415E+00
  0.995434447631E+00
  0.993105475902E+00
  0.983135220741E+00
  0.995179977959E+00
 -0.522895375068E+00
 -0.341756177797E+00
 -0.342481065082E+00
 -0.640036497813E+00
 -0.538661460565E+00
  0.294110100746E+00
  0.190205265621E+00
 -0.400496533941E+00
 -0.454484385153E+00
 -0.375621063651E+00
 -0.839356569011E+00
 -0.526202730255E+00
 -0.591405439746E-01
  0.118044452495E-02
 -0.209269585529E+00
 -0.271439842977E+00
 -0.287012467773E+00
 -0.447116456481E+00
 -0.190782522546E+00
  0.127606504437E+00
 -0.611684138706E+00
 -0.453433380221E+00
 -0.412735670713E+00
 -0.773437121802E+00
 -0.867257933920E+00
 -0.716734506995E+00
 -0.752350145506E+00
 -0.148557215463E+00
 -0.523527785298E-01
 -0.302225354087E+00
 -0.993134840429E+00
 -0.102757040668E+01
 -0.533720694474E+00
 -0.599898307401E+00
 -0.102039581540E+01
 -0.139646358847E+01
 -0.144111880461E+01
 -0.112724343816E+01
 -0.137977484947E+01
 -0.136195022521E+01
 -0.122050105601E+01
 -0.145223172714E+01
 -0.120251349436E+01
 -0.116467175643E+01
 -0.834198317323E+00
 -0.812602637579E+00
 -0.649713653415E+00
 -0.612121937672E+00
 -0.413863511958E+00
 -0.458197327814E+00
 -0.119389394837E+01
 -0.995507468144E+00
 -0.112325217326E+01
 -0.126658811446E+01
 -0.129149468807E+01
 -0.134260007097E+01
 -0.133490721523E+01
 -0.126116753583E+01
 -0.127743257908E+01
 -0.123478260613E+01
 -0.111218647277E+01
 -0.111140739679E+01
 -0.767342706868E+00
 -0.121315401959E+01
 -0.127082417734E+01
 -0.119357149767E+01
 -0.112575401038E+01
 -0.122339460340E+01
 -0.115148139285E+01
  0.543046902631E+00
  0.651888737391E+00
  0.682397034391E+00
  0.858011426975E+00
  0.860778131483E+00
  0.762965561668E+00
  0.785397931333E+00
  0.609067121249E+00
  0.647866829937E+00
  0.962997070554E+00
  0.912705883819E+00
  0.940570120876E+00
  0.944149060838E+00
  0.927694071029E+00
  0.337605232062E+00
  0.366292529724E+00
  0.494737622345E+00
  0.940745103611E+00
  0.798119853507E+00
 -0.462429897816E+00
 -0.496649680871E+00
 -0.481476638352E+00
 -0.484773446016E+00
 -0.764884583647E+00
 -0.933728045216E+00
 -0.389285726607E+00
 -0.513833994880E+00
 -0.534849597042E+00
 -0.538016864145E+00
 -0.311296685753E+00
 -0.129419020419E+00
  0.770901314293E+00
 -0.335939910917E+00
 -0.361543370660E+00
 -0.523977644083E+00
 -0.457531450853E+00
 -0.490277955574E+00
 -0.392625082614E+00
 -0.322689917878E+00
  0.605238281335E+00
  0.606235308753E+00
  0.548458059558E+00
  0.533849360383E+00
 -0.128092794490E+01
 -0.132910955886E+01
 -0.110069957357E+01
 -0.131997137180E+01
 -0.129597801676E+01
 -0.129177825603E+01
 -0.118940939379E+01
 -0.133304579459E+01
 -0.876013578634E+00
 -0.804629887829E+00
 -0.749092688398E+00
 -0.830860261105E+00
 -0.454540028644E+00
 -0.405357522138E+00
 -0.419845739720E+00
 -0.117940948091E+01
 -0.120634803605E+01
 -0.120279588947E+01
 -0.965504654055E+00
 -0.105728879463E+01
 -0.102282527805E+01
 -0.271591281785E+00
  0.963180623537E-02
  0.488758322539E-01
 -0.178715668317E+00
  0.188154946541E+00
  0.403948391748E+00
  0.533341493434E+00
  0.534998101144E+00
 -0.409638564761E+00
 -0.415090252055E+00
 -0.498190916846E+00
 -0.529161663554E+00
 -0.543237856149E+00
 -0.513317394490E+00
 -0.506124358543E+00
  0.594667973042E+00
  0.584121397017E+00
 -0.305714310726E-01
  0.778159101038E-01
  0.893805991709E-01
  0.243635888010E+00
  0.202347738187E+00
 -0.680783938888E+00
 -0.865083139362E+00
 -0.944375234735E+00
 -0.108757991835E+01
 -0.120144954461E+01
 -0.908013683059E+00
 -0.947114493764E+00
 -0.109663028424E+01
 -0.975755232939E+00
 -0.129340958311E+01
 -0.126565222787E+01
 -0.114369310993E+01
 -0.130372766047E+01
 -0.118629300918E+01
 -0.122604602107E+01
 -0.121247525088E+01
 -0.120484534894E+01
 -0.122853932351E+01
 -0.134192855202E+01
 -0.119394124926E+01
 -0.488515609439E+00
 -0.480749709610E+00
 -0.684397753102E+00
 -0.791741296905E+00
 -0.842940069323E+00
 -0.324275311080E+00
 -0.329300871179E+00
 -0.478121788530E+00
 -0.118977374174E+01
 -0.125335356065E+01
 -0.125148109738E+01
 -0.120511465637E+01
 -0.116336025319E+01
 -0.115683102837E+01
 -0.856967075181E+00
 -0.956154861262E+00
 -0.104547652276E+01
 -0.105390347634E+01
 -0.120797905258E+01
 -0.122175096339E+01
 -0.119071254111E+01
 -0.951757021912E+00
 -0.949308589674E+00
 -0.116142112287E+01
 -0.121223950084E+01
 -0.120740739063E+01
 -0.119555015416E+01
 -0.120365202457E+01
 -0.120812753105E+01
 -0.120314146272E+01
 -0.125587565688E+01
 -0.971506976595E+00
 -0.100410826968E+01
 -0.105807485530E+01
 -0.104665357732E+01
 -0.111020390824E+01
 -0.985726498158E+00
 -0.984485616960E+00
 -0.969473563556E+00
 -0.914719955554E+00
 -0.795460195562E+00
 -0.792026525695E+00
 -0.123698622206E+01
 -0.122502046728E+01
 -0.122442165678E+01
 -0.123305710922E+01
 -0.113987555979E+01
 -0.112184882006E+01
 -0.111741891660E+01
 -0.110928544354E+01
 -0.114386274783E+01
 -0.126152992574E+01
 -0.110237680918E+01
 -0.123073019405E+01
 -0.111611226348E+01
 -0.103492195375E+01
 -0.106990058430E+01
 -0.117972582416E+01
 -0.118631664416E+01
 -0.119694620440E+01
 -0.124338671891E+01
 -0.121292352045E+01
 -0.112120485379E+01
 -0.117669340593E+01
 -0.116819343029E+01
 -0.108459114758E+01
 -0.108050631415E+01
 -0.111426937117E+01
 -0.114041241943E+01
 -0.955192038733E+00
 -0.898425370429E+00
 -0.940541386282E+00
 -0.120340247547E+01
 -0.122309506050E+01
 -0.120869912258E+01
 -0.104018400113E+01
 -0.112641797011E+01
 -0.120964693735E+01
 -0.129967905919E+01
 -0.766945842698E+00
 -0.759429877245E+00
 -0.106154600023E+01
 -0.694710294360E+00
 -0.872197939456E+00
 -0.915914206444E+00
 -0.121791892645E+01
 -0.926557900500E+00
 -0.115220799705E+01
 -0.507781440768E+00
 -0.585440634651E+00
 -0.642371176266E+00
 -0.714838960930E+00
 -0.464530423739E+00
 -0.260525987375E+00
 -0.494534955023E+00
 -0.155514116245E+00
 -0.195811457206E+00
 -0.713746841470E-01
  0.569173897957E+00
  0.611195557094E+00
  0.561146806260E+00
 -0.428898383290E-01
 -0.640120307530E+00
 -0.840491335073E+00
 -0.655362551982E+00
  0.688479965961E+00
  0.632418017002E+00
  0.601838701153E+00
  0.646558965188E+00
  0.909952269232E+00
  0.900177703950E+00
  0.850081354126E+00
  0.851275045767E+00
  0.903852329714E+00
  0.962141095252E+00
  0.962250274975E+00
 -0.248724812738E+00
 -0.312552273709E+00
 -0.231203693293E+00
 -0.433363389261E+00
 -0.334530406665E+00
  0.619867268846E-01
  0.913924017706E-01
  0.258814945864E+00
  0.445654239712E+00
  0.547393710388E+00
  0.345847683503E+00
  0.506369912151E+00
  0.515997137363E+00
  0.336677627072E+00
  0.145778448371E+00
  0.195511727492E+00
 -0.443207154190E+00
 -0.213847383976E+00
 -0.305966947158E+00
 -0.120958497702E+01
 -0.120691199724E+01
 -0.124934916343E+01
 -0.126417836509E+01
 -0.995255401371E+00
 -0.116697100350E+01
 -0.108246132128E+01
 -0.100761807955E+01
 -0.123362868505E+01
 -0.119975881400E+01
 -0.132300271348E+01
 -0.132797438559E+01
 -0.132256552747E+01
  0.573500194236E+00
  0.441340759189E+00
  0.546791376633E+00
  0.731882527902E+00
  0.299602984826E+00
  0.339258082660E+00
  0.244615225538E+00
  0.189441829715E+00
  0.186911226276E+00
  0.137651158873E+00
  0.535977856998E+00
  0.330032483150E+00
  0.433559686181E+00
  0.518181053994E+00
  0.381400169049E+00
  0.695440730433E+00
  0.680107327711E+00
  0.625143654724E+00
  0.642431113369E+00
 -0.124705330801E+01
 -0.115924915987E+01
 -0.118217153070E+01
 -0.122885863088E+01
 -0.125204862204E+01
 -0.121591853269E+01
 -0.122270033322E+01
 -0.121272428184E+01
 -0.124041112901E+01
 -0.119574566812E+01
 -0.114986293423E+01
 -0.125886423654E+01
 -0.123153700780E+01
 -0.513830870157E+00
 -0.880153887366E+00
 -0.753282137085E+00
 -0.769014932036E+00
 -0.875739417093E+00
 -0.114472001287E+01
 -0.119187958039E+01
 -0.101244896240E+01
 -0.118289458077E+01
 -0.121975489831E+01
 -0.124247219146E+01
 -0.123922304432E+01
 -0.118926930532E+01
 -0.117804356421E+01
 -0.117692442969E+01
 -0.125272445636E+01
 -0.125312701682E+01
 -0.118711392545E+01
 -0.118739392543E+01
 -0.919776744074E+00
 -0.888586341367E+00
 -0.797895658950E+00
 -0.655794563224E+00
 -0.690531836658E+00
 -0.424381086015E+00
 -0.290359364588E+00
 -0.347902579566E+00
 -0.938609039104E-01
 -0.161064082198E+00
 -0.667466806836E+00
 -0.667106551691E+00
 -0.117039834182E+01
 -0.118548004600E+01
 -0.119025288673E+01
 -0.110475742453E+01
 -0.110385709505E+01
 -0.122880894193E+01
 -0.121418201800E+01
 -0.119665937201E+01
 -0.124254277609E+01
 -0.130087387687E+01
 -0.155949892216E+00
 -0.146483433893E+00
  0.949159122472E-01
  0.918382168894E-01
 -0.572004634969E+00
 -0.373606765812E+00
 -0.612021038369E+00
 -0.122461410935E+01
 -0.122941284858E+01
 -0.107307265818E+01
  0.741403012251E+00
  0.709889707966E+00
  0.345878465635E+00
  0.253507734171E+00
  0.204451065957E+00
 -0.172793391923E-01
 -0.128719519466E-01
  0.181569614017E+00
 -0.147243168265E-01
 -0.271942084163E+00
 -0.252881369669E+00
 -0.260942011801E+00
 -0.620763330159E+00
 -0.580593758270E+00
 -0.475576571905E+00
 -0.473238588911E+00
 -0.470954844884E+00
 -0.126659413748E+00
 -0.166955315361E+00
 -0.738719922890E+00
 -0.618287358411E+00
 -0.752303406720E+00
 -0.877020195648E+00
 -0.419035575634E+00
 -0.691744839295E+00
 -0.587320449707E+00
 -0.448407069700E+00
 -0.407662145788E+00
 -0.516173696255E+00
 -0.515592940945E+00
 -0.302036861235E+00
 -0.111753951457E+01
 -0.114837911978E+01
 -0.125774796387E+01
 -0.124213080008E+01
 -0.107186239553E+01
 -0.583291457436E+00
 -0.798779153216E+00
 -0.691013702272E+00
 -0.699078445726E+00
 -0.127301933822E+01
 -0.121199396293E+01
 -0.117110053910E+01
 -0.113043701358E+01
 -0.107193066504E+01
 -0.110427267538E+01
 -0.127251067522E+01
 -0.121804280653E+01
 -0.120705024584E+01
 -0.128477441661E+01
 -0.421809497368E+00
 -0.546760766232E+00
 -0.588011503542E+00
 -0.525232678852E+00
 -0.598353810434E+00
 -0.581068875433E+00
 -0.415563418383E+00
 -0.450074476771E+00
 -0.408652633925E+00
 -0.591578613951E+00
 -0.532089921470E+00
 -0.573132687805E+00
 -0.117790620097E+01
 -0.721037153411E+00
 -0.597730613850E+00
 -0.600270422309E+00
 -0.644762330322E+00
 -0.761779583149E+00
 -0.107736136247E+01
 -0.122982362221E+01
 -0.120741161400E+01
 -0.124260607827E+01
 -0.121090354495E+01
 -0.975418114833E+00
 -0.106358133581E+01
 -0.108762417812E+01
 -0.102218855664E+01
 -0.105642294534E+01
 -0.992835290783E+00
 -0.107372276737E+01
 -0.145756833479E-01
 -0.642842459765E-01
 -0.468091300468E-01
 -0.525467404338E-01
 -0.754014204591E-01
 -0.281383132080E+00
 -0.264724407553E+00
  0.424282794036E+00
  0.503118084842E+00
  0.517864463151E+00
  0.518289916328E+00
  0.452853430233E+00
  0.444409035135E+00
  0.142358808030E+00
  0.279284819004E+00
  0.349825552698E+00
  0.316038264756E+00
  0.324556535700E+00
  0.354890671306E+00
  0.373492751290E+00
  0.581150107622E+00
  0.654402252732E+00
  0.477137133298E+00
  0.433255726079E+00
 -0.149568135892E+01
 -0.128443601696E+01
 -0.125171816162E+01
 -0.119511954690E+01
 -0.112796802255E+01
 -0.110959850468E+01
 -0.110471813602E+01
 -0.150043844577E+01
 -0.118362362186E+01
 -0.115974418447E+01
 -0.117235414371E+01
 -0.115418634299E+01
 -0.122247350529E+01
 -0.120636361304E+01
 -0.120466248930E+01
 -0.118485744659E+01
 -0.115053468386E+01
 -0.119013737129E+01
 -0.120060068881E+01
 -0.127779463133E+01
 -0.954952294116E+00
 -0.945170146986E+00
 -0.637759751804E+00
 -0.778850807017E+00
 -0.103785636354E+01
 -0.105127734526E+01
 -0.105581549697E+01
  0.674919616717E+00
  0.774977132105E+00
  0.719699360408E+00
  0.728702668538E+00
  0.812878186984E+00
  0.687165353576E+00
  0.931871997237E+00
  0.938823039645E+00
  0.485525065194E+00
  0.250675425310E+00
  0.401059775433E+00
  0.403940443198E+00
  0.403795301018E+00
  0.849282045768E+00
  0.584649158278E-01
  0.108749185989E+00
 -0.188146283439E+00
 -0.298585337497E+00
 -0.321994705028E+00
 -0.353745985081E+00
  0.787781435480E+00
  0.836258023578E+00
  0.967522724927E+00
  0.548225352710E+00
  0.642919617194E+00
  0.880342261034E+00
  0.853400140913E+00
  0.867595133002E+00
  0.643170581560E+00
  0.745461499860E+00
 -0.671582923264E+00
 -0.523080123655E+00
 -0.529801867995E+00
 -0.611202823222E+00
 -0.639189402847E+00
 -0.672350597183E+00
  0.208196256409E+00
  0.221024102781E+00
  0.578737380329E-01
 -0.156906165937E-01
  0.470415145810E-01
 -0.407126166123E-01
 -0.672458141352E+00
 -0.752384890822E+00
 -0.752280209907E+00
 -0.468248421651E+00
  0.585925833384E+00
  0.575968639991E+00
  0.238045435750E+00
 -0.209235915380E+00
 -0.274007240001E+00
 -0.394537377722E+00
 -0.611407188702E+00
 -0.616981574440E+00
 -0.603306719468E+00
 -0.496816733555E+00
 -0.450428363535E+00
 -0.125738646089E+01
 -0.101694599223E+01
 -0.114186060661E+01
 -0.110270331104E+01
 -0.128632763658E+01
 -0.126026402385E+01
 -0.130029524508E+01
 -0.127740110334E+01
 -0.125142438658E+01
 -0.124965030553E+01
 -0.125685020857E+01
 -0.123443432294E+01
 -0.119274099938E+01
 -0.885120517215E+00
 -0.897050845342E+00
 -0.149278585721E+00
 -0.200789765405E+00
 -0.618781383834E+00
 -0.412708748211E+00
 -0.356979824643E+00
 -0.312709302588E+00
 -0.101640035624E+00
  0.524144604754E-01
  0.214288940700E+00
  0.511948897392E-01
  0.114082142058E+00
 -0.315334679198E+00
 -0.910232135902E-01
  0.166437423600E+00
  0.120367666649E+00
  0.151173705997E+00
 -0.184600317625E+00
  0.959095617471E-02
  0.166783291976E-01
 -0.225297347503E+00
 -0.235872640494E+00
 -0.239686407222E+00
 -0.138652186236E+00
 -0.170991941293E+00
 -0.683696329777E-01
  0.122616256171E+00
 -0.611913532109E-01
  0.308272100905E-01
 -0.112538692733E+01
 -0.112393186052E+01
 -0.111917649682E+01
 -0.111299147988E+01
 -0.665172876193E+00
 -0.684090459876E+00
 -0.115179027905E+01
 -0.116696821006E+01
 -0.607019374623E+00
 -0.104682767391E+01
 -0.104242984956E+01
 -0.104475256626E+01
 -0.101947275132E+00
  0.972159842939E-01