# vtk DataFile Version 3.0
MachLine results file. Generated by MachLine, USU AeroLab (c) 2022.
ASCII
DATASET POLYDATA
POINTS                 500 float
 -0.472217523356E+00 -0.876124490126E+00 -0.970385925084E-01
  0.854231790899E+00  0.210751581551E+00 -0.475259737713E+00
  0.169310209316E+00  0.933526324954E+00 -0.316010527734E+00
 -0.886191246805E+00 -0.388434550372E+00 -0.252554299436E+00
 -0.200452859430E+00 -0.975646757176E+00  0.890620927106E-01
  0.397833538439E+00  0.303254136972E+00  0.865889949186E+00
  0.168744973077E+00  0.486547164607E+00  0.857203004354E+00
  0.763743211492E+00  0.526417501021E+00  0.373605301781E+00
  0.426836497427E+00  0.901181380094E+00  0.753838486449E-01
 -0.476476139306E+00  0.699199358463E+00 -0.533001637706E+00
  0.720081742279E+00 -0.353006017600E+00 -0.597385165513E+00
 -0.288492244409E-01  0.966557427872E+00 -0.254822410466E+00
  0.495797466472E+00 -0.348901584677E+00  0.795268857966E+00
 -0.568282673076E+00  0.448045683132E+00 -0.690152062454E+00
 -0.372632797409E+00  0.197669626581E+00 -0.906681596274E+00
  0.815647909716E+00 -0.576354186778E+00 -0.503422164677E-01
  0.547324725432E+00  0.835411948896E+00 -0.502247008236E-01
  0.567028742156E+00  0.696183812192E+00  0.440234602469E+00
 -0.855831205025E+00 -0.306342558651E+00  0.416781939705E+00
 -0.391181124586E+00  0.701072568341E-01 -0.917639526343E+00
  0.100302540218E+00  0.910291371154E+00  0.401632941912E+00
 -0.267404674603E+00  0.825783698920E+00  0.496564218000E+00
  0.142266515960E+00 -0.773623201220E+00 -0.617468526300E+00
  0.764628680471E+00 -0.564889662041E+00 -0.310229996486E+00
  0.362324632711E+00 -0.821147006976E+00 -0.440951758660E+00
 -0.863177171947E+00  0.390275997471E+00 -0.320327669157E+00
  0.168382470537E+00 -0.708086649778E+00  0.685755524967E+00
  0.911525421840E+00 -0.172093221597E+00  0.373504121021E+00
 -0.202066935298E+00 -0.933861961637E+00 -0.295077600417E+00
 -0.687950560435E+00 -0.950603860845E-01 -0.719505072529E+00
 -0.194066317366E+00  0.224738591034E+00 -0.954898334989E+00
  0.480228239320E+00 -0.399087756138E+00  0.781095257354E+00
 -0.342746752982E+00  0.157402251275E+00  0.926147501543E+00
  0.211401811391E+00 -0.717788575236E-01  0.974760006234E+00
  0.582211820883E+00  0.466349705652E+00  0.665993504219E+00
  0.774607830042E+00  0.627384017320E+00 -0.798248360448E-01
 -0.471120825101E+00  0.576079762688E-01  0.880185485694E+00
  0.557044454786E+00  0.705659505569E+00 -0.437888270671E+00
 -0.414469504820E+00  0.748336554053E+00 -0.517887469863E+00
  0.425295931534E+00  0.686366283424E+00 -0.589936179259E+00
  0.331331630356E+00 -0.689467105077E+00  0.644091966836E+00
  0.736241103507E+00  0.173238837084E+00 -0.654169200462E+00
 -0.541431514449E+00 -0.391949341176E+00  0.743792732630E+00
  0.798319460011E+00  0.911208876183E-01  0.595300784148E+00
  0.649050794614E+00  0.705654474560E+00  0.284226720319E+00
 -0.425792321340E+00  0.901040387357E+00 -0.826263846458E-01
 -0.784309324719E+00 -0.234668932262E+00 -0.574272910200E+00
 -0.894642406926E+00 -0.244516812845E+00  0.373933806931E+00
 -0.559468701896E+00  0.100952264686E+00  0.822680625671E+00
  0.629023936024E+00 -0.606701987551E+00  0.486046897132E+00
  0.336974456640E+00  0.625426811409E+00 -0.703768086192E+00
 -0.257881365534E+00  0.956918828488E+00 -0.133429970382E+00
 -0.618949735163E+00  0.118516051706E+00 -0.776437486750E+00
  0.779573902476E+00  0.610608930790E+00 -0.139360195957E+00
  0.902659526483E+00  0.153060254603E+00 -0.402216779498E+00
  0.602348462099E+00 -0.787071552839E+00  0.133021430298E+00
 -0.768628440161E+00  0.635501889526E+00  0.731277606992E-01
  0.238942718134E+00  0.957843493713E+00 -0.159506172301E+00
 -0.578822002684E+00  0.615026211853E+00  0.535451069607E+00
  0.465200918343E+00 -0.740633670206E+00 -0.484819422187E+00
  0.822258356326E+00  0.162495586207E+00  0.545423120078E+00
 -0.502849257834E+00 -0.234546595561E+00  0.831943819261E+00
 -0.156389785900E+00  0.150020129621E-02  0.987694276718E+00
 -0.255727210016E+00  0.955279008951E+00 -0.148477638433E+00
 -0.384819112361E+00  0.796675830484E+00 -0.466070672628E+00
  0.157861961230E+00 -0.916219555646E+00 -0.368268009810E+00
  0.750245606094E+00  0.932881180755E-01  0.654544771244E+00
  0.634801496374E+00  0.740661440454E+00 -0.220108361552E+00
  0.199592883907E+00 -0.774023003451E+00  0.600875253960E+00
  0.374706012517E+00 -0.163459213314E+00  0.912620671345E+00
 -0.619803038234E+00 -0.485332036162E+00 -0.616682258924E+00
  0.868681855132E+00 -0.730583565643E-01  0.489953376456E+00
  0.994026465116E+00  0.910573453782E-01  0.601659912434E-01
 -0.999957254282E+00  0.139331586087E-02 -0.914047475973E-02
 -0.207372300984E+00 -0.172731459982E-01  0.978109588549E+00
 -0.783987198480E+00  0.396031284464E-02  0.620764358305E+00
  0.144137100316E+00 -0.707423640624E+00  0.691936622097E+00
  0.941336435967E+00  0.270181573230E-01  0.336386286130E+00
  0.119740244819E+00 -0.992579505610E+00  0.211707065211E-01
  0.223267571002E+00 -0.762513538814E+00 -0.607227053798E+00
  0.565641580711E+00 -0.283903282340E+00 -0.774240614052E+00
 -0.725031657014E+00  0.669345152421E+00 -0.162191748430E+00
 -0.626542617766E+00 -0.501951629911E+00  0.596228906841E+00
  0.787066586235E+00 -0.285696798386E-01 -0.616206103692E+00
 -0.674669822361E+00 -0.645840875836E+00 -0.357365630545E+00
 -0.739239960331E+00  0.534906058647E+00  0.409145193632E+00
 -0.345487345668E-01 -0.349826118876E+00  0.936177371811E+00
 -0.146642113351E+00 -0.869230474076E+00  0.472159373019E+00
  0.703586004908E+00  0.652179656978E+00 -0.282185096563E+00
 -0.469103611220E+00  0.800521599795E+00  0.372970468270E+00
  0.371361017826E+00 -0.886315149441E+00 -0.276652219059E+00
  0.753653658720E+00 -0.356874404165E+00 -0.551948206221E+00
  0.412571615065E+00 -0.784793449971E+00  0.462475840802E+00
 -0.257141700268E+00 -0.737372719490E+00 -0.624627583873E+00
  0.585563515154E+00 -0.586054463586E+00  0.560049583012E+00
 -0.721159881997E+00  0.289110409426E+00 -0.629558254461E+00
 -0.944252055908E+00  0.319462221403E+00  0.795735132477E-01
 -0.177992381203E-01 -0.631757502560E+00  0.774961705558E+00
  0.137239772028E+00  0.476263967638E+00  0.868526267941E+00
 -0.340977306001E+00 -0.621301365798E+00  0.705492090423E+00
  0.916509893491E+00 -0.285581139570E+00  0.280094676591E+00
 -0.308020921944E+00  0.846513778533E+00  0.434209090645E+00
  0.803706552571E+00 -0.211129387594E+00 -0.556309409455E+00
 -0.985351699214E+00  0.731283327411E-01  0.154059325608E+00
  0.659105675732E-01 -0.415291471922E+00 -0.907297520349E+00
 -0.792583565353E+00 -0.181766815237E+00 -0.582041335999E+00
 -0.890419131326E+00  0.420800638838E+00 -0.173437576444E+00
 -0.548931118287E+00 -0.193176071873E+00  0.813238976336E+00
 -0.233726509157E+00  0.877376664324E+00 -0.419025187568E+00
 -0.634098826611E+00  0.745488722998E+00  0.205341768701E+00
 -0.953938770348E+00  0.161075952492E-01  0.299568636214E+00
  0.776133282993E+00  0.160322352612E+00 -0.609847415575E+00
  0.745397174068E+00 -0.311407851896E+00  0.589413439504E+00
  0.345916848000E-01  0.749925716339E+00  0.660617011071E+00
 -0.743554295398E-01 -0.985873228669E+00 -0.150084133377E+00
  0.895629761373E+00 -0.389822904711E+00  0.214208854871E+00
  0.164172996132E+00 -0.933770818185E+00  0.317992588667E+00
 -0.303513528784E+00 -0.950035414500E+00  0.728851770929E-01
  0.746522309032E+00 -0.254813243955E+00  0.614633755030E+00
  0.438359712284E+00 -0.851433879863E+00 -0.287925530073E+00
 -0.100418730080E+00  0.730148392055E+00  0.675869369204E+00
  0.439582482083E+00  0.416692877946E+00  0.795697358871E+00
 -0.824367956595E+00  0.304093932111E+00  0.477435181562E+00
  0.913780345763E+00  0.258354705525E-03 -0.406208583058E+00
 -0.398204666398E+00  0.913051919982E+00  0.881432644972E-01
 -0.335904258933E+00  0.858582643538E+00  0.387303721963E+00
 -0.773631591041E+00  0.159118924562E+00 -0.613331337199E+00
 -0.828892557543E+00 -0.547398783460E+00  0.115289634904E+00
 -0.856034946662E+00 -0.222395901162E+00  0.466630724707E+00
  0.686790755636E+00 -0.696242438162E+00  0.208722124546E+00
 -0.880110775515E+00 -0.426691021869E+00  0.208182119019E+00
 -0.176265567592E+00 -0.272867735219E+00 -0.945766170233E+00
 -0.942368725800E+00 -0.289286013425E+00  0.168091603213E+00
 -0.767596646161E+00 -0.206228700454E+00 -0.606848508206E+00
 -0.830573999813E+00  0.535468476744E+00  0.153037058412E+00
  0.429193163026E-01 -0.610027010960E+00 -0.791217402606E+00
  0.807827094366E+00  0.919739707123E-01  0.582199428306E+00
 -0.553527222249E+00  0.798505599358E+00  0.236635631347E+00
 -0.508727736194E+00 -0.804849485039E+00 -0.305636052945E+00
 -0.560350076440E+00 -0.674805015865E+00  0.480256163309E+00
 -0.784445859898E+00  0.571227581118E+00  0.241544495817E+00
 -0.203558233869E+00  0.925428244382E+00 -0.319603832776E+00
 -0.686652592202E+00  0.228665005623E+00  0.690087337100E+00
  0.753342199134E+00  0.537947220336E+00  0.378270166860E+00
 -0.264468904965E+00  0.952479805893E+00 -0.151123848785E+00
 -0.350507685529E+00  0.881009629840E+00  0.317752096002E+00
  0.166267962078E+00  0.604541440736E+00  0.779027991293E+00
  0.377756406670E+00 -0.923846152721E+00  0.617121002904E-01
 -0.839326944075E-01 -0.761541825744E+00 -0.642658035390E+00
  0.909410629391E+00  0.303593772333E+00  0.284258911121E+00
 -0.956874878681E+00 -0.177805806824E+00 -0.229729322486E+00
 -0.794097831726E+00 -0.357187867312E-01 -0.606739484394E+00
  0.171435570359E+00  0.427880984104E+00  0.887427579388E+00
  0.821141818453E+00  0.435087144616E+00  0.369357943705E+00
  0.598257882766E+00  0.698905806174E+00 -0.391941551515E+00
 -0.945277763789E+00 -0.300796705826E+00  0.126377573370E+00
 -0.151602700129E+00  0.506562725829E+00 -0.848770184511E+00
 -0.986821824611E+00 -0.106164185435E+00 -0.122114095018E+00
 -0.907670631876E+00  0.348570210953E+00  0.233736672488E+00
  0.611912386245E+00  0.724889822874E+00  0.316382642150E+00
 -0.158608880014E+00 -0.773579653830E+00  0.613528925448E+00
[...]
CELL_DATA                 996
SCALARS C_p_inc float 1
LOOKUP_TABLE default
 -0.953322241257E+00
 -0.813921505094E+00
 -0.553945371482E+00
 -0.117365043888E+01
 -0.128046699536E+01
 -0.136589073348E+01
 -0.113007100506E+01
 -0.434968232436E-01
 -0.204589334079E+00
 -0.123313531106E+00
 -0.316965485621E+00
 -0.757936123261E+00
 -0.702950482135E+00
 -0.937474474137E+00
 -0.127082301321E+01
 -0.795366340505E+00
 -0.123811858307E+01
 -0.120049347244E+01
 -0.117004014675E+01
 -0.913449882821E+00
 -0.491154840643E+00
  0.813278499766E-01
  0.177706868039E+00
  0.248454181899E+00
  0.107336753652E+00
  0.157982242747E+00
  0.391463614461E-02
 -0.429740309822E+00
 -0.480532644901E+00
 -0.339646023825E+00
 -0.112063655910E+01
  0.390652356357E+00
  0.488294244777E+00
  0.614643346030E+00
  0.492683930650E+00
  0.399842568254E+00
 -0.630252736315E+00
 -0.105639693228E+01
  0.170149990065E-02
  0.583247450631E-01
 -0.135242622817E+01
 -0.498424659508E+00
 -0.373585676062E+00
 -0.785847597671E+00
 -0.107142107577E+01
 -0.994734961068E+00
 -0.104355014431E+01
  0.159157952231E+00
  0.159075768840E+00
 -0.304473473670E+00
 -0.699008881522E-01
  0.423973364193E+00
  0.327686531236E+00
 -0.843463416985E+00
 -0.806564218843E+00
 -0.674801922870E+00
 -0.107005925430E+01
 -0.111112640970E+01
 -0.843101932959E+00
 -0.111656919648E+01
 -0.109584391726E+01
  0.318538387320E+00
  0.138035397634E+00
 -0.112342512142E+00
 -0.298820977746E-01
  0.598943960982E+00
  0.567907262119E+00
  0.658532375110E+00
  0.457613165649E+00
  0.357270260981E+00
  0.362704173909E+00
  0.419840722162E+00
  0.320137375792E+00
 -0.118454783373E+01
 -0.959977326085E+00
 -0.105788756153E+01
 -0.106651387040E+01
 -0.803909908083E+00
 -0.819844446893E+00
 -0.349108462143E+00
 -0.404992928414E+00
 -0.605305561540E+00
 -0.661987282347E+00
 -0.876072662499E-01
 -0.290836140210E+00
 -0.326831676620E+00
 -0.612772113523E+00
 -0.556799850120E+00
 -0.511866759511E+00
 -0.418501053667E+00
 -0.418323979929E+00
 -0.403998846084E+00
 -0.129974768508E+01
 -0.997752581740E+00
 -0.979421122403E+00
 -0.895799309750E+00
 -0.964956027802E+00
 -0.800609266583E+00
 -0.102008664847E+01
 -0.130615164264E+01
 -0.130606455106E+01
 -0.123768549664E+01
 -0.597928162171E+00
 -0.118447527875E+01
 -0.742129163310E+00
 -0.203103026274E+00
 -0.104130966232E+01
 -0.103409261003E+01
 -0.119238900201E+01
  0.276899223109E+00
  0.241094419475E+00
  0.237584757777E+00
 -0.140197023552E+00
 -0.112777423982E+00
 -0.111178001619E-01
 -0.618815143883E-01
 -0.432752873294E+00
 -0.130582412377E+00
 -0.320103918477E+00
 -0.257406078514E+00
 -0.880984467429E+00
 -0.441349739453E+00
 -0.438968035544E+00
  0.332699646896E+00
  0.695686096249E+00
  0.811631970841E+00
  0.779171594644E+00
 -0.513054730851E+00
 -0.112379010544E+01
 -0.121045482796E+01
 -0.120853268215E+01
 -0.112603890282E+01
 -0.139674547349E+01
  0.540578978536E+00
 -0.738210076021E+00
 -0.339404502425E+00
 -0.662237934089E+00
 -0.589632631728E+00
 -0.131022150589E+01
 -0.125377910637E+01
 -0.129141812512E+01
 -0.127037793038E+01
 -0.129937510341E+01
 -0.920842743770E-01
 -0.801522066920E+00
 -0.514539051304E+00
 -0.938616545178E+00
 -0.136714630197E+01
 -0.137751880122E+01
 -0.132369098725E+01
 -0.108419904602E+01
 -0.335587752441E+00
 -0.637579595931E+00
 -0.636473094970E+00
 -0.518422454138E+00
 -0.303119727771E+00
 -0.690032818594E+00
 -0.457876994684E+00
  0.588197224289E+00
  0.823903960944E+00
  0.532105078129E+00
  0.552242052090E+00
  0.267508636431E+00
 -0.158042188741E+00
 -0.906003191484E+00
 -0.908046014383E+00
 -0.656380225001E+00
 -0.753860798049E+00
 -0.109747721736E+01
 -0.532225154991E-01
  0.156332962780E+00
 -0.670689035341E+00
 -0.126612240445E+01
 -0.949711780084E+00
 -0.933147402205E+00
 -0.114168731017E+01
 -0.991311272527E+00
 -0.146505202912E+01
 -0.114416548864E+01
 -0.113207195811E+01
 -0.106018368575E+01
 -0.118634192891E+01
 -0.171064440472E+01
 -0.132523823374E+01
 -0.178184226687E+01
  0.824092939645E+00
  0.811332485623E+00
  0.993573446897E+00
  0.957131187647E+00
  0.926075318188E+00
  0.579197309886E+00
  0.368606580712E+00
  0.837573508769E+00
  0.758108422707E+00
  0.746969864383E+00
  0.944219076358E+00
  0.943918404499E+00
 -0.120290987876E+01
 -0.129242816762E+01
 -0.125472640817E+01
 -0.959906789625E+00
 -0.933770643320E+00
 -0.119133446091E+01
 -0.105826140100E+01
 -0.125438254984E+01
 -0.114304094472E+01
 -0.125486398471E+01
 -0.108123077748E+01
 -0.694129148477E+00
 -0.679469792457E+00
 -0.502665707984E+00
 -0.858887273568E+00
 -0.808191399847E+00
 -0.108022201508E+01
 -0.940289713078E+00
 -0.103147292660E+01
 -0.945514699688E+00
 -0.105575881694E+01
 -0.153069724991E+01
 -0.152466323689E+01
 -0.148760201183E+01
  0.572286655836E+00
 -0.111842298684E+01
 -0.106545114969E+01
 -0.958031698053E+00
 -0.131114158481E+01
 -0.106833241490E+01
 -0.102214136795E+01
 -0.112406285513E+01
 -0.113967325028E+01
 -0.117551369743E+01
 -0.114981016329E+01
 -0.799677391400E+00
 -0.100751685588E+01
 -0.102199404326E+01
 -0.104562708088E+01
 -0.141335984601E+01
 -0.100161835289E+01
 -0.106985968466E+01
 -0.105109536195E+01
 -0.153669563504E+01
 -0.115273518667E+01
 -0.137933988907E+01
 -0.872943986751E+00
 -0.747755736725E+00
 -0.741830205075E+00
 -0.921381972342E+00
 -0.828396513235E+00
 -0.180208864322E+01
 -0.125297590216E+01
 -0.592103720761E+00
 -0.549606157163E+00
 -0.921509090482E+00
 -0.813723859292E+00
 -0.753764279111E+00
 -0.718222446373E+00
 -0.813522652258E+00
 -0.647958062591E+00
 -0.130452023756E+01
 -0.141130235949E+01
 -0.145432241570E+01
 -0.132429416644E+01
 -0.842168547768E+00
 -0.975490012534E+00
 -0.933610293359E+00
 -0.697788004848E+00
 -0.686117684914E+00
 -0.336755574060E+00
 -0.656418104237E+00
 -0.346823976691E-01
  0.532359760601E-01
 -0.183497872703E+00
 -0.344189079789E-01
 -0.350370679609E-01
  0.200605461122E+00
  0.565507827707E+00
  0.445031498702E+00
  0.439564712221E+00
  0.991740847270E+00
  0.934951219233E+00
  0.139979445747E+00
  0.560150472033E+00
 -0.429370861543E+00
 -0.368159258231E+00
 -0.682927342248E+00
 -0.983638059508E+00
  0.255013149373E+00
 -0.232133279240E-01
  0.187401655776E+00
  0.518235520836E+00
  0.736715305014E+00
  0.879322311668E+00
 -0.103997094685E+01
 -0.974115406530E+00
 -0.982146146476E+00
 -0.108816467974E+01
 -0.100306224216E+01
 -0.992579679439E+00
 -0.875842068740E+00
 -0.109112407680E+01
 -0.116295377799E+01
 -0.119075515138E+01
 -0.126357802533E+01
 -0.117776631969E+01
 -0.154876956693E+01
 -0.158793200612E+01
 -0.118870223275E+01
  0.634613095856E+00
  0.821331632075E+00
  0.810357026109E+00
  0.431192260696E+00
  0.446259153453E+00
  0.520691361680E+00
  0.127936470616E+00
  0.138965607768E+00
  0.260524716676E+00
  0.189406815617E+00
 -0.171324539988E+00
 -0.340382659839E+00
  0.179580964331E+00
  0.188298981749E+00
 -0.339592929590E+00
 -0.159300976769E+00
 -0.185556037672E-01
  0.177021715559E+00
  0.200553501306E+00
 -0.472469044749E+00
 -0.331838844033E+00
 -0.243776153758E+00
 -0.334196215600E+00
 -0.103711749581E+01
 -0.839546414165E+00
 -0.490946565668E+00
 -0.594318084455E+00
 -0.101596608469E+01
 -0.893483310182E+00
 -0.595293791570E+00
 -0.545523543504E+00
 -0.592229223146E+00
 -0.279982584133E+00
 -0.463801659656E+00
 -0.115521286222E+01
 -0.181703906497E+01
 -0.754734833680E+00
 -0.698989263287E+00
 -0.834487333799E+00
 -0.807802938218E+00
 -0.619692782022E+00
 -0.671198558566E+00
 -0.738106707803E+00
 -0.483077296252E+00
 -0.600261011809E+00
 -0.313201437737E+00
  0.872943208292E-01
  0.707842494511E+00
  0.601527180976E+00
 -0.125431402289E+01
 -0.123086520604E+01
 -0.134708652537E+01
 -0.125233696755E+01
 -0.108114333739E+01
 -0.763514350693E+00
 -0.104862478004E+01
 -0.368753414312E+00
 -0.258744219815E+00
 -0.265636866283E+00
 -0.349106961320E+00
 -0.394938211753E+00
  0.898630816946E+00
  0.931604062868E+00
  0.908244251255E+00
  0.410245562971E+00
  0.528458205497E+00
  0.457809714810E+00
  0.436189415690E+00
  0.257942343129E+00
  0.924336606212E+00
  0.887756094759E+00
  0.793251761328E+00
  0.689452477679E+00
  0.940920991047E+00
  0.614192048597E+00
  0.776660790797E+00
  0.850952123956E+00
  0.515542423484E+00
  0.525276950410E+00
 -0.132843066833E+01
 -0.126572085768E+01
 -0.110029329828E+01
 -0.100785376063E+01
 -0.128383530658E+01
 -0.127059085528E+01
 -0.954173757821E+00
 -0.126794796501E+01
 -0.128915427306E+01
 -0.130528002580E+01
 -0.105906612016E+01
 -0.114375322399E+01
 -0.113591114270E+01
 -0.124617526959E+01
 -0.127204262807E+01
  0.211072686490E-01
 -0.388823940940E+00
  0.922918309341E-02
  0.592357021590E-01
 -0.223256177867E+00
 -0.200396510608E+00
 -0.936584840661E+00
 -0.144983413028E+01
 -0.140037118426E+01
  0.516855506105E+00
  0.684910366715E+00
  0.471689217208E+00
  0.583373105858E+00
 -0.119167823308E+01
 -0.124366817957E+01
 -0.111199413519E+01
 -0.111127008129E+01
 -0.129858349386E+01
 -0.115310232750E+01
 -0.818489614147E+00
 -0.612469731943E+00
 -0.599123767290E+00
 -0.836954171982E+00
 -0.767063226391E+00
  0.419273026273E+00
  0.371092086338E+00
 -0.113304926197E+00
 -0.184629109045E+00
 -0.105358917079E+01
 -0.108460235542E+01
 -0.109816682712E+01
 -0.118674033177E+01
 -0.113119078752E+01
 -0.948411216894E+00
 -0.107990649610E+01
 -0.102085432566E+01
 -0.109896903350E+01
 -0.659558773732E+00
 -0.648099045098E+00
 -0.602417324153E+00
 -0.742274100854E+00
 -0.128253172369E+01
 -0.159328124593E+01
 -0.116115792051E+01
 -0.119994200322E+01
 -0.115626395984E+01
 -0.133611432696E+01
 -0.136971492245E+01
  0.332140880003E+00
  0.110155358577E+00
 -0.530949650837E+00
 -0.646113633898E+00
 -0.644290060539E+00
 -0.171326135851E+01
 -0.156229924470E+01
 -0.148385805376E+01
 -0.150854761232E+01
 -0.182781196813E+01
 -0.130912577271E+01
 -0.137939078593E+01
 -0.177059797718E+01
 -0.127570683549E+01
 -0.184481737787E+01
 -0.364066536679E+00
 -0.477433910999E+00
 -0.636531662449E+00
 -0.630245677520E+00
 -0.126098542183E+01
 -0.117252859768E+01
 -0.132774391723E+01
 -0.920913254295E+00
 -0.932870306185E+00
 -0.103519490532E+01
 -0.897728829483E+00
 -0.107027696016E+01
 -0.106822152847E+01
 -0.105346053642E+01
 -0.126059073360E+01
 -0.127624305632E+01
 -0.164903451691E+01
 -0.127266896843E+01
 -0.127173416843E+01
 -0.121428781887E+01
 -0.118710188113E+01
 -0.124249832160E+01
 -0.118125977276E+01
 -0.126152046364E+01
 -0.651957405869E+00
 -0.474364116671E+00
 -0.249966611993E+00
 -0.434258637185E+00
 -0.632362026097E-01
 -0.291410776389E+00
 -0.462819802568E+00
 -0.548277294265E+00
  0.327147062479E+00
  0.584322899232E+00
  0.105054445172E+00
  0.373339154509E+00
  0.608708412191E-01
  0.111881843437E+00
  0.235577096226E+00
  0.238962279937E+00
  0.117074289284E+00
  0.697097221351E+00
  0.931028946885E+00
  0.735227610538E+00
  0.649803648434E+00
  0.642322188724E+00
  0.369763935128E+00
  0.165252158749E+00
  0.317645999491E+00
  0.471071263649E-02
  0.499415970213E+00
  0.232111852221E+00
 -0.576115639569E+00
 -0.567844703037E+00
 -0.781035750665E+00
 -0.778585609483E+00
 -0.637581264046E+00
 -0.673851711062E+00
  0.402281932734E+00
  0.435758051535E+00
  0.948341043129E+00
  0.908611597253E+00
  0.872356815691E+00
 -0.102071579387E+01
 -0.967754954631E+00
 -0.109190028369E+01
 -0.113161117616E+01
 -0.112910709482E+01
 -0.112110422085E+01
 -0.125965740673E+01
 -0.109141393295E+01
 -0.115719355515E+01
 -0.133544638793E+01
 -0.133862377891E+01
 -0.122985303625E+01
 -0.122743797745E+01
 -0.121277346772E+01
 -0.119035282912E+01
 -0.118961475931E+01
  0.178033694442E-02
 -0.384974528372E+00
  0.321629953480E+00
  0.315161019764E+00
  0.340638652542E+00
 -0.502484912474E+00
 -0.431020353188E+00
 -0.631740422668E+00
 -0.380583438502E+00
 -0.294191102990E+00
 -0.602181291207E+00
 -0.634177177532E+00
 -0.152600674226E+00
  0.207090618038E+00
 -0.546972629380E+00
 -0.463234869141E+00
 -0.457201076167E+00
 -0.392869945935E+00
 -0.208885671531E+00
 -0.135658088553E+00
 -0.132703315193E+00
 -0.303580120813E+00
 -0.121717131405E+01
 -0.135673778298E+01
 -0.128093504217E+01
 -0.876603773986E+00
 -0.679153892616E+00
 -0.907783138476E+00
 -0.843902998006E+00
 -0.105958626014E+01
 -0.115352939164E+01
 -0.115169132757E+01
 -0.137522269645E+01
 -0.111184828147E+01
 -0.114542718124E+01
 -0.743232286982E+00
  0.224612156872E+00
  0.527947642790E+00
 -0.875820470622E-01
 -0.182946073183E+00
 -0.181576412187E+00
 -0.188221647495E+00
 -0.279155130930E+00
 -0.474730709896E+00
 -0.537617968156E+00
 -0.552170015958E+00
 -0.142575388985E+01
 -0.115741540905E+01
 -0.123415937706E+01
 -0.142738779277E+01
 -0.100344426737E+01
 -0.987605292238E+00
 -0.987234412030E+00
 -0.122858883612E+01
 -0.108084104108E+01
 -0.119358633083E+01
 -0.104664000229E+01
 -0.124490196978E+01
 -0.110589350208E+01
  0.640739932154E+00
  0.571966542792E+00
  0.860944972307E+00
  0.847485758724E+00
  0.665085600061E+00
  0.674087740975E+00
  0.331269197994E+00
 -0.542143617184E-02
  0.250788118451E+00
 -0.125408260776E+00
  0.181534090865E-01
  0.498228002349E+00
  0.343494434277E+00
  0.235021090645E+00
  0.332331610702E+00
  0.332598723747E+00
 -0.129461237867E+01
 -0.130870440625E+01
 -0.129790298848E+01
 -0.124191579280E+01
 -0.124022511466E+01
 -0.144632984264E+01
 -0.143855667338E+01
 -0.100512658940E+01
 -0.100449130111E+01
 -0.109623144147E+01
 -0.884587138521E+00
 -0.846957804673E+00
 -0.811530140954E+00
 -0.587395977835E+00
 -0.581458528025E+00
  0.495871000335E-03
  0.141293991839E-01
 -0.602934442742E+00
 -0.750598634585E+00
 -0.776292441362E+00
 -0.575811298920E+00
 -0.403676051111E+00
 -0.166900357263E+00
 -0.546684327663E+00
 -0.117581282631E+01
 -0.114945641859E+01
 -0.814590487726E+00
 -0.684465424176E+00
 -0.792048977838E+00
 -0.123614002924E+01
 -0.789041000066E+00
 -0.984048757690E+00
 -0.118283723465E+01
 -0.927892705876E+00
 -0.901094504250E+00
 -0.112580885907E+01
 -0.113142427791E+01
 -0.804293327353E+00
 -0.794606354128E+00
 -0.109762424966E+01
 -0.108514424420E+01
 -0.131650868124E+01
 -0.122903079492E+01
 -0.116779562611E+01
 -0.504309223978E+00
 -0.435325653961E+00
 -0.201882057934E-01
  0.340165081161E-01
  0.303451736129E-01
 -0.194586958713E+00
 -0.380319893333E+00
 -0.691184482104E+00
 -0.676502353525E+00
 -0.686012791031E+00
 -0.212885902205E+00
 -0.541700946279E+00
 -0.604937441201E+00
 -0.118596716136E+00
 -0.305989410905E+00
 -0.138421057422E+01
 -0.129235691865E+01
 -0.113350656533E+01
 -0.113395521001E+01
 -0.121337172793E+01
 -0.129312109804E+01
  0.465817452342E+00
  0.419039844815E+00
  0.449820963182E+00
  0.387218390141E+00
 -0.676924849316E-01
 -0.130886198526E+00
 -0.300063970031E+00
 -0.550590409648E+00
 -0.129095003220E+01
 -0.111744765197E+01
 -0.114959507778E+01
 -0.107389941221E+01
 -0.116865686580E+01
 -0.124317025227E+01
 -0.120494084044E+01
 -0.128254253365E+01
  0.932123675065E+00
  0.710055418952E+00
  0.636583662653E+00
  0.633973717960E+00
  0.983399500773E+00
  0.752478725798E+00
  0.837755116221E+00
  0.813983530631E+00
  0.827018583437E+00
  0.892883196093E+00
  0.892619252459E+00
  0.760902489558E+00
  0.745813404845E+00
  0.646002839852E+00
  0.653231682080E+00
  0.326712076287E+00
  0.451564303832E+00
  0.560160552268E+00
  0.649017776326E+00
  0.747202195182E+00
  0.676933427309E+00
  0.849764193767E+00
  0.875853717117E+00
  0.642093798464E+00
  0.683152625129E+00
  0.815350906048E+00
  0.665667663710E+00
  0.775538894745E+00
  0.709063810124E-01
  0.948052854162E-01
  0.365937368651E-01
  0.130728356273E-01
  0.424841114966E+00
  0.382893980697E+00
  0.387828970181E+00
  0.328733157255E+00
  0.509997242648E+00
  0.526293515883E+00
  0.614625153152E+00
  0.618201516486E+00
  0.441299251071E+00
  0.317402218408E+00
  0.418731906904E+00
  0.590262387640E+00
  0.552256401050E+00
  0.571220940692E+00
 -0.237738429868E-01
 -0.246549001189E+00
  0.299418701603E-01
 -0.572180250828E+00
 -0.591148064896E+00
 -0.655271324461E+00
 -0.653037158227E+00
 -0.302817572765E+00
 -0.190581458466E+00
 -0.157873437545E-01
  0.221900029965E+00
  0.171404618302E+00
  0.415884091347E+00
  0.206405966448E+00
  0.987078723276E-01
  0.157478157976E+00
  0.748907741124E-02
  0.822224122566E-02
 -0.306029788999E+00
 -0.369371584372E+00
 -0.408101239852E+00
 -0.227042462598E+00
  0.432337732544E+00
  0.210117624846E+00
  0.148725260758E+00
  0.989323340426E-01
 -0.499168592250E+00
 -0.487463129451E+00
 -0.444814852217E+00
 -0.386101321905E+00
 -0.206660711781E+00
 -0.131305209506E+01
 -0.141153350516E+01
 -0.834985286543E+00
 -0.794611207429E+00
 -0.908366744546E+00
 -0.531680765341E+00
 -0.456806545721E+00
 -0.484576650501E+00
 -0.120635649781E+01
 -0.118390822258E+01
 -0.115590971844E+01
 -0.113109244170E+01
 -0.104359998586E+01
 -0.119412139618E+01
 -0.109359148814E+01
 -0.110110337273E+01
 -0.109345350872E+01
 -0.642200730715E+00
 -0.639244296140E+00
 -0.101831135118E+01
 -0.119673760032E+01
 -0.114478690922E+01
 -0.117023043809E+01
 -0.120976993042E+01
 -0.650963665154E+00
 -0.627176285867E+00
 -0.443217154718E+00
 -0.545234674735E+00
 -0.912982916055E+00
 -0.668325068797E+00
 -0.754726696718E+00
 -0.238278861606E+00
 -0.182305347080E+00
 -0.283901261664E+00
 -0.137332776522E+00
  0.222909484977E-01
  0.865397841694E-01
 -0.233441202317E+00
 -0.464881741895E+00
 -0.446929827687E+00
 -0.459461610923E+00
 -0.241831222144E+00
 -0.126219966824E+01
 -0.101380169458E+01
 -0.104578423157E+01
 -0.105215547923E+01
 -0.113992186433E+01
 -0.120268110634E+01
 -0.102886650007E+01
 -0.304873659590E-02
 -0.236299259282E+00
 -0.686244464165E+00
 -0.501807695886E+00
 -0.500068323364E+00
 -0.429694165839E+00
 -0.842503688655E+00
 -0.823373407492E+00
 -0.892690730228E+00
 -0.864804117507E+00
 -0.110181908674E+01
 -0.109005729338E+01
 -0.131951334156E+01
 -0.114611569299E+01
 -0.116976438419E+01
 -0.117811880424E+01
 -0.111512354145E+01
 -0.962453076105E+00
 -0.108947190650E+01
 -0.111342128691E+01
 -0.125179614026E+01
 -0.118299931052E+01
 -0.108750801113E+01
 -0.941039379222E+00
 -0.724618072058E+00
  0.439617468995E+00
  0.653568129840E+00
  0.739742478824E+00
  0.437976815071E+00
  0.243003108476E-01
 -0.190016677703E+00
 -0.170079998918E+00
  0.402278531899E+00
  0.375587027877E+00
 -0.836117601267E+00
 -0.820606664147E+00
 -0.607548421228E+00
 -0.459622204280E+00
 -0.373377689335E+00
 -0.351857227743E+00
 -0.203063444725E+00
 -0.156234792613E+00
 -0.742017724707E-01
 -0.519063659324E-01
  0.312133845732E-01
  0.345423702961E+00
  0.344863374077E+00
 -0.312039432447E+00
  0.184228677498E+00
  0.222289333065E+00
 -0.102915721508E+00
 -0.135267330963E+00
  0.322017268482E+00
  0.371649119525E+00
 -0.554455477716E-01
 -0.363286432736E+00
 -0.402093185180E+00
 -0.210840794105E+00
 -0.212786049581E+00
 -0.112976388011E+01
 -0.124946427543E+01
 -0.106909872645E+01
 -0.108078485542E+01
 -0.138075667732E+01
 -0.134966436958E+01
 -0.170689986461E+00
  0.115667138582E+00
  0.121914696144E+00
 -0.224947618159E-01
 -0.331630514926E-01
 -0.153762744936E+00
 -0.624165242591E-01
  0.590933116386E-01
 -0.210426371741E+00
  0.119666572529E-01
  0.105009696371E+00
  0.613935435209E-01
 -0.864829119483E-01
 -0.526179971025E+00
 -0.192515026210E+00
 -0.244231279617E+00
 -0.245919193889E+00
 -0.109231961234E+00
 -0.141300103692E+00
  0.511795398212E+00
  0.424412801352E+00
  0.266608245834E+00
  0.264586760634E+00
 -0.804068107124E+00
 -0.659135961916E+00
 -0.822795501721E+00
 -0.734669331779E+00
 -0.747973242709E+00
 -0.744414720214E+00
 -0.986288842738E+00
 -0.907999278338E+00
 -0.994051608632E+00
 -0.907755840395E+00
 -0.115910539194E+01
 -0.115822765362E+01
 -0.138573956637E+01
 -0.132470929451E+01
 -0.123043739159E+01
 -0.819604653790E+00
 -0.760379400031E+00
 -0.100690451426E+01
 -0.135032473252E+01
 -0.113780712697E+01
 -0.135727293360E+01
 -0.114434998046E+01
 -0.121997979045E+01
 -0.120192026988E+01
 -0.111928748878E+01
 -0.101469369323E+01
 -0.107419713575E+01
 -0.102300478370E+01
 -0.875239247873E+00
 -0.736036884947E+00
 -0.302047174858E+00
 -0.377439039212E+00
 -0.372473606036E+00
 -0.364455872690E+00
 -0.116798368474E+01