# vtk DataFile Version 3.0
MachLine results file. Generated by MachLine, USU AeroLab (c) 2022.
ASCII
DATASET POLYDATA
POINTS                1000 float
  0.443839452066E+00 -0.894144273997E+00  0.592668378408E-01
  0.745576846353E+00 -0.590876224038E+00  0.308188990798E+00
 -0.542503017053E-03 -0.626442706276E+00 -0.779467280548E+00
  0.592222066929E+00  0.689434681423E+00 -0.417076543927E+00
 -0.667326942188E-02 -0.908611174996E+00  0.417589751008E+00
 -0.549171006582E+00  0.660425858446E+00 -0.512102422398E+00
 -0.922353606277E+00 -0.219810425851E+00 -0.317721893605E+00
 -0.333143890402E+00 -0.131226458872E+00  0.933699504541E+00
 -0.885462897249E+00  0.421520273347E+00 -0.195642829545E+00
  0.699208352100E+00  0.704357725231E+00  0.122424978095E+00
  0.603633672355E+00  0.341760223018E+00 -0.720296008292E+00
  0.216481786653E+00 -0.967353022717E+00  0.131771641440E+00
  0.491506334582E+00  0.752742210306E+00  0.437950554160E+00
 -0.673249318683E+00 -0.882958576757E-02 -0.739362829271E+00
 -0.907284766488E+00 -0.214682126779E+00  0.361588076325E+00
  0.461217434133E+00 -0.776558690698E+00 -0.429226138944E+00
 -0.636421395643E+00  0.747537499368E+00 -0.190145981307E+00
  0.512662383260E+00  0.533846874568E+00 -0.672446871734E+00
  0.186569255993E+00 -0.238388566377E+00 -0.953080691305E+00
  0.130594792442E+00 -0.436718473791E+00 -0.890068522551E+00
 -0.382880019521E+00  0.243705894481E+00 -0.891072571482E+00
 -0.609872707603E+00 -0.461530408940E+00 -0.644239832784E+00
 -0.119577016754E+00 -0.326534443807E+00 -0.937590845770E+00
 -0.541914025216E+00  0.527548996463E+00 -0.654233326578E+00
 -0.227308704728E+00 -0.864614514009E+00 -0.448076438703E+00
 -0.781750175478E+00 -0.600117009431E+00 -0.169488165169E+00
 -0.880425050822E+00  0.429183069428E+00  0.201627435637E+00
  0.840894044868E+00 -0.472226852113E+00 -0.264384200452E+00
 -0.588142123376E+00 -0.108028747057E+00  0.801510219848E+00
  0.215085171441E+00  0.435913620758E+00  0.873909425664E+00
  0.741492600368E+00  0.635402309611E+00 -0.215528718598E+00
 -0.610397815653E+00  0.855031749246E-01  0.787466642928E+00
 -0.845364398383E+00  0.468728115012E+00  0.256228390589E+00
  0.841140602785E+00  0.180620469892E-01  0.540514799803E+00
 -0.127501400883E-01 -0.998653292005E+00 -0.502895247063E-01
  0.540789178051E+00 -0.466762491859E+00 -0.699771277702E+00
 -0.879067142331E+00 -0.177518158498E+00 -0.442411869955E+00
 -0.630568665836E+00 -0.329152673223E-01  0.775435195773E+00
  0.856326002175E+00  0.354480000154E+00 -0.375565849739E+00
 -0.750498911451E+00  0.425127277804E+00  0.505982392557E+00
 -0.362740663263E-01 -0.894914082417E+00 -0.444761708338E+00
  0.279208682442E+00  0.865772038136E+00  0.415308667896E+00
  0.191217211867E+00  0.817282437066E+00  0.543585684092E+00
 -0.482772619961E+00 -0.790731409648E+00  0.376396646122E+00
  0.507672471605E+00 -0.208692788719E+00 -0.835892326506E+00
  0.604222538864E-01 -0.493178907101E-01 -0.996953808805E+00
  0.896014774252E+00 -0.370322680540E+00 -0.244987013124E+00
  0.274268956541E-01  0.836880110584E+00 -0.546698679259E+00
  0.154498472666E+00  0.923839661351E+00 -0.350214936945E+00
  0.678480740978E+00 -0.708639334008E+00 -0.193634135468E+00
 -0.506649942783E-01  0.906859201146E+00  0.418377159572E+00
  0.269851320747E+00  0.881505801486E+00 -0.387463271341E+00
  0.689898360691E+00  0.487466596305E-01  0.722263120401E+00
 -0.873887805559E+00  0.419821357070E+00 -0.245092087681E+00
 -0.261695924154E+00 -0.298100957515E+00 -0.917960272784E+00
 -0.987685611551E+00  0.142740617906E+00  0.640487996395E-01
  0.745124842851E+00  0.648143286329E+00  0.157159947036E+00
  0.335016996053E-01 -0.807174959764E+00 -0.589360857585E+00
  0.770368741491E+00  0.227875114580E+00  0.595487140322E+00
 -0.111374740648E+00  0.417878705379E+00  0.901650184238E+00
 -0.371209121856E+00 -0.834366513639E+00  0.407475531497E+00
  0.720377147265E+00  0.325812554647E+00  0.612293185437E+00
 -0.174927100787E+00 -0.933525529038E+00  0.312938645815E+00
  0.227217102446E+00  0.916757606505E+00  0.328523787984E+00
 -0.981993536457E-01  0.407838242721E-03 -0.995166679814E+00
  0.530691879919E-01  0.247090557328E+00 -0.967538070448E+00
 -0.119987943911E+00  0.595814279000E+00  0.794108454971E+00
 -0.895052491594E+00  0.441370146961E+00  0.638234334952E-01
  0.758128957677E+00  0.596113066120E+00 -0.264366593831E+00
 -0.658559397833E+00  0.619455006222E+00 -0.427287976419E+00
 -0.470816875155E-02 -0.432410597397E+00  0.901664520987E+00
 -0.578159612250E+00  0.754732224922E+00 -0.310017308271E+00
 -0.129879015501E+00 -0.143479591762E+00  0.981093801876E+00
  0.957086681489E+00  0.271332674850E+00  0.101802080898E+00
  0.724836883451E+00  0.265703598917E+00  0.635620240326E+00
 -0.824990292852E+00 -0.536167433288E+00  0.178649097904E+00
  0.135413448360E+00 -0.420533855724E+00 -0.897114526798E+00
 -0.200273220455E+00  0.279750645852E+00 -0.938951656537E+00
 -0.997765936580E+00 -0.386848947178E-01  0.544666386010E-01
  0.962302183274E-01  0.924526589517E+00  0.368768667807E+00
  0.394608588466E+00  0.277339741638E+00  0.875994708669E+00
  0.957712327855E+00  0.507593847292E-01 -0.283214727611E+00
  0.328869136209E-01  0.607676404347E+00 -0.793503521424E+00
 -0.194187460042E+00  0.366049788603E+00 -0.910109214670E+00
 -0.581801542804E+00 -0.558821143976E+00  0.590953377041E+00
  0.932550016218E+00 -0.195260022818E+00  0.303684031092E+00
  0.817090633946E+00  0.460451236516E+00  0.346911450816E+00
 -0.866947739718E+00 -0.450750671398E+00 -0.212662758450E+00
  0.608547186509E-01  0.323825802145E+00  0.944157589115E+00
 -0.773602656191E+00  0.208105670602E-01 -0.633329180310E+00
 -0.200903604365E+00  0.684286553952E+00 -0.700991907110E+00
  0.301683073123E+00  0.869651535071E+00 -0.390760196207E+00
  0.801887219052E+00 -0.189010990022E+00  0.566790731728E+00
 -0.954619179899E+00 -0.295946922228E+00  0.334311320841E-01
 -0.137831679448E+00  0.989354985103E+00  0.466812766800E-01
 -0.469416544475E+00 -0.802775831532E+00 -0.367694264411E+00
  0.262425610650E+00  0.957964403513E+00 -0.115918076574E+00
  0.466121661023E+00 -0.884273095332E+00  0.281369862857E-01
 -0.865662210111E+00 -0.121508666913E+00  0.485658915136E+00
 -0.425001397768E+00  0.875847849637E+00  0.228613989468E+00
  0.839653026814E+00 -0.259918254191E+00  0.476891282894E+00
 -0.578400603008E+00  0.684894870926E+00  0.443138531634E+00
 -0.453656207423E+00  0.333215170480E-01 -0.890553604208E+00
 -0.927037346022E-01 -0.947945995464E+00 -0.304638157942E+00
 -0.155874226333E+00 -0.923332311722E+00 -0.350942541872E+00
 -0.431041318299E+00 -0.374635343868E+00  0.820884730668E+00
 -0.473028487486E+00 -0.585042503294E+00 -0.658763477560E+00
 -0.715043403576E-01  0.157300567499E+00  0.984958710188E+00
  0.243346971955E+00 -0.399292249326E+00 -0.883938884125E+00
  0.636983501832E+00 -0.411088714082E+00  0.652118154592E+00
 -0.893454124784E+00  0.198677046476E+00 -0.402823979066E+00
 -0.792626096668E-01  0.981418668059E+00 -0.174742200669E+00
  0.240290002805E-01 -0.351046033337E-01 -0.999094727226E+00
  0.581786046403E+00  0.311356905952E+00  0.751386633716E+00
 -0.323191125985E+00 -0.887580275524E+00 -0.328251048109E+00
  0.548930075919E+00  0.200652931564E-02 -0.835865865789E+00
 -0.265009050409E+00 -0.925240747013E+00  0.271477003204E+00
 -0.350607587653E+00 -0.827398926494E+00 -0.438731507776E+00
  0.776496052308E+00 -0.477124851884E+00  0.411589305576E+00
  0.158579972444E+00 -0.102541172998E+00 -0.982006975627E+00
 -0.832171442908E+00 -0.443271788151E+00 -0.333167842742E+00
  0.764213832625E+00  0.146357286527E+00  0.628137534864E+00
 -0.319451232934E-01  0.845973999465E+00  0.532266381924E+00
 -0.890604256489E+00  0.452919495266E+00 -0.410851448967E-01
  0.666793638528E+00  0.294013940226E+00 -0.684793433505E+00
  0.961029629839E+00  0.104293497570E+00  0.256017415297E+00
 -0.447664728746E+00 -0.894122292009E+00  0.119003179883E-01
  0.215007414088E+00  0.926084791354E+00  0.310062527742E+00
 -0.867171325356E+00 -0.274418263156E+00 -0.415582133069E+00
 -0.512013473386E+00  0.794122365423E+00  0.327432240023E+00
  0.478007176726E+00 -0.386586603053E+00 -0.788707764218E+00
  0.680792888398E+00  0.433910359360E+00 -0.590121041098E+00
 -0.596412397744E+00 -0.983184717721E-01  0.796633999981E+00
 -0.815937618865E+00  0.567968914855E+00  0.107968115107E+00
  0.690680643860E+00  0.590271283081E+00  0.417779918818E+00
  0.572988376874E+00  0.712339779796E+00 -0.405285526620E+00
  0.217368223702E+00  0.181893057166E-01 -0.975920183459E+00
 -0.550244850566E+00  0.241419323200E+00  0.799341800991E+00
 -0.536438685520E+00  0.654121686770E+00  0.533252618911E+00
  0.754245309943E+00 -0.498073154741E+00 -0.427828405970E+00
  0.595566873193E+00 -0.253437145436E+00  0.762279287970E+00
 -0.191995693167E+00  0.354288008345E+00 -0.915214543672E+00
  0.404604507538E+00  0.137579466837E-01  0.914388271678E+00
 -0.277731721198E+00  0.891825238392E+00 -0.357089393861E+00
  0.615511304249E+00 -0.699850130772E+00  0.362430170929E+00
  0.721546376706E+00  0.357965251825E+00 -0.592648044583E+00
 -0.193717686153E-01  0.147601062609E+00  0.988857250010E+00
  0.894283580836E-01 -0.407147719266E+00 -0.908973763904E+00
  0.510286330668E+00 -0.851355733863E+00  0.121660491338E+00
 -0.132579195932E+00 -0.800613709120E+00  0.584329055906E+00
 -0.693777964516E+00 -0.584882320850E+00  0.420219950394E+00
 -0.747269672424E+00  0.280885742287E-01  0.663927005530E+00
  0.229300220754E+00  0.949268660556E+00 -0.215198556798E+00
  0.571883658949E+00  0.467553935339E+00 -0.674049255008E+00
 -0.214071071512E+00  0.964943284898E+00 -0.151848718376E+00
 -0.122725516622E+00  0.702439090666E+00 -0.701083284264E+00
 -0.123471436224E+00  0.898819559734E+00  0.420568904552E+00
  0.413910753137E+00  0.636977045852E+00 -0.650336936899E+00
 -0.664499291744E+00 -0.196546029347E+00  0.720978744221E+00
 -0.393732898184E+00 -0.362917724873E+00 -0.844550253011E+00
 -0.353260576221E+00  0.313325348148E+00 -0.881495429084E+00
[...]
CELL_DATA                1996
SCALARS C_p_inc float 1
LOOKUP_TABLE default
  0.637530468804E+00
 -0.112508735657E+01
 -0.968106676049E+00
 -0.619088737988E+00
 -0.762332259225E+00
 -0.198741829732E+00
 -0.478775376799E+00
 -0.448440426352E+00
  0.834089109266E+00
  0.960109056361E+00
  0.955472569164E+00
 -0.525110154996E+00
 -0.675934455034E+00
  0.464829777741E+00
  0.523189303228E+00
 -0.134535816278E+01
  0.952566104771E+00
 -0.932829220921E+00
 -0.902171831339E+00
 -0.831718089474E+00
 -0.102261798848E+01
 -0.773193209949E+00
 -0.111875719148E+01
 -0.119046816114E+01
 -0.122262436782E+01
 -0.112258343295E+01
 -0.118095938110E+01
 -0.123024375432E+01
 -0.110250745501E+01
  0.900258863396E+00
  0.313513542554E+00
  0.687974912924E+00
 -0.830355954299E+00
 -0.107681509086E+00
 -0.410023598669E+00
 -0.390448735426E+00
  0.304053165848E+00
 -0.576146306105E-01
 -0.175353475784E+00
  0.997819523119E+00
 -0.103958829517E+01
 -0.125978919707E+01
 -0.124475693558E+01
 -0.778874320530E+00
 -0.859066410697E+00
 -0.121717214048E+01
 -0.123879062468E+01
 -0.482047757453E+00
  0.795373238441E+00
  0.774677618192E-01
 -0.727564605762E+00
 -0.818570302230E+00
 -0.825595618713E+00
 -0.576500801885E+00
 -0.509052041005E+00
 -0.123608472042E+01
 -0.117654346552E+01
 -0.107535294557E+01
 -0.132392497562E+01
 -0.129146898500E+01
 -0.122324708749E+01
 -0.121641951514E+01
 -0.118480851997E+01
 -0.115263493526E+01
 -0.113058908848E+01
 -0.118432234847E+01
 -0.118332160745E+01
 -0.471202790766E+00
 -0.490441800151E+00
 -0.510562856143E+00
 -0.617209176323E+00
 -0.623538745075E+00
  0.999517762289E+00
  0.964887321054E+00
  0.958047990608E+00
 -0.299079456951E+00
 -0.318761570190E+00
 -0.100334472344E+01
 -0.118511238546E+01
 -0.119862241207E+01
 -0.122851548409E+01
 -0.130867017882E+01
 -0.123094070540E+01
 -0.126614777164E+01
 -0.961203301887E+00
 -0.943415780197E+00
 -0.973883530091E+00
 -0.112275811961E+01
 -0.544872854653E+00
 -0.595067639902E+00
 -0.628003869405E+00
 -0.103269283935E+01
 -0.462594821979E+00
 -0.109527171560E+01
 -0.827571922680E+00
  0.889000582684E+00
  0.923668990421E+00
  0.907847770218E+00
  0.861380189355E+00
  0.802431861001E+00
  0.988515571708E+00
  0.972829814220E+00
  0.851343689506E+00
  0.890062559506E+00
  0.710094370101E+00
  0.760717509048E+00
  0.458565301131E+00
  0.508330878053E+00
  0.491438510436E+00
 -0.533791017622E+00
 -0.548031906462E+00
 -0.618030551902E+00
  0.724970819462E+00
  0.513657936358E+00
  0.781358175519E+00
 -0.118783938842E+01
 -0.120563617347E+01
 -0.105259607311E+01
  0.278961408332E+00
  0.280702550865E+00
  0.411669326113E+00
  0.393423832445E+00
 -0.596097334636E+00
 -0.621423409109E+00
  0.210304186289E+00
  0.251967598650E+00
  0.333357855128E+00
 -0.161265040535E+00
 -0.194837314294E+00
 -0.187679433605E+00
 -0.216175257085E+00
 -0.105727151112E+01
 -0.109584496924E+01
 -0.141718264966E+01
  0.582046830615E+00
 -0.865928242161E+00
 -0.110393856360E+01
 -0.131154816887E+00
 -0.141256118417E+01
 -0.343591159039E+00
 -0.211958568214E+00
 -0.284219034899E+00
 -0.295188534287E+00
 -0.374395294550E+00
 -0.738480842943E+00
 -0.645300673156E+00
 -0.771720286251E+00
 -0.110491265529E+01
 -0.112547707726E+01
 -0.123289882006E+01
 -0.120754394136E+01
 -0.120903552739E+01
 -0.102151545271E+01
 -0.109647380718E+01
 -0.966978092731E+00
 -0.109629531648E+01
 -0.102046277200E+01
 -0.121857691236E+01
 -0.124141004267E+01
 -0.117287469153E+01
 -0.107991889411E+01
 -0.111907889239E+01
 -0.133737199223E+01
 -0.122991213307E+01
 -0.123344315395E+01
 -0.122653619249E+01
 -0.118237585963E+01
 -0.777079460457E+00
 -0.121585514605E+01
 -0.925197214647E+00
 -0.121464629148E+01
  0.684587870791E+00
  0.792455960034E+00
  0.712489924891E+00
  0.491076929205E+00
  0.691164552807E+00
  0.453698020698E+00
  0.625726023527E+00
 -0.912041611745E+00
 -0.569004977232E+00
 -0.604610715116E+00
  0.265024155967E+00
 -0.413041549236E+00
 -0.249232849457E+00
 -0.157202115621E+00
 -0.192043428058E+00
 -0.414349744576E+00
  0.349781447844E+00
  0.336360467901E+00
  0.274887213847E+00
 -0.379694358347E-01
  0.104490929197E+00
  0.537092367603E-01
 -0.107927103384E+00
 -0.175788315399E+00
 -0.177616242349E+00
 -0.233036090643E+00
 -0.177946161618E+00
  0.343905979961E+00
 -0.110962288149E+01
 -0.977879175323E+00
 -0.120319596893E+01
 -0.124019808792E+01
 -0.122575771182E+01
 -0.460637022190E+00
 -0.692735047326E+00
 -0.780645597135E+00
 -0.693684817083E+00
  0.769091970774E-01
  0.819610514915E+00
  0.830319794161E+00
  0.744892257227E+00
  0.721517160270E+00
  0.319822930207E+00
  0.488555249872E+00
  0.563180888708E+00
 -0.116227100825E+00
 -0.179322472889E-01
 -0.314889275846E-01
  0.405392502792E-01
  0.141885805893E-01
 -0.286330449883E+00
 -0.167500038903E+00
  0.972372542958E+00
  0.899635380041E+00
  0.903794788093E+00
  0.997892144724E+00
  0.946695302477E+00
  0.957806308017E+00
  0.944354306717E+00
  0.930943797252E+00
  0.917409842717E+00
 -0.393962168152E-01
 -0.105967285820E+00
  0.368294583474E+00
  0.997059948319E-01
  0.306121049006E+00
  0.367854267684E+00
  0.360818721851E+00
  0.331464368348E+00
  0.316708403446E+00
  0.318302106230E+00
  0.225165238716E+00
 -0.205495810386E+00
 -0.770631005435E+00
 -0.662621998291E+00
 -0.613717999919E+00
 -0.661682327446E+00
 -0.107794379632E+01
 -0.110401110181E+01
 -0.127720816188E+01
 -0.122879836893E+01
 -0.120343748262E+01
 -0.121758062592E+01
 -0.126939677858E+01
 -0.121763971947E+01
 -0.121128093376E+01
 -0.120586869987E+01
 -0.121160666335E+01
 -0.911707076860E+00
 -0.108279744817E+01
 -0.933676309354E+00
 -0.124241540750E+01
 -0.129820194320E+01
 -0.120088358000E+01
 -0.120179861177E+01
 -0.122318034432E+01
 -0.120036863990E+01
 -0.101034404439E+01
 -0.111782880698E+01
 -0.104032984258E+01
 -0.471246556518E+00
  0.361733745384E+00
  0.384480126142E+00
  0.817620642600E+00
  0.814109723744E+00
  0.718484514077E+00
  0.746062270770E+00
  0.414230653701E+00
  0.410814097048E+00
  0.497752672288E+00
  0.569561209924E+00
  0.507436720867E+00
  0.440616088308E+00
  0.258135264520E+00
  0.257288003395E+00
 -0.108582198969E+01
 -0.118565789263E+01
 -0.120180055352E+01
 -0.686372322770E+00
 -0.837496447527E+00
 -0.849987789743E+00
 -0.925816193094E+00
 -0.111652630317E+01
 -0.110070217962E+01
 -0.103367282825E+01
 -0.837603627447E+00
 -0.875944505975E+00
 -0.893264735310E+00
 -0.922540845566E+00
 -0.763054803932E+00
 -0.112514827064E+01
 -0.108867255443E+01
 -0.116403273566E+01
 -0.135327560652E+01
 -0.116747877510E+01
 -0.135900361371E+01
 -0.135222534859E+01
 -0.118024370987E+01
 -0.930172294273E+00
 -0.126379969183E+01
 -0.125113820578E+01
 -0.124897995254E+01
 -0.118655337136E+01
 -0.115452602440E+01
 -0.123416524917E+01
 -0.126428518452E+01
 -0.127795613751E+01
 -0.126486836012E+01
 -0.113588689909E+01
 -0.126386567798E+01
 -0.122988730814E+01
 -0.112139060692E+01
 -0.829340791612E+00
 -0.645708262568E+00
 -0.985376519576E+00
 -0.111445574968E+01
 -0.140220711268E+01
 -0.174671286233E+01
 -0.104445814634E+01
 -0.107848152539E+01
 -0.122103402046E+01
 -0.129452568657E+01
 -0.111007385545E+01
 -0.108380999567E+01
 -0.115345413157E+01
 -0.106790737006E+01
 -0.498615097329E+00
 -0.645959416044E+00
 -0.918293765952E+00
 -0.759278126377E+00
 -0.873396780489E+00
 -0.896295020178E+00
 -0.410796602425E+00
 -0.697922231120E+00
 -0.869282110742E+00
 -0.739891030729E+00
 -0.123221649486E+01
 -0.887480571190E+00
 -0.974598582293E+00
  0.977919876212E+00
  0.984039799678E+00
  0.904133425405E+00
  0.894601327058E+00
 -0.744334599556E+00
 -0.950145201038E+00
 -0.868718600109E+00
 -0.753490843350E+00
 -0.570169549838E+00
 -0.673677356487E+00
 -0.701583166102E+00
 -0.699195211137E+00
 -0.330212574253E+00
 -0.741091890337E-01
  0.717843450917E+00
  0.782064541920E+00
  0.889180843816E+00
  0.635947338264E+00
  0.363927758066E+00
  0.199806511093E-02
  0.565514631287E-01
  0.198923268294E-01
  0.242255732320E+00
  0.240369097646E+00
 -0.985649861593E+00
 -0.120053371988E+01
 -0.114267938068E+01
 -0.105560558733E+01
 -0.101648949583E+01
 -0.105148940825E+01
 -0.977638660099E+00
 -0.111537062718E+01
 -0.115446006720E+01
 -0.894925231225E+00
 -0.101201849912E+01
 -0.565800113686E+00
 -0.391235001433E+00
 -0.412843048654E+00
 -0.634167204539E+00
 -0.712088814617E+00
 -0.583267040970E+00
 -0.843369319405E+00
 -0.732015086874E+00
 -0.122558666820E+01
 -0.130168366826E+01
 -0.128277211875E+01
 -0.117607889823E+01
 -0.124433088528E+01
 -0.117639766439E+01
 -0.129653531642E+01
 -0.130925208164E+01
 -0.107688314641E+01
 -0.880619423056E+00
 -0.112694862909E+01
 -0.831726340946E+00
 -0.916805781486E+00
 -0.640823826347E+00
 -0.656839095247E+00
 -0.621774887054E+00
 -0.689566996894E+00
 -0.706062437193E+00
 -0.125980041727E+01
 -0.304945887908E+00
  0.174379352038E+00
 -0.245649494480E+00
 -0.279616698303E+00
 -0.202276679880E+00
 -0.442486483142E+00
 -0.117238178351E+01
 -0.114550832109E+01
 -0.118203940792E+01
 -0.107095482187E+01
 -0.113279565773E+01
 -0.114716948629E+01
 -0.108446639714E+01
 -0.433067860551E+00
 -0.423097130051E+00
 -0.470574789882E+00
 -0.745867944787E+00
 -0.747202949775E+00
 -0.658148798902E+00
 -0.568614236471E+00
 -0.107388532930E+01
 -0.620051497450E+00
 -0.511449119183E+00
 -0.100923332064E+01
 -0.954143278286E+00
 -0.128329425823E+01
 -0.127184246207E+01
 -0.126836077852E+01
 -0.131736032211E+01
 -0.106846390568E+01
 -0.107980989392E+01
 -0.135144059288E+01
 -0.144331531421E+01
 -0.126600850515E+01
 -0.105873813192E+01
 -0.119744043801E+01
 -0.118018320478E+01
 -0.439172928862E+00
 -0.947210963107E+00
 -0.941027603527E+00
  0.942197386153E+00
  0.933790372680E+00
  0.694208126214E+00
  0.797125763092E+00
  0.681682072641E+00
  0.811845517200E+00
  0.780723876737E+00
 -0.134247508004E+00
 -0.404532940411E-02
 -0.770495666801E-01
 -0.219573434466E+00
 -0.148236690794E+01
 -0.164200149969E+01
 -0.107304591402E+01
 -0.103307540825E+01
 -0.111789238193E+01
 -0.127215203651E+01
 -0.129145827462E+01
 -0.130541673422E+01
 -0.131201670068E+01
 -0.136376303092E+01
 -0.954655281905E+00
 -0.122909326359E+01
 -0.115139002289E+01
 -0.905655766476E+00
 -0.100630699143E+01
 -0.106262874468E+01
 -0.378449911040E+00
 -0.357349236850E+00
 -0.653845159508E+00
 -0.672496046849E+00
  0.651149585760E+00
  0.745982884313E+00
  0.865438500972E+00
  0.989502990433E+00
  0.889227196060E+00
  0.879998255444E+00
  0.966302770128E+00
  0.977975864709E+00
  0.977045433112E+00
  0.335781641773E+00
 -0.950823720061E+00
 -0.107462777391E+01
 -0.104388120930E+01
 -0.772819005770E+00
 -0.628707517272E+00
 -0.100731355187E+01
 -0.835073933767E+00
 -0.746309636589E+00
 -0.602516531471E+00
 -0.458588983569E+00
 -0.631609214534E+00
 -0.610149891329E+00
  0.242277142091E+00
  0.174856990482E+00
  0.469071685734E+00
  0.298072553707E+00
  0.261303129856E+00
  0.580905795175E+00
  0.611766314268E+00
  0.599980252089E+00
 -0.126271270717E+01
 -0.125549605531E+01
 -0.511457499919E+00
 -0.575456348576E+00
 -0.536648676164E+00
 -0.671956195127E+00
 -0.105769981543E+01
 -0.729975880492E+00
 -0.724657158272E+00
 -0.746165231750E+00
 -0.109192457156E+01
 -0.119271752194E+01
 -0.119579868884E+01
 -0.134055675159E+01
 -0.136608633626E+01
 -0.136148037533E+01
 -0.120109750593E+01
 -0.123010224595E+01
 -0.123045624734E+01
 -0.125183238538E+01
 -0.124515809200E+01
 -0.110765000626E+01
 -0.136225194843E+01
 -0.133414838897E+01
  0.696838677150E+00
  0.651565331123E+00
  0.714944250849E+00
  0.877695201495E+00
  0.851074583439E+00
 -0.896922565512E+00
 -0.932037929744E+00
 -0.891785724355E+00
 -0.920285612637E+00
 -0.110886153347E+01
 -0.119418039373E+01
 -0.910259060836E+00
  0.256741905593E+00
 -0.243939361121E+00
 -0.181872169947E+00
 -0.293205198218E+00
  0.536154007245E-01
  0.244369100777E+00
 -0.831649081323E-01
 -0.108589993933E+00
  0.689062717936E+00
  0.682098513936E+00
  0.589003760083E+00
  0.526461448204E+00
  0.756769468183E+00
  0.746504630961E+00
  0.494317092514E-01
 -0.706653714854E+00
 -0.559687438340E+00
 -0.729524756493E+00
 -0.683946972254E+00
  0.142682704944E-01
  0.281761415800E+00
  0.221816486987E+00
 -0.345315767951E-01
  0.593186050027E-02
  0.988714680251E-01
  0.534838555833E+00
  0.497268396440E+00
  0.568407798670E+00
 -0.132354548455E+01
 -0.107304998572E+01
 -0.121507629036E+01
 -0.118548568731E+01
 -0.116029017091E+01
 -0.527054044176E+00
 -0.477130292315E+00
 -0.537705072752E+00
 -0.194599983953E+00
 -0.260476372847E+00
 -0.219678543944E+00
 -0.199680830431E+00
 -0.569275841084E+00
 -0.869270975288E+00
 -0.824923870141E+00
 -0.859158638832E+00
  0.152666502839E+00
  0.439511696119E+00
  0.420753308618E+00
  0.421160991796E+00
  0.557794308293E+00
  0.569677101669E+00
  0.945599712313E-01
  0.846553163975E-01
  0.756114963043E-01
  0.344480301702E+00
  0.371766874697E+00
 -0.245050276989E+00
 -0.280170961280E+00
 -0.951258901331E-01
  0.157742319642E+00
  0.165734666598E+00
  0.374185672794E-01
  0.313768899926E+00
  0.167530487702E-01
  0.882460104308E-01
  0.739727223578E+00
  0.585746747073E+00
  0.552418686149E+00
 -0.280928057506E+00
 -0.130472648903E-01
 -0.808808042202E+00
 -0.824405223043E+00
 -0.832205652561E+00
 -0.468006674031E+00
 -0.391901141823E+00
 -0.814421564939E+00
 -0.799794926232E+00
 -0.100856936862E+01
 -0.105508824034E+01
 -0.969241987796E+00
 -0.105312589510E+01
 -0.918189668535E+00
 -0.661031239140E+00
 -0.824339476476E+00
 -0.106577229620E+01
 -0.105544476817E+01
 -0.100315045214E+01
 -0.904049384516E+00
 -0.107540678255E+01
 -0.925581412399E+00
 -0.105099326592E+01
 -0.121634910370E+01
 -0.121728132728E+01
 -0.129287152571E+01
 -0.138142077704E+01
 -0.145935252688E+01
 -0.146542500098E+01
 -0.129357959592E+01
 -0.112688664320E+01
 -0.112030859340E+01
 -0.115681181595E+01
 -0.126614815072E+01
 -0.125609107933E+01
 -0.127734716615E+01
 -0.125477542314E+01
 -0.131134804713E+01
 -0.125817089134E+01
 -0.123688161912E+01
 -0.136175514198E+01
 -0.108936087517E+01
 -0.106321227124E+01
 -0.108685032263E+01
 -0.108342137390E+01
 -0.121865631102E+01
 -0.112620827727E+01
 -0.127611676966E+01
 -0.105575413669E+01
 -0.108879391364E+01
 -0.108576005113E+01
 -0.130745171909E+01
 -0.126878527814E+01
 -0.942203816568E+00
 -0.402420711498E+00
 -0.452494498841E+00
 -0.483177777443E+00
 -0.487019027948E+00
 -0.564956702412E+00
 -0.568581252370E+00
 -0.673146018896E+00
 -0.681137440293E+00
 -0.919782054432E+00
 -0.938185121262E+00
 -0.737748010307E+00
 -0.753153367971E+00
 -0.117483585054E+01
 -0.106943628475E+01
 -0.107070376696E+01
 -0.124172227228E+01
 -0.123294183190E+01
 -0.133237398368E+01
 -0.134313277433E+01
 -0.116711643597E+01
 -0.118569323633E+01
 -0.135632713264E+01
 -0.135683520454E+01
 -0.118782807812E+01
 -0.124901151148E+01
 -0.136337125493E+01
 -0.129914692289E+01
 -0.132499575165E+01
 -0.126324882182E+01
 -0.125406470208E+01
 -0.114513826804E+01
 -0.108092201852E+01
 -0.105289440598E+01
 -0.119514540714E+01
 -0.904468379524E+00
 -0.951459651881E+00
 -0.950677121543E+00
 -0.594992219634E+00
 -0.140762849510E+01
 -0.124895997880E+01
 -0.137516473671E+01
 -0.120420212083E+01
 -0.118377390724E+01
 -0.137088943528E+01
 -0.142074766976E+01
 -0.138293499234E+01
 -0.106250861676E+01
 -0.839546882091E+00
 -0.889658741470E+00
  0.314163215627E-01
 -0.281968247262E+00
 -0.154995461892E+00
 -0.119425877151E+00
 -0.128663762143E+00
 -0.282422391309E+00
 -0.252165710241E+00
 -0.223196382661E+00
 -0.133467550242E+01
 -0.109964638261E+01
 -0.109037269570E+01
 -0.375617007089E+00
 -0.249336056718E+00
 -0.510513575692E+00
 -0.563628099496E+00
  0.386864302218E+00
  0.501985375328E+00
 -0.473766052112E+00
 -0.709478362733E+00
 -0.370565050203E+00
 -0.353252283346E+00
 -0.397522010133E+00
 -0.161866892905E+00
 -0.174134438769E+00
 -0.381094823761E+00
 -0.295943633446E+00
  0.247258597326E-01
  0.135424781493E+00
  0.128138516275E+00
  0.506029526394E+00
  0.968321433132E+00
  0.895247770826E+00
  0.982591765053E+00
  0.920660506657E+00
  0.895422182555E+00
  0.698950847981E+00
  0.668956178867E+00
  0.525210696187E+00
  0.346522065864E+00
 -0.369860858357E+00
 -0.197786252732E+00
  0.325956429406E+00
  0.227925092124E+00
  0.101564595315E+00
  0.177654410832E+00
  0.464258940748E+00
  0.565855865699E-02
  0.158520446120E+00
  0.704039380376E-01
 -0.950876454569E-01
 -0.581710332720E-01
 -0.755865986822E+00
 -0.720361014551E+00
 -0.638820580322E+00
 -0.501239489835E+00
 -0.714033619077E+00
 -0.448175977397E+00
 -0.568451398344E+00
 -0.350494990143E+00
 -0.352211316884E+00
 -0.123817041001E+01
 -0.120593981074E+01
 -0.109419909375E+01
 -0.976920968094E+00
 -0.799244291237E+00
 -0.985436899582E+00
 -0.780706233594E+00
 -0.405292767223E+00
 -0.818404149280E+00
 -0.346819025049E+00
 -0.901664951220E+00
 -0.101862015588E+01
 -0.479548369273E+00
 -0.695005636278E+00
 -0.114485114019E+01
 -0.109333479528E+01
 -0.109395557742E+01
 -0.948819277759E+00
 -0.111189533633E+01
 -0.693344317791E+00
 -0.658274406630E+00
 -0.734872511986E+00
 -0.964222744495E+00
 -0.866132785606E+00
 -0.868517885536E+00
 -0.100854763254E+01
 -0.944867082160E+00
 -0.119988925632E+01
 -0.119897398918E+01
 -0.132687142685E+01
 -0.126719372366E+01
 -0.100054543477E+01
 -0.901791664977E+00
 -0.710508094681E+00
 -0.954523329993E+00
 -0.715002417719E+00
 -0.105911844918E+01
 -0.123069327196E+01
 -0.130031666880E+01
 -0.130023377617E+01
 -0.132277063393E+01
 -0.132500039931E+01
 -0.124065165962E+01
 -0.123974288215E+01
 -0.129308023477E+01
 -0.881315365409E+00
 -0.816761663525E+00
 -0.872111074360E+00
 -0.915570417450E+00
 -0.718554037111E+00
 -0.527721303199E+00
 -0.556604786479E+00
 -0.450293961554E+00
 -0.540127521999E+00
 -0.686451952576E+00
  0.385109899761E+00
  0.360959108097E+00
  0.588315207395E+00
  0.190065361633E+00
 -0.207858155574E+00
 -0.501609172563E+00
 -0.425755326574E+00
 -0.446183989869E+00
 -0.400306608217E+00
 -0.103936634110E+01
 -0.101865339418E+01
 -0.105942472759E+01
 -0.103929146101E+01
 -0.103924723865E+01
 -0.946137570411E+00
 -0.868556142469E+00
 -0.891779305851E+00
 -0.889858218561E+00
  0.918063762151E-01
  0.925649809237E-01
 -0.194187080258E+00
 -0.190757827139E+00
 -0.217945223675E+00
 -0.412587413535E+00
 -0.123835421364E+00
 -0.161673263326E+00
 -0.835760479505E+00
 -0.105879464653E+01
 -0.114248980940E+01
 -0.892433411690E+00
 -0.854744332642E+00
 -0.729296730406E+00
 -0.497340726749E+00
 -0.582556952462E+00
 -0.678710174117E+00
 -0.679988418948E+00
 -0.435305141674E+00
 -0.519014966913E+00
 -0.565971394262E+00
 -0.200006326580E+00
 -0.104403695965E+00
 -0.144387079849E+00
 -0.840812800018E-01
 -0.528297810611E+00
 -0.552282344780E+00
 -0.216487951550E+00
 -0.256198771204E+00
 -0.571755092356E+00
 -0.589487075187E+00
 -0.540891671138E+00
 -0.846461608490E+00
 -0.864961443755E+00
 -0.832724868844E+00
 -0.778524295840E+00
 -0.104853730976E+01
  0.508887703442E-01
  0.100987495036E+00
  0.287439739754E+00
 -0.329076326917E-01
  0.132854385983E-01
 -0.587234474907E+00
 -0.606558530689E+00
 -0.851154507212E+00
 -0.650481392439E+00
 -0.696974611163E+00
 -0.599401577472E+00
 -0.572590329829E+00
 -0.995466484646E+00
 -0.853620963529E+00
 -0.691719764209E+00
 -0.769001944419E+00
 -0.679342242227E+00
 -0.136529289073E+01
 -0.117513322547E+01
 -0.120435426168E+01
 -0.118005491535E+01
 -0.118798801808E+01
 -0.122653244788E+01
 -0.135401504314E+01
 -0.120366151488E+01
 -0.123786197145E+01
 -0.119774868933E+01
 -0.117024062179E+01
 -0.122172760095E+01
 -0.679828703036E+00
 -0.678483041378E+00
 -0.776812884190E+00
 -0.617893348763E+00
 -0.605856914774E+00
 -0.167773502169E+01
 -0.113068554832E+01
 -0.125845682699E+01
 -0.127793250025E+01
 -0.112678622780E+01
 -0.113972269689E+01
 -0.117508100790E+01
 -0.115737389215E+01
 -0.114047767343E+01
 -0.101511815844E+01
 -0.109608306868E+01
 -0.118823427411E+01
 -0.992378935258E+00
 -0.128419161961E+01
 -0.124575426375E+01
 -0.117524102615E+01
  0.939934488334E+00
  0.932864336089E+00
  0.794189433705E+00
  0.826479109987E+00
  0.870989146424E+00
  0.811488056463E+00
  0.700720186619E+00
  0.875363826629E+00
  0.839371509264E+00