# vtk DataFile Version 3.0
MachLine results file. Generated by MachLine, USU AeroLab (c) 2022.
ASCII
DATASET POLYDATA
POINTS                4000 float
 -0.528536252728E-01  0.578945142617E+00 -0.813651655277E+00
 -0.702097579803E+00 -0.665768437080E+00 -0.252609138044E+00
  0.115222429193E+00 -0.993229683732E+00 -0.147846935729E-01
  0.793825412783E+00 -0.531881428382E+00  0.294861594926E+00
 -0.611513463531E+00 -0.699980603269E+00 -0.368888111719E+00
 -0.403252752862E+00 -0.594879328607E+00  0.695345814473E+00
  0.533048627399E+00  0.422493286228E+00  0.733047463620E+00
 -0.334320040816E+00 -0.132259421389E-01 -0.942366799481E+00
  0.211321822283E+00 -0.491085666467E+00 -0.845090501436E+00
 -0.247772758414E+00  0.967818194815E+00  0.440068400708E-01
  0.663274662773E+00  0.523334924969E+00 -0.534964744662E+00
 -0.511989272795E+00 -0.704829622147E+00 -0.491001210066E+00
  0.334545823364E+00  0.419488575325E+00  0.843865171246E+00
 -0.978487056344E+00 -0.178762296484E+00  0.102990882715E+00
  0.389221115047E-01 -0.994348206724E+00 -0.987760751424E-01
 -0.412439225711E+00  0.201661052967E+00 -0.888384322696E+00
 -0.304582683317E+00 -0.942306959294E+00 -0.138877584547E+00
  0.936450617118E+00  0.133803891207E+00  0.324278831250E+00
 -0.530507862113E+00 -0.715885694837E+00  0.453948323230E+00
 -0.618940004462E+00 -0.599161235906E+00  0.507857346372E+00
 -0.565163900605E+00  0.786151887359E+00  0.250109926742E+00
 -0.393950139781E+00 -0.672442018531E+00  0.626597972452E+00
 -0.981466111934E+00  0.837460999495E-01  0.172368389990E+00
 -0.567882152094E+00 -0.752843161592E+00  0.332771746662E+00
  0.880502274515E+00 -0.311576761701E+00 -0.357261341516E+00
 -0.536335465633E+00 -0.351518337110E+00  0.767319442592E+00
 -0.713940472343E+00 -0.586110960097E+00  0.383096521005E+00
  0.550490542816E+00 -0.742096617411E+00 -0.382430088640E+00
  0.372542487807E+00  0.589954732888E+00  0.716355713261E+00
  0.889781366843E+00  0.355715658696E+00 -0.285929168461E+00
  0.323781158574E+00 -0.329903249448E+00 -0.886752280716E+00
 -0.822126262458E+00  0.477972661637E-01  0.567295187644E+00
 -0.326706942694E-01 -0.567369265636E+00  0.822815132425E+00
  0.583188390664E+00 -0.118218396334E+00 -0.803688815253E+00
 -0.788311193353E+00 -0.613809825941E+00 -0.424612766114E-01
  0.849323927404E+00 -0.447305163159E-01 -0.525973428273E+00
  0.598050067177E+00  0.392563172422E+00 -0.698734765707E+00
 -0.722036957820E+00  0.647004022164E+00  0.245047805226E+00
 -0.180761295574E+00  0.982107016308E+00  0.528314540827E-01
  0.139779470218E+00 -0.950612103195E+00  0.277125114281E+00
 -0.966547400445E+00  0.222807694126E+00  0.127054532115E+00
  0.210521611520E+00  0.944607342749E+00  0.251788838329E+00
  0.694803779672E+00 -0.297026164422E+00 -0.654998599542E+00
 -0.819075691139E+00 -0.483069997542E+00 -0.309448525057E+00
  0.990509065410E+00 -0.990839841412E-01  0.952583614563E-01
 -0.623951399532E+00 -0.363083255801E+00 -0.691993641863E+00
 -0.625746696506E+00 -0.240257699279E+00 -0.742103301265E+00
  0.467874934596E+00  0.339746163836E+00 -0.815883318702E+00
 -0.572490836822E+00  0.769231293264E+00 -0.283791224702E+00
  0.981984407691E+00 -0.322615944093E-01 -0.186187573642E+00
 -0.632596704705E+00 -0.472218916719E+00 -0.613865379289E+00
 -0.564190548214E+00 -0.562967751269E+00  0.603950607530E+00
  0.317855713545E+00 -0.781870837092E+00 -0.536326150278E+00
 -0.332817993929E+00 -0.121668523512E+00 -0.935109059577E+00
  0.686864096729E+00  0.575869935085E-01 -0.724500828711E+00
  0.130419780452E+00  0.413332041965E+00  0.901192157063E+00
 -0.691337566167E+00  0.231737025523E+00  0.684361250077E+00
  0.694394138951E-01 -0.682693929454E+00 -0.727397529886E+00
 -0.202022784285E+00  0.310773878103E+00  0.928766058445E+00
  0.125065092487E+00 -0.577692996621E+00 -0.806616094741E+00
 -0.459930482720E+00  0.835885549418E+00 -0.299598563647E+00
 -0.276770434097E+00 -0.456259080480E+00  0.845710221228E+00
 -0.839042346536E+00  0.519341941671E+00  0.162147736156E+00
  0.873744859356E+00 -0.219328157573E+00 -0.434125650065E+00
 -0.323769211053E+00  0.584892154349E+00  0.743689898920E+00
  0.559668338664E-02  0.991121025215E+00 -0.132844986775E+00
  0.644107826069E+00  0.446670827246E+00 -0.620975265597E+00
 -0.769612006206E+00  0.269124270775E+00  0.579024599463E+00
 -0.682534028892E+00  0.384954440608E+00  0.621254680514E+00
 -0.953912329815E+00 -0.198891021427E+00  0.224707873965E+00
  0.107870278102E-01 -0.100421108666E-01  0.999891392122E+00
 -0.945822501572E+00 -0.320234624695E+00 -0.535684671010E-01
  0.709772883769E-01 -0.341631052734E+00  0.937150173848E+00
 -0.347339939446E+00 -0.752636923919E+00 -0.559368060600E+00
 -0.590562672972E+00 -0.372268868976E+00 -0.715996940275E+00
 -0.137542036928E-01  0.966363856037E+00  0.256810668834E+00
  0.630022775036E+00 -0.763604461135E+00  0.141348964874E+00
  0.752407671807E+00  0.450779775990E+00  0.480291878928E+00
  0.608114911021E+00  0.509274829759E+00  0.608962562698E+00
  0.260988603998E+00 -0.911411086027E+00 -0.318142705165E+00
  0.840607444918E+00 -0.415393988223E+00 -0.347601723379E+00
 -0.264073501543E+00 -0.824712574165E+00 -0.500114342723E+00
  0.482041736960E-01  0.955169502072E+00  0.292108849489E+00
  0.585966784674E+00 -0.488734461157E+00  0.646360235269E+00
 -0.276543741049E+00  0.882984775186E+00 -0.379290714462E+00
  0.549191853915E+00 -0.108134181142E+00  0.828670807053E+00
  0.406151440598E+00  0.749955119376E+00 -0.522119072839E+00
 -0.427612620950E+00 -0.823607248321E+00  0.372583610639E+00
 -0.113971137137E+00  0.286539274296E+00 -0.951265380525E+00
  0.609103319216E+00 -0.497875303553E+00 -0.617343768602E+00
  0.228157955036E+00  0.955009968309E+00  0.189472710395E+00
 -0.697830967240E+00 -0.530248616710E+00  0.481527097511E+00
  0.359491810276E+00 -0.916994839463E+00  0.172875975032E+00
 -0.971924643060E+00 -0.223540214406E+00  0.734320145114E-01
  0.581584280521E+00 -0.806265561908E+00  0.108146050937E+00
 -0.555565405289E+00 -0.168034754079E+00 -0.814316524374E+00
 -0.833971237630E-01  0.743334301604E+00  0.663701013866E+00
  0.478155142990E+00  0.772745560129E+00  0.417411018702E+00
 -0.805788201789E+00 -0.592097692661E+00  0.112114318469E-01
  0.527074683188E+00 -0.236251182958E+00  0.816319580124E+00
 -0.404986839391E+00  0.793184574155E+00 -0.454800935841E+00
 -0.485497517677E+00 -0.542341502940E+00 -0.685680577615E+00
  0.192189905319E+00  0.924460835666E+00  0.329295010004E+00
  0.809741487459E+00 -0.451708804279E+00  0.374536886868E+00
 -0.592522673089E+00 -0.753506493212E+00 -0.284859345226E+00
  0.586888234892E+00 -0.242561577623E+00  0.772480472767E+00
 -0.816004177584E+00 -0.316011527986E+00  0.484018487607E+00
  0.330451529245E+00 -0.730961843819E-01 -0.940988169240E+00
 -0.511209722185E+00  0.824217394719E+00  0.243578131584E+00
 -0.835709141342E+00  0.386370243437E+00  0.390266916435E+00
 -0.982612834248E+00 -0.180887131132E+00 -0.418552716052E-01
  0.381358455423E+00 -0.837882702028E+00  0.390535921677E+00
 -0.248484181870E+00  0.846375191669E+00 -0.471067560216E+00
  0.918726393073E+00 -0.288419821450E+00 -0.269732870200E+00
 -0.816586860593E+00  0.540891663649E+00  0.201549267678E+00
 -0.145825872408E+00  0.891671173333E+00 -0.428552603052E+00
  0.854949260939E+00  0.246222412937E+00 -0.456548228106E+00
 -0.935266624203E+00  0.337517379991E+00  0.106575606293E+00
 -0.469546099900E+00 -0.173953838660E+00  0.865601826526E+00
 -0.625673818247E-01 -0.111000458150E+00  0.991848890216E+00
  0.210353259104E+00 -0.329211004281E+00 -0.920527903458E+00
 -0.668141038440E-01 -0.979880624485E+00 -0.188068703634E+00
  0.444862792798E+00  0.145562222760E+00 -0.883690406697E+00
 -0.398705025461E+00  0.412278600401E-01  0.916152043183E+00
  0.917720800955E+00 -0.219551937676E+00 -0.331036974002E+00
  0.903973156323E+00 -0.280232087624E+00  0.322958990762E+00
 -0.658715756412E+00 -0.752249704747E+00  0.146264815419E-01
 -0.122731663411E+00 -0.367876734290E+00  0.921739468160E+00
 -0.129825143467E+00  0.961062697611E+00  0.243934260375E+00
  0.582645450154E+00  0.422162270591E+00  0.694480594909E+00
 -0.839011896598E+00 -0.410910252216E-01 -0.542559273272E+00
 -0.486713012443E+00  0.342277980855E+00  0.803714020868E+00
 -0.706151401361E-01 -0.875522801161E+00  0.477988835257E+00
  0.703677906267E+00  0.205399379082E+00  0.680182695535E+00
  0.420178150337E+00 -0.746050656363E+00  0.516583720339E+00
 -0.506614671179E-02 -0.536742569680E+00 -0.843730850480E+00
 -0.995879279315E+00  0.736307561585E-01 -0.529431088950E-01
 -0.283181385900E+00  0.799944002432E+00 -0.529053773877E+00
 -0.430005894761E+00 -0.735970479259E+00 -0.522917186685E+00
  0.223098221527E+00 -0.824649816931E+00 -0.519788286696E+00
 -0.544967628465E+00  0.724035958268E+00  0.422826459744E+00
  0.796935568740E-01 -0.747309755736E+00 -0.659679517626E+00
 -0.951576804680E+00 -0.287065851188E+00  0.109976278701E+00
  0.979584756326E+00 -0.192448543294E+00  0.581142268126E-01
 -0.289996741650E+00  0.934554679724E+00  0.206178176436E+00
 -0.636323229440E+00  0.358342333020E+00 -0.683142386360E+00
  0.184947967356E+00  0.478950852714E+00  0.858137710426E+00
 -0.700711364243E+00  0.647746056370E+00 -0.299046201243E+00
  0.406271294796E+00  0.746137482127E-01 -0.910701061602E+00
  0.374589085480E+00 -0.376951734153E+00  0.847107081282E+00
  0.901711500994E+00  0.287797541544E-01  0.431379293345E+00
  0.640728860941E-01 -0.445210054858E+00  0.893130825983E+00
 -0.957568675275E+00  0.202960387226E+00 -0.204619924128E+00
  0.190759749835E+00  0.736918997584E+00  0.648506830221E+00
  0.282465610665E+00  0.563806350669E+00  0.776102813896E+00
  0.195470502132E+00 -0.931530378702E+00 -0.306663392585E+00
 -0.468838592952E+00  0.484280073274E+00 -0.738690181598E+00
 -0.859674556137E+00 -0.809967022653E-01  0.504380007289E+00
 -0.388659140277E+00  0.810128921891E+00  0.438902269982E+00
  0.906098374821E+00  0.693569820123E-01 -0.417343197133E+00
  0.928163760404E+00  0.371774890619E+00 -0.171890831006E-01
[...]
CELL_DATA                7996
SCALARS C_p_inc float 1
LOOKUP_TABLE default
 -0.120219387357E+01
 -0.121147472269E+01
 -0.118949373952E+01
 -0.738269045190E+00
 -0.120950949930E+01
 -0.120761296958E+01
 -0.117447966469E+01
 -0.429535298386E+00
 -0.933361858972E+00
 -0.574733141950E+00
  0.994690634839E+00
  0.992131626945E+00
  0.970753387534E+00
  0.944390694873E+00
  0.791207548872E+00
  0.997892658771E+00
 -0.122030554113E+01
 -0.121309689400E+01
 -0.111358784723E+01
 -0.970417214993E+00
 -0.914181373832E+00
 -0.886536074675E+00
 -0.883986032231E+00
 -0.934615075146E+00
 -0.939041394754E+00
 -0.108931163823E+01
 -0.115731569446E+01
 -0.130499036747E+01
 -0.129828167371E+01
 -0.121560740732E+01
 -0.125888298677E+01
 -0.127258588077E+01
 -0.108391192216E+01
 -0.109855416791E+01
 -0.110091130746E+01
 -0.512974376198E+00
 -0.896411239643E+00
 -0.102070539112E+01
 -0.695264988786E+00
 -0.806189790784E+00
 -0.122294128993E+01
 -0.118931275107E+01
 -0.113256813127E+01
 -0.113682464739E+01
 -0.658317480209E+00
 -0.663071169580E+00
  0.256259786915E+00
 -0.237663661747E-01
  0.584059196821E-02
 -0.118353540199E+01
 -0.103391914332E+01
 -0.107566795543E+01
 -0.113247952925E+01
 -0.110374609518E+01
 -0.962376566463E+00
 -0.558850713436E+00
 -0.883366674601E+00
 -0.881596876278E+00
 -0.860748337274E+00
 -0.760834790901E+00
 -0.118385949168E+01
  0.105370914747E+00
  0.197131924329E+00
  0.196887564381E+00
 -0.634250798936E-01
  0.114069789366E+00
  0.826605756546E+00
  0.841598066050E+00
  0.992025102335E+00
  0.994573770917E+00
  0.985671467438E+00
  0.999943874657E+00
 -0.209402181456E+00
  0.253197637150E+00
  0.285293246282E+00
  0.251246150687E+00
 -0.365628558101E-01
  0.468045360287E+00
  0.440741372434E+00
  0.962645516892E+00
  0.982120526250E+00
  0.991923019238E+00
 -0.533187143644E+00
 -0.421394277012E+00
 -0.474910054139E+00
 -0.456931785140E+00
 -0.127505252474E+01
 -0.117698519851E+01
 -0.121413116269E+01
 -0.120639196478E+01
 -0.131802907080E+01
 -0.128511547109E+01
 -0.122190939522E+01
 -0.124984703254E+01
 -0.122137319329E+01
 -0.124496380639E+01
 -0.124652906296E+01
 -0.131499570051E+01
 -0.125626494384E+01
 -0.121238236867E+01
 -0.123052439285E+01
 -0.392984360931E+00
 -0.649787558683E+00
 -0.530538243931E+00
 -0.489935501301E+00
 -0.504992283633E+00
 -0.898157068674E+00
 -0.897308749778E+00
 -0.924734518148E+00
 -0.914098216119E+00
 -0.917449215582E+00
 -0.710853055145E+00
 -0.731959654540E+00
 -0.130080977026E+01
 -0.112352365823E+01
 -0.122448706821E+01
 -0.111499502950E+01
 -0.110894925921E+01
 -0.108645546929E+01
 -0.113750423372E+01
 -0.138225608614E+01
 -0.127629137055E+01
 -0.128544043303E+01
 -0.127435512957E+01
 -0.110574699174E+01
 -0.124488112974E+01
 -0.127523304945E+01
 -0.120350368377E+01
 -0.209969655870E-01
  0.364425572124E-01
  0.495087177782E-01
 -0.250047079214E-02
  0.488409643309E+00
  0.368870893530E+00
  0.299919418160E+00
 -0.177730097491E+00
  0.168249160163E-01
  0.928652568919E-02
 -0.468797657084E+00
 -0.666843754350E+00
 -0.222842545020E+00
 -0.324552383232E+00
 -0.318733094451E+00
 -0.113317638856E+01
 -0.123243136743E+01
 -0.120157462270E+01
 -0.128029360150E+01
 -0.127857845734E+01
 -0.118772717368E+01
 -0.129971870725E+01
 -0.131822229294E+01
 -0.131443588636E+01
 -0.121039327224E+01
 -0.117558759038E+01
 -0.117305478790E+01
 -0.116812071358E+01
 -0.579601433880E+00
 -0.104776259833E+01
 -0.108712171985E+01
 -0.116539986567E+01
 -0.108385584172E+01
 -0.735490943188E+00
 -0.991335569278E+00
 -0.879503692860E+00
 -0.104505730234E+01
 -0.965907215065E+00
 -0.913617282268E+00
 -0.119701119944E+01
 -0.124840571953E+01
 -0.122442337316E+01
 -0.120093187014E+01
 -0.123315401659E+01
 -0.119395231748E+01
 -0.128857215797E+01
 -0.130378310198E+01
 -0.135707299523E+01
 -0.126689760031E+01
 -0.128528501505E+01
 -0.131009124437E+01
 -0.122902316559E+01
 -0.978659711928E+00
 -0.883560015828E+00
 -0.883922322113E+00
 -0.245466644263E+00
 -0.118447153289E+01
 -0.848070663508E+00
  0.360812832568E+00
  0.387464778108E+00
 -0.107151406110E+01
 -0.109795335945E+01
 -0.110887684786E+01
 -0.111248999500E+01
 -0.132260663675E+01
 -0.131311922484E+01
 -0.109225926100E+01
 -0.106244353721E+01
 -0.109033727052E+01
 -0.104761173000E+01
 -0.876203179570E+00
 -0.792755812464E+00
 -0.749886305861E+00
 -0.671516051276E+00
 -0.710123376088E+00
 -0.775725699325E+00
 -0.981938689333E+00
 -0.672814957854E+00
 -0.740487576740E+00
 -0.593223185094E+00
 -0.727759767794E+00
 -0.868995723003E+00
 -0.632149980730E+00
 -0.650012950390E+00
 -0.804348397486E+00
 -0.251508121603E+00
 -0.436848796774E+00
 -0.323106145783E+00
 -0.563352833435E+00
 -0.811925287518E+00
 -0.645976601708E+00
 -0.644964316410E+00
 -0.905801430354E+00
 -0.925787529056E+00
 -0.922177268368E+00
 -0.102294011011E+01
 -0.118031773654E+01
 -0.105585247657E+01
  0.303086350801E+00
 -0.586043411834E+00
 -0.695071704458E+00
 -0.715491983467E+00
 -0.805205881254E+00
 -0.765677065944E+00
 -0.786932796034E+00
 -0.820594704631E+00
 -0.120379178653E+01
 -0.119490723207E+01
 -0.129981440101E+01
 -0.127498453384E+01
 -0.121898276708E+01
 -0.129319677146E+01
 -0.119999798559E+01
 -0.119896447284E+01
 -0.126497585959E+01
 -0.124743905714E+01
 -0.118022099963E+01
 -0.120816755631E+01
 -0.741040446640E+00
 -0.236423687493E-01
 -0.111242623497E-01
 -0.248318504585E+00
 -0.118252761884E+00
 -0.102945947553E+01
 -0.101015852600E+01
 -0.994091111146E+00
 -0.681673218777E-01
  0.478297513819E-01
  0.726354175217E-01
 -0.120287100961E+00
 -0.255568538539E+00
 -0.232383530968E+00
 -0.118168076046E+00
 -0.198768948769E+00
 -0.406735474811E+00
 -0.367132581337E+00
 -0.184905640766E+00
 -0.203685172779E+00
  0.190679393128E+00
  0.200258268834E+00
  0.925594746014E-01
  0.194765669210E+00
  0.290583723571E+00
  0.351707657773E+00
  0.131424649634E-01
  0.553706808491E-01
  0.530790886245E-02
  0.186876872174E+00
  0.237717024450E+00
  0.805488988741E+00
  0.800129627059E+00
  0.738799564280E+00
  0.770903733706E+00
  0.725093616173E+00
  0.497280968166E+00
  0.991537393674E+00
  0.997584314695E+00
  0.944349947321E+00
  0.939400898349E+00
  0.652353078691E+00
  0.724802963331E+00
  0.403994954626E+00
  0.585089646493E+00
  0.510854751258E+00
  0.539206950723E+00
  0.520508382624E+00
  0.514718026934E+00
  0.567154196671E+00
  0.532553885762E+00
  0.392964599095E+00
  0.338191194763E+00
 -0.209029512865E-01
 -0.429255824206E-01
 -0.368646427868E+00
 -0.974433710785E+00
 -0.345701840422E+00
  0.578372861801E+00
  0.448449914539E+00
  0.471808382337E+00
  0.428970119236E+00
 -0.259704828594E-02
 -0.119004615194E+01
 -0.119382181726E+01
 -0.121421257310E+01
 -0.102621939349E+01
 -0.101578439942E+01
 -0.119334924273E+01
 -0.122685262173E+01
 -0.847439938215E+00
 -0.922937932027E+00
 -0.940109956720E+00
 -0.129969184867E+01
 -0.122178857978E+01
 -0.125153878700E+01
 -0.841215185388E+00
 -0.918671568276E+00
 -0.529777359000E+00
 -0.120872606198E+01
 -0.113378742790E+01
 -0.119774771536E+01
 -0.121101930359E+01
 -0.122447806748E+01
 -0.125819449312E+01
 -0.119731515712E+01
 -0.122563107328E+01
 -0.116509682295E+01
 -0.960777586839E+00
 -0.923730156166E+00
 -0.925172089689E+00
 -0.107986473050E+01
 -0.116544297064E+01
 -0.966404042448E+00
 -0.969555586764E+00
 -0.106556976916E+01
 -0.108022222165E+01
 -0.120257045836E+01
 -0.106646370781E+01
 -0.106452371392E+01
 -0.110377304126E+01
 -0.113555179896E+01
 -0.119740769583E+01
 -0.866724398574E+00
 -0.912102769286E+00
 -0.990101160293E+00
 -0.100578530475E+01
 -0.988052833864E+00
 -0.113312442603E+01
 -0.940531155587E+00
 -0.855757830175E+00
 -0.929821338102E+00
 -0.979874001638E+00
 -0.965075089334E+00
 -0.100434278525E+01
 -0.854011780418E+00
 -0.100425667466E+01
 -0.962438260568E+00
 -0.770736182838E+00
 -0.841631012457E+00
 -0.851468793645E+00
 -0.593924689386E+00
 -0.750144002338E+00
 -0.425495765334E+00
 -0.431657738814E+00
  0.656489370277E+00
 -0.114256520795E+01
 -0.111954618312E+01
 -0.121764962336E+01
 -0.122657757863E+01
 -0.131879376988E+01
 -0.120508175436E+01
 -0.121306228911E+01
 -0.124353853842E+01
 -0.120349679351E+01
 -0.709988754091E+00
 -0.382259468895E+00
 -0.622296034126E+00
 -0.546405955347E+00
 -0.850393450914E+00
 -0.487722134217E+00
 -0.350896806491E+00
 -0.511232947422E+00
 -0.431265501324E+00
 -0.417183420368E+00
 -0.443851885625E+00
 -0.456118553991E+00
 -0.933689079210E+00
 -0.485026348726E+00
 -0.450309038692E+00
 -0.470074320988E+00
 -0.635479648744E+00
 -0.765786207732E+00
 -0.360730362750E+00
 -0.183123035444E+00
 -0.405810991820E+00
 -0.303007993321E+00
  0.258202125255E+00
  0.201254117673E+00
 -0.111969978605E+01
 -0.110986013849E+01
 -0.177466211736E-01
  0.120973503084E+00
  0.209746046637E+00
  0.196563613162E+00
  0.724684013571E+00
  0.811688656561E+00
  0.700670238192E+00
  0.830770205006E+00
  0.778065429877E+00
  0.713678034003E+00
  0.708985301949E+00
  0.770480174904E+00
  0.657069525627E+00
  0.615394252728E+00
  0.602609954308E+00
  0.674746512801E+00
  0.615189546569E+00
  0.645130359473E+00
  0.518519268220E+00
  0.524461130669E+00
 -0.350860194879E+00
 -0.647592162208E+00
 -0.227891510768E+00
 -0.256112592026E+00
  0.197130150871E+00
 -0.293855525843E-01
  0.332985842389E-01
  0.117913018474E-01
  0.629716107032E+00
  0.759779882849E+00
  0.491537429565E+00
  0.615488716158E+00
  0.603459661155E+00
  0.228059346969E-01
  0.193702661592E+00
  0.119511676440E+00
  0.125558281847E+00
  0.117633496177E+00
  0.164630919813E+00
  0.941929570012E-01
  0.710382762539E-01
  0.182114789808E+00
  0.781314988353E-01
 -0.912657407726E+00
 -0.563895721754E+00
 -0.610268997709E+00
 -0.890280142344E+00
 -0.987025031714E+00
 -0.582988954961E+00
 -0.669979736507E+00
  0.644094607634E-01
  0.420353851101E+00
 -0.117999661781E+01
 -0.119919865178E+01
 -0.121217332076E+01
  0.811900389189E+00
  0.839456195738E+00
  0.989557613692E+00
  0.636057495596E+00
  0.729582302841E+00
  0.702197509422E+00
  0.464798883969E+00
 -0.872914545403E-01
 -0.277956941000E-01
  0.218188135048E+00
  0.291913448549E+00
  0.294550429463E+00
 -0.440272498627E-01
 -0.206568369217E+00
  0.985262281968E+00
  0.986361816217E+00
  0.998385031369E+00
  0.999082389895E+00
 -0.520434436128E+00
  0.527127937329E+00
  0.205803948749E-02
 -0.249215433046E-01
  0.890790721517E+00
  0.871899459720E+00
  0.853016928536E+00
  0.971596716797E+00
  0.971059083707E+00
  0.380580538534E+00
  0.792536791862E+00
  0.715253974650E+00
  0.809824522554E+00
  0.853394444687E+00
  0.873659302872E+00
  0.716619101075E+00
  0.787804282966E+00
  0.802830944522E+00
  0.794733027434E+00
  0.703754037394E+00
  0.736391238187E+00
  0.753121525034E+00
  0.482794153242E+00
  0.157035129356E+00
  0.155804604195E+00
 -0.193279226842E+00
  0.678396334408E+00
  0.483325683687E+00
  0.487015846099E+00
  0.222192699988E+00
  0.315543228632E+00
  0.343270993362E+00
  0.427599509650E+00
  0.667765944436E+00
  0.769505218692E+00
  0.910764274374E+00
  0.906379088604E+00
  0.975281425511E+00
  0.830523173676E+00
  0.817915116359E+00
  0.896810141941E+00
  0.938711672021E+00
 -0.595676928062E+00
 -0.649204190903E+00
  0.128046362630E+00
 -0.114577031441E+01
 -0.110879411670E+01
 -0.117181190574E+01
 -0.113084779592E+01
 -0.902742954511E+00
 -0.903655165499E+00
 -0.957859486599E+00
 -0.892148915437E+00
 -0.944507556601E+00
 -0.118229051765E+01
 -0.119753293846E+01
 -0.119827418633E+01
 -0.120375194649E+01
 -0.131650260801E+01
 -0.122241323230E+01
 -0.123158277053E+01
  0.469927290757E-01
  0.152583771858E+00
 -0.326078257547E+00
 -0.312431324187E+00
 -0.141093886594E+00
 -0.731260033354E+00
 -0.704625073384E+00
 -0.370646461859E+00
 -0.120739292296E+01
 -0.119976935945E+01
 -0.141513718038E+01
 -0.570221818781E+00
 -0.115777402739E+01
 -0.116983029498E+01
 -0.114912798389E+01
 -0.128279866700E+01
 -0.122799144550E+01
 -0.122652264100E+01
 -0.124951231088E+01
 -0.941839086885E+00
 -0.735450214666E+00
 -0.815401916433E+00
 -0.873883953101E+00
 -0.119876667411E+01
 -0.128640520378E+01
 -0.125261421816E+01
 -0.126145167454E+01
 -0.120714798629E+01
 -0.960293535924E+00
 -0.900157559588E+00
 -0.101470940106E+01
 -0.998464642155E+00
 -0.133413516152E+01
 -0.132538767312E+01
 -0.128089467233E+01
 -0.127092591310E+01
 -0.122035828036E+01
 -0.121694082464E+01
 -0.124343791275E+01
 -0.111196633523E+01
 -0.544562047469E+00
 -0.521442257549E+00
 -0.528221477242E+00
 -0.551899836668E+00
 -0.537238319490E+00
 -0.550875741617E+00
 -0.754373340537E+00
 -0.687804691360E+00
 -0.207261630700E+00
 -0.205507056959E+00
 -0.563728536939E+00
 -0.399145532863E+00
 -0.468311868482E+00
 -0.541692927675E+00
 -0.456666955354E+00
 -0.112186260439E+01
 -0.111783833071E+01
 -0.551840639482E+00
 -0.523603261213E+00
 -0.759784492105E+00
 -0.790832755569E+00
 -0.807093710221E+00
 -0.788174174910E+00
 -0.104807033189E+01
 -0.883135068263E+00
 -0.859620377346E+00
 -0.929165218937E+00
 -0.925910996714E+00
 -0.928062147759E+00
 -0.856337034598E+00
 -0.917300702167E+00
 -0.650123825528E+00
 -0.656494886027E+00
 -0.395710833148E+00
 -0.433244797018E+00
 -0.473205224875E+00
 -0.576201274834E+00
 -0.493186960069E+00
 -0.507321491451E+00
 -0.508035147994E+00
 -0.129985826003E+01
 -0.120872299751E+01
 -0.126655281530E+01
 -0.120398869243E+01
 -0.119576741498E+01
 -0.123727770621E+01
 -0.120838402445E+01
 -0.124560773557E+01
 -0.120608120932E+01
 -0.124300230466E+01
 -0.123815608441E+01
 -0.121484567125E+01
 -0.127608325650E+01
 -0.114048371081E+01
 -0.117456213093E+01
 -0.121321492449E+01
 -0.108229607336E+01
 -0.102408119499E+01
 -0.908800924906E+00
 -0.101692349298E+01
 -0.105820192717E+01
 -0.127213551701E+01
 -0.130502707867E+01
 -0.146811096642E+01
 -0.126740119559E+01
 -0.123661674363E+01
 -0.123877093480E+01
 -0.110909536722E+01
 -0.110160044407E+01
 -0.121824475345E+01
 -0.118689619341E+01
 -0.121005055170E+01
  0.484374156441E+00
  0.328995948026E+00
  0.108970050620E+00
  0.546905245066E-01
  0.451204139639E+00
  0.419688762213E+00
  0.859870386643E-01
  0.179803942032E+00
  0.403672337819E+00
  0.354822772146E+00
  0.328683670996E+00
  0.274118881984E+00
  0.265356686826E+00
  0.311979681114E+00
  0.331197992532E+00
  0.401164413967E+00
  0.394208562461E+00
 -0.206166451746E+00
 -0.214257674397E+00
 -0.171899772523E+00
 -0.382903442968E+00
 -0.351680751688E+00
 -0.579164285770E+00
 -0.788034991957E+00
 -0.761976900913E+00
 -0.437476660434E+00
 -0.469916430917E+00
 -0.576908619630E+00
 -0.484570177129E+00
 -0.479037847487E+00
 -0.630462538354E+00
 -0.730714712941E+00
 -0.711164251152E+00
 -0.529204218852E+00
 -0.644061526713E+00
 -0.650552688214E+00
 -0.599472198465E+00
 -0.114892270730E+01
 -0.116685930559E+01
 -0.116548729444E+01
 -0.125007223528E+01
 -0.124555836617E+01
 -0.127238426963E+01
 -0.117910894147E+01
 -0.130978125214E+01
 -0.135112945407E+01
 -0.117862157871E+01
 -0.119159807267E+01
 -0.120527738786E+01
 -0.121272602457E+01
 -0.926306815744E+00
 -0.102002598319E+01
 -0.667849378724E+00
 -0.671210047799E+00
 -0.645987763134E+00
 -0.681591821343E+00
 -0.109999849238E+01
 -0.111300350464E+01
 -0.129066374185E+01
 -0.117677232687E+01
 -0.732860925208E+00
 -0.783311826727E+00
 -0.722594612543E+00
 -0.116541820469E+01
 -0.106214604658E+01
 -0.115601849567E+01
 -0.105553633114E+01
 -0.114345008868E+01
 -0.114708139420E+01
 -0.111573665198E+01
 -0.783330765569E+00
 -0.862867714389E+00
 -0.126192078535E+01
 -0.125568736547E+01
 -0.125567796601E+01
 -0.125518965808E+01
 -0.130133660930E+01
 -0.131629401402E+01
 -0.125392200693E+01
 -0.126127778316E+01
 -0.130875342296E+01
 -0.125988337792E+01
 -0.125553612385E+01
 -0.124351624787E+01
 -0.126056891272E+01
 -0.148985547903E+01
 -0.145273466431E+01
 -0.130061904420E+01
 -0.131220180808E+01
 -0.125853838876E+01
 -0.127467699447E+01
 -0.126163771105E+01
 -0.124720640879E+01
 -0.124760757773E+01
 -0.146290038593E+01
 -0.827033992732E+00
 -0.474787930253E+00
 -0.477082433455E+00
 -0.833794246867E+00
 -0.914891297879E+00
 -0.833761168326E+00
 -0.835089372721E+00
 -0.834223025240E+00
 -0.955779473785E+00
 -0.251900198752E+00
 -0.197144681950E+00
 -0.408737467332E+00
 -0.441014868329E+00
 -0.443398593988E+00
 -0.229437228430E+00
 -0.109265547756E+01
 -0.103756033057E+01
 -0.107506597022E+01
 -0.104918398311E+01
 -0.102193521058E+01
 -0.129287104564E+01
 -0.120805064144E+01
 -0.121641611939E+01
 -0.120391317208E+01
 -0.119332021330E+01
 -0.125112595895E+01
 -0.372906447883E+00
 -0.275990112370E+00
 -0.209563610792E+00
  0.201452263194E+00
  0.224904221017E+00
 -0.168962449461E+00
  0.141704658947E-01
  0.264034357709E-01
 -0.110439238982E+00
 -0.225425809043E+00
 -0.224228998622E+00
  0.722699566423E-01
  0.175982336905E+00
  0.237143763091E+00
  0.577187648945E+00
  0.513111577831E+00
  0.486544532446E+00
  0.512655067306E+00
  0.567599393495E+00
  0.489002159984E+00
  0.374708514792E+00
  0.259551598078E+00
  0.467262871659E+00
  0.483367138605E+00
  0.262440915703E+00
  0.315608796769E+00
 -0.132317356526E+01
 -0.126273696893E+01
 -0.129917001410E+01
 -0.751370477018E+00
 -0.998602097627E+00
 -0.985534856544E+00
 -0.102810728062E+01
 -0.102108065744E+01
 -0.882426990847E+00
 -0.849250446015E+00
 -0.895766687806E+00
 -0.109074521078E+01
 -0.982612466180E+00
 -0.832620924704E+00
 -0.866978886317E+00
 -0.967396136882E+00
 -0.974714860982E+00
 -0.944645161377E+00
 -0.908097345728E+00
 -0.630876208649E+00
 -0.118831774385E+01
 -0.128794161114E+01
 -0.130987592675E+01
 -0.124130076140E+01
 -0.127078448627E+01
 -0.129848168301E+01
 -0.939190755553E+00
 -0.694898700173E+00
 -0.773959631848E+00
 -0.539386563307E+00
 -0.557205827608E+00
 -0.881603367682E+00
 -0.647454424150E+00
 -0.639447885768E+00
 -0.121402809481E+01
 -0.116072145045E+01
 -0.114901586416E+01
 -0.123030780385E+01
 -0.115049072528E+01
  0.195985338280E+00
 -0.552937933897E+00
 -0.512801231368E+00
 -0.525090387777E+00
 -0.516927711092E+00
 -0.610171559649E+00
 -0.581385834556E+00
 -0.730076396307E+00
 -0.786538285727E+00
 -0.386523299107E+00
 -0.678340147775E+00
 -0.572371028939E+00
 -0.916540691947E+00
 -0.916319429725E+00
 -0.868430983279E+00
 -0.847852984786E+00
 -0.104928339244E+01
 -0.961016693043E+00
 -0.101371079415E+01
 -0.102956243433E+01
 -0.103750420076E+01
 -0.101088984571E+01
 -0.917255500164E+00
 -0.917330690433E+00
 -0.122473816096E+01
 -0.138974586005E+01
 -0.130643121067E+01
 -0.129729561730E+01
 -0.125088766995E+01
 -0.129355275685E+01
 -0.127177122613E+01
 -0.130648017476E+01
 -0.122081417896E+01
 -0.122792812321E+01
 -0.142487981965E+01
 -0.135066227946E+01
 -0.135163077051E+01
 -0.746394241084E+00
 -0.790789817234E+00
 -0.126978390597E+01
  0.115331409464E+00
 -0.364851352048E-01
  0.621705185610E-01
 -0.786769064525E+00
 -0.985320099448E+00
 -0.938309471670E+00
 -0.102398503488E+01
 -0.102836410061E+01
 -0.101512871406E+01
 -0.811185967034E+00
 -0.829069567866E+00
 -0.669600221397E+00
 -0.782919916313E+00
 -0.801425714215E+00
 -0.957725532752E+00
 -0.962853534978E+00
 -0.802368310831E+00
 -0.905401179062E+00
 -0.820117967924E+00
 -0.555720336987E+00
 -0.418422583600E+00
 -0.566740522465E+00
 -0.267923679425E+00
 -0.270017185889E+00
 -0.101033306622E+00
 -0.101909879158E+00
  0.497784966454E-01
 -0.777742109292E-01
 -0.901846200331E-01
 -0.227513267788E+00
 -0.217187013287E+00
 -0.215878687167E+00
 -0.202063836708E+00
 -0.161839864797E-01
  0.408876060500E-01
  0.112281039408E-01
  0.155555618445E+00
  0.807319012990E-01
  0.501680269359E+00
  0.282894628845E+00
  0.305787620079E+00
  0.353485309492E+00
  0.470945933126E+00
  0.296325706020E+00
  0.299559392330E+00
  0.323296931576E+00
  0.377001089697E+00
 -0.185071267725E+00
  0.200268757740E-01
 -0.312590049330E+00
 -0.229128942852E+00
  0.634556539423E+00
  0.656014591075E+00
 -0.586623915079E-01
 -0.209748536058E-02
  0.116756340201E+00
  0.160146351465E+00
  0.450553285030E+00
  0.229033595347E+00
  0.248405356839E+00
  0.331747150274E+00
  0.246212302892E+00
  0.399610419121E+00
  0.623210544655E+00
  0.713378800405E+00
  0.640498130849E+00
  0.615130228117E+00
  0.522484092223E+00
  0.446887312135E+00