# vtk DataFile Version 3.0
MachLine results file. Generated by MachLine, USU AeroLab (c) 2022.
ASCII
DATASET POLYDATA
POINTS                2000 float
 -0.386964962170E+00 -0.301948069476E+00  0.871255118431E+00
 -0.503604360169E+00  0.787765442723E+00 -0.354694594928E+00
 -0.907350570639E+00 -0.411210015223E+00  0.872998587769E-01
 -0.525199813325E+00  0.676347461326E+00  0.516448707659E+00
 -0.253447021839E-01  0.166591929119E+00 -0.985700144681E+00
  0.876552339061E-01 -0.881551578113E+00  0.463878621080E+00
 -0.380728721619E+00  0.909265005574E+00 -0.168174879732E+00
 -0.941566907522E-01 -0.672827555670E+00  0.733783072793E+00
  0.687146412832E+00 -0.524906952449E+00 -0.502297221376E+00
  0.926100738970E+00  0.220521694735E+00  0.306116976710E+00
 -0.136010467804E+00  0.175762337247E+00  0.974991668402E+00
 -0.915204386268E+00 -0.389443381726E+00 -0.103608801682E+00
 -0.773260988981E-01  0.962913185370E+00 -0.258493465817E+00
  0.740844246921E+00 -0.327483363138E+00  0.586433669456E+00
  0.678050852605E+00 -0.214998694707E+00  0.702867414635E+00
 -0.910285385428E+00 -0.366978737741E+00 -0.191591030905E+00
 -0.596558775215E+00 -0.126454478560E+00 -0.792544568189E+00
 -0.268536421846E-01 -0.823215040607E+00 -0.567094241567E+00
  0.409643444087E+00  0.832698603745E+00  0.372565811687E+00
  0.739661428115E+00 -0.531734563263E+00  0.412503728456E+00
 -0.588133876412E+00  0.189240891504E+00  0.786311915463E+00
 -0.188102692811E+00 -0.947432700996E+00 -0.258821664551E+00
  0.927379612650E+00 -0.245292856409E+00 -0.282486227338E+00
 -0.447486522769E+00 -0.327957997405E+00  0.831985194507E+00
  0.621335913484E+00 -0.864892291377E-01 -0.778756249322E+00
  0.525141703629E+00 -0.766092095331E+00 -0.370579401184E+00
 -0.107045045938E+00  0.978162687124E+00  0.178154751993E+00
  0.908690696800E+00 -0.417361105831E+00  0.953545427764E-02
  0.970214619117E+00  0.233911837091E+00  0.629987723790E-01
  0.679437426573E+00 -0.488953494751E+00  0.547073361939E+00
  0.979125569895E+00 -0.196819810939E+00  0.507452500279E-01
 -0.878466748382E+00  0.468562916975E+00 -0.935145166405E-01
  0.490037408271E+00 -0.717161635859E-01 -0.868746298050E+00
  0.113424237852E+00 -0.970458464731E+00  0.212944383585E+00
 -0.359315916734E+00 -0.644084033803E+00 -0.675313134317E+00
 -0.429111428204E+00 -0.306745511550E+00  0.849570817136E+00
  0.790117026274E+00  0.318294107115E+00 -0.523835800769E+00
 -0.987069728158E+00 -0.308045097365E-02 -0.160261856272E+00
 -0.996143400868E+00  0.227091614553E-02 -0.877107054309E-01
 -0.811242430061E+00  0.559787048724E+00 -0.168891029216E+00
 -0.675309862034E+00 -0.120260937436E+00 -0.727663313056E+00
 -0.443562784384E+00 -0.242104956432E-01 -0.895916239506E+00
  0.524556182403E+00 -0.803636999645E+00 -0.281084301064E+00
  0.776939751159E+00  0.568695310878E+00 -0.270093069987E+00
  0.860930028117E+00 -0.247774433175E+00 -0.444305432053E+00
 -0.202769141004E+00 -0.204513089584E-01 -0.979012982252E+00
 -0.679465338737E+00 -0.733122603204E+00 -0.292933802527E-01
  0.211407953995E+00 -0.844326592742E+00 -0.492360926329E+00
  0.735914723048E+00 -0.394087141592E+00 -0.550567748086E+00
  0.254481478445E+00  0.882682028161E+00 -0.395109623131E+00
  0.884544943318E+00 -0.464628668604E+00 -0.412364348851E-01
 -0.185461977319E+00 -0.579782889021E+00 -0.793382415086E+00
  0.772870838307E+00  0.629009547624E+00 -0.837714527311E-01
 -0.845653433047E+00 -0.505227069552E+00 -0.172092647628E+00
 -0.713247001340E+00  0.124645757141E+00 -0.689740639883E+00
  0.396472930489E+00  0.766865102668E+00  0.504704992743E+00
 -0.855998858452E+00 -0.187173712381E+00 -0.481904508926E+00
 -0.876203028500E+00  0.481017185469E+00 -0.298449347717E-01
  0.969789642416E+00 -0.145304541737E+00  0.195945501641E+00
 -0.818169119934E+00  0.562585448252E+00  0.118730386175E+00
 -0.667420364078E+00 -0.459511136146E+00  0.586003048945E+00
 -0.749439293117E+00  0.168368324414E+00  0.640306843057E+00
  0.148046751212E+00 -0.946151759350E+00 -0.287887144092E+00
 -0.960046110642E+00 -0.198490530729E-01  0.279137028236E+00
  0.321842938350E+00  0.943598009711E+00  0.777169164533E-01
 -0.570971482967E+00 -0.572221424075E+00  0.588688548783E+00
 -0.572737407371E+00 -0.800545634458E+00 -0.176347807894E+00
  0.449196665080E+00  0.205269936228E+00 -0.869532408460E+00
  0.133754116430E-01 -0.966762505966E-02  0.999863808420E+00
 -0.635395630472E+00 -0.710865865291E+00  0.301566102773E+00
 -0.222600157265E+00  0.643421116951E+00 -0.732433229890E+00
 -0.471826578000E+00 -0.752629809581E+00  0.459269038824E+00
 -0.454255638222E+00 -0.374663417067E+00 -0.808256852155E+00
 -0.658546706449E+00  0.582395793883E+00  0.476583019728E+00
  0.613992238528E+00  0.225696604119E+00 -0.756356115806E+00
 -0.838517384600E+00  0.502525487107E+00  0.210610376126E+00
  0.204825079614E+00  0.932051714467E+00 -0.298875037968E+00
  0.984242977560E+00  0.130814890447E+00  0.118967329802E+00
 -0.663391500261E+00  0.741614366837E+00  0.995984351413E-01
 -0.151965897866E+00 -0.411159565029E+00 -0.898807086071E+00
 -0.178407483786E+00  0.657922893922E+00  0.731647616946E+00
 -0.419260662449E+00  0.755968161141E+00 -0.502725209496E+00
 -0.822083178808E+00 -0.559840372928E+00  0.103720798108E+00
  0.730069789497E+00  0.671171654827E+00  0.128556260918E+00
  0.191934237431E+00  0.944092663269E+00  0.268049047124E+00
  0.896944587686E+00 -0.418352719123E+00  0.143078331774E+00
  0.673000929343E+00  0.707877189709E+00 -0.214428620739E+00
 -0.681102139046E+00  0.342137493202E+00  0.647334389580E+00
  0.189188439287E+00  0.920986070741E+00 -0.340576558120E+00
 -0.865538580968E+00 -0.200557409278E+00  0.458933209128E+00
  0.663303909656E+00 -0.687374514495E+00  0.295878691794E+00
 -0.837086947003E+00  0.280372886841E+00  0.469762160546E+00
 -0.717400402640E+00 -0.695715855350E+00  0.362782428761E-01
 -0.487706727009E+00  0.310475065689E+00  0.815933442148E+00
  0.677840056972E-01  0.938132595244E+00 -0.339577034431E+00
 -0.219958528152E+00  0.946502984121E+00 -0.236115113756E+00
 -0.646269439647E+00 -0.295907829684E+00  0.703401995810E+00
  0.380727883129E+00  0.287574303065E+00 -0.878832918833E+00
 -0.314095745556E+00 -0.858884940528E-01 -0.945498296780E+00
  0.613055691901E+00 -0.787089010589E+00 -0.682173587781E-01
 -0.297564151862E+00 -0.754951291388E+00 -0.584383541143E+00
 -0.763782340766E+00 -0.574207718219E+00  0.294825426772E+00
 -0.193513826651E+00  0.920623310123E+00 -0.339124047736E+00
 -0.952019923333E+00  0.984797894115E-02  0.305877561924E+00
 -0.847365039340E+00 -0.188322542238E-01 -0.530676771967E+00
 -0.359445446152E+00  0.208453593726E+00  0.909585658695E+00
 -0.983725606624E+00 -0.106287937362E+00  0.144868234073E+00
  0.986677469521E+00 -0.499314859546E-01  0.154836745798E+00
 -0.905271911419E-01  0.115788302995E+00 -0.989139978240E+00
 -0.210432091779E+00 -0.831772313402E+00  0.513685850893E+00
  0.325785680125E+00  0.783488734551E+00 -0.529158854652E+00
  0.166204950759E+00 -0.572824282141E+00  0.802650768475E+00
 -0.427948294061E+00  0.885474200101E+00 -0.181095827025E+00
 -0.844290122200E+00  0.245811930545E+00 -0.476183456619E+00
  0.590203102165E+00  0.806508129966E+00 -0.347121663638E-01
 -0.219473460763E+00  0.973976831798E+00 -0.565732369660E-01
 -0.989938221932E+00 -0.131269854732E+00  0.528255808914E-01
 -0.419622023096E+00  0.832544845281E-01 -0.903872805509E+00
  0.997231839269E-01 -0.658623700867E+00  0.745835174314E+00
  0.348064102670E+00  0.494166799408E+00 -0.796649580930E+00
  0.963007419017E+00  0.259354089744E+00 -0.731585063503E-01
  0.168247712050E+00 -0.312985434898E-01 -0.985247739691E+00
 -0.187118563046E+00 -0.394677750338E-01  0.981544160034E+00
  0.873299738611E+00 -0.124515479860E-01  0.487024152887E+00
  0.603758616430E+00 -0.582023078557E+00  0.544724397391E+00
 -0.139319536961E+00  0.434324572086E+00 -0.889916980793E+00
 -0.351078090963E+00 -0.180259090254E+00 -0.918831232831E+00
  0.843439602135E+00 -0.181816877950E+00 -0.505521770493E+00
  0.570792405759E+00 -0.784916664090E+00 -0.241043274044E+00
  0.368042686955E+00  0.488891409304E+00  0.790904400347E+00
 -0.483977435417E+00 -0.244329313651E+00 -0.840279137251E+00
  0.916872729978E+00 -0.611760261316E-02  0.399132774852E+00
 -0.986485627213E+00  0.342969333416E-01  0.160218062854E+00
 -0.224681431191E+00  0.970804846018E+00 -0.840012227606E-01
 -0.805178336706E+00 -0.319799588505E-03  0.593032666746E+00
 -0.626832378687E+00  0.779134661722E+00  0.550889573153E-02
 -0.149857938287E+00 -0.951978965578E+00  0.266980612461E+00
 -0.441586329249E+00 -0.836647042902E+00 -0.324072892146E+00
 -0.723258284872E+00 -0.794365943127E-01  0.685993644903E+00
 -0.774499806567E+00 -0.628260505773E+00  0.737481288833E-01
  0.986423787265E+00  0.156653809359E+00 -0.492716544384E-01
 -0.484882725914E+00 -0.300789182713E+00 -0.821227501776E+00
 -0.232814706829E+00  0.494820628620E+00  0.837227482693E+00
  0.814768020463E+00 -0.514267484257E+00 -0.267734994850E+00
 -0.623913348120E+00 -0.976339059642E-01 -0.775370720651E+00
  0.861208533843E+00  0.339742500423E+00 -0.378014410629E+00
  0.447946219560E+00 -0.668349346229E+00 -0.593846222332E+00
 -0.337623975502E+00  0.459595776515E+00  0.821451017028E+00
  0.554974259003E-02 -0.647939362927E+00 -0.761671702459E+00
  0.917624015555E+00 -0.383996295016E+00 -0.102532977580E+00
 -0.666176029428E+00  0.587029222785E+00  0.460006727574E+00
 -0.297977997518E+00 -0.367647305601E+00  0.880933920155E+00
  0.498288571564E+00  0.237404191124E+00 -0.833875140225E+00
  0.113166526128E-01 -0.354991253261E-01  0.999305631664E+00
  0.919108353598E+00 -0.378255616263E-02  0.393986708679E+00
 -0.179340272478E+00 -0.478662286345E+00  0.859487918646E+00
  0.135159164381E+00 -0.126622408154E+00  0.982699733406E+00
  0.285336444272E+00 -0.870807039710E+00  0.400347615405E+00
  0.372085535004E+00 -0.924295039986E+00  0.850354849376E-01
 -0.393975904537E+00 -0.900928917218E+00  0.181961734343E+00
 -0.219303208266E+00 -0.956536604760E+00 -0.192207769348E+00
[...]
CELL_DATA                3996
SCALARS C_p_inc float 1
LOOKUP_TABLE default
  0.995295423799E+00
  0.270968517571E-01
 -0.111851881072E+01
 -0.100343102492E+01
 -0.973612114946E+00
 -0.107023831042E+01
  0.913874990102E+00
  0.981363754043E+00
 -0.100330121423E+01
 -0.100868192795E+01
  0.999604363856E+00
  0.984120980873E+00
  0.902071577499E+00
  0.751614471551E+00
  0.982684409966E+00
  0.995426559012E+00
  0.987770709492E+00
  0.893897901787E+00
 -0.108774130582E+01
 -0.123671135040E+01
 -0.957639615407E+00
 -0.973426661943E+00
 -0.866866148794E+00
 -0.908193967046E+00
 -0.936631099217E+00
 -0.106518080544E+01
 -0.102656751938E+01
 -0.101608042850E+01
  0.994547487419E+00
  0.982826757875E+00
  0.948337696771E+00
  0.895015326638E+00
  0.394241954639E+00
  0.419623191994E+00
  0.573166745849E+00
  0.166113478937E+00
 -0.476271396344E+00
  0.159092319220E+00
  0.191582513402E+00
  0.169281864455E+00
  0.988453722481E+00
 -0.213728469811E+00
  0.433667378282E+00
  0.310246337160E+00
  0.726397291633E+00
  0.800007255380E+00
  0.632224319826E+00
  0.983471901759E+00
  0.973842723285E+00
 -0.748521187035E+00
 -0.100345977017E+01
 -0.107308898149E+01
  0.962309434061E+00
  0.991008678882E+00
  0.990113804492E+00
 -0.538177026012E+00
 -0.538858160148E+00
 -0.113094768235E+01
 -0.675355155257E+00
 -0.640549515167E+00
 -0.107366825365E+01
 -0.929070516789E+00
 -0.798466138240E+00
 -0.967806411356E+00
 -0.953568365180E+00
 -0.840099161687E+00
 -0.836683464842E+00
 -0.134827613082E+01
 -0.105741008062E+01
  0.241163238925E+00
  0.126699037769E-01
  0.436868287134E-01
 -0.522540448518E+00
  0.287023356481E-01
 -0.275831724325E+00
  0.154891223772E+00
  0.106120885752E+00
  0.263244563718E+00
 -0.523087556007E+00
 -0.332581058650E+00
 -0.255451496969E+00
  0.905259077763E+00
  0.857777767929E+00
  0.978434358225E+00
  0.979227217180E+00
  0.502313072835E+00
  0.594029388912E+00
  0.938529093125E+00
  0.583260376707E+00
  0.726557303486E+00
  0.739449675859E+00
  0.822086585160E+00
  0.275779474966E+00
  0.359983103948E+00
 -0.273831704464E+00
 -0.396628513204E+00
 -0.416336694194E+00
 -0.707418223393E+00
 -0.731874482033E+00
 -0.813860722458E+00
 -0.780057437440E+00
 -0.109592408533E+01
 -0.107486396241E+01
 -0.113524197124E+01
 -0.966592553830E+00
 -0.880335418374E+00
  0.326413432997E+00
  0.516108704427E+00
 -0.476539963599E+00
 -0.278419351982E+00
 -0.533641298295E+00
 -0.999037238373E+00
 -0.135148667688E+01
 -0.126840151059E+01
 -0.127468628623E+01
 -0.110858532108E+01
 -0.113337988564E+01
 -0.130189243983E+01
 -0.837179490547E+00
 -0.105192740674E+01
 -0.926686642387E+00
 -0.630102905863E+00
 -0.826947876252E+00
 -0.738625700604E+00
 -0.669626261978E+00
 -0.829303266468E+00
 -0.934063743911E+00
 -0.860712601678E+00
 -0.772613574523E+00
 -0.714980840885E+00
 -0.119558009450E+01
 -0.118508383152E+01
  0.891126132856E+00
  0.907458369676E+00
  0.981838282213E+00
  0.956052752309E+00
  0.936158551948E+00
  0.923986080144E+00
  0.567292678539E+00
  0.553989821848E+00
  0.703330051248E+00
  0.735528784322E+00
  0.734768130103E+00
  0.290158028674E+00
  0.172440786148E+00
 -0.369023856313E+00
 -0.573159325454E+00
 -0.472298683776E+00
 -0.144821453251E+01
 -0.124102637861E+01
 -0.140499972644E+01
 -0.124272577958E+01
 -0.127555011674E+01
 -0.577546555500E+00
  0.486462702054E-01
  0.484281422347E-01
 -0.125810606068E+00
 -0.190297326160E+00
 -0.697564205116E-01
 -0.634926547079E-01
 -0.243035069640E+00
  0.378915295887E+00
  0.430232853056E+00
  0.501929007035E+00
  0.413532793508E+00
  0.579711938681E+00
  0.619650452628E+00
  0.219100411955E+00
  0.270813793195E+00
  0.986723592791E+00
  0.985800523037E+00
  0.913412064016E+00
 -0.123461090547E+01
 -0.123377766706E+01
 -0.129452010140E+01
 -0.102870184422E+01
 -0.989827795967E+00
 -0.818972310858E+00
 -0.661401624651E+00
 -0.684704155748E+00
 -0.908392214188E+00
 -0.780244208394E+00
 -0.810944726194E+00
 -0.781062068041E+00
 -0.105831060974E+01
 -0.116108658767E+01
 -0.111640275393E+01
 -0.111879908607E+01
 -0.727616839812E+00
 -0.670241500824E+00
 -0.723045144398E+00
 -0.458049642883E+00
 -0.745670353985E+00
 -0.124497785916E+01
 -0.113504560007E+01
 -0.115753613252E+01
 -0.115974029478E+01
  0.958946654113E+00
  0.922949102705E+00
  0.923208501851E+00
  0.959752440862E+00
  0.977736447868E+00
  0.837192796307E+00
  0.952499472050E+00
  0.929689514395E+00
  0.197527553531E+00
  0.124385628429E+00
  0.292293658218E+00
  0.353146650977E+00
  0.850752338329E+00
  0.923340147821E+00
  0.950074813906E+00
  0.418918245746E+00
  0.297891320100E+00
  0.240527760096E+00
  0.498321475825E+00
  0.486697154785E+00
  0.868906327289E+00
  0.841693833190E+00
  0.841869280149E+00
  0.750254968790E+00
  0.771405625002E+00
 -0.429965521917E-01
 -0.216086653115E+00
 -0.849764789363E-01
 -0.123338241499E+01
 -0.104807859318E+01
 -0.798244604616E+00
 -0.967313182455E+00
 -0.625003802703E+00
 -0.969957354348E+00
 -0.867277718137E+00
 -0.973720190079E+00
 -0.103395844979E+01
 -0.106555543346E+01
 -0.852624013465E+00
 -0.100672376107E+01
 -0.109212029033E+01
 -0.109145020697E+01
 -0.128222983761E+01
 -0.106853221086E+01
 -0.113671426249E+01
 -0.113154273142E+01
 -0.112863945806E+01
 -0.238013838014E+00
  0.393256663168E-01
 -0.124389861462E+01
 -0.128316788554E+01
 -0.106905958108E+01
 -0.696361283127E+00
 -0.693575055318E+00
 -0.116649377910E+01
 -0.852135099997E+00
 -0.874463605781E+00
 -0.736335672967E+00
 -0.545536772071E+00
 -0.127798532411E+01
 -0.114329518570E+01
 -0.128361817338E+01
 -0.977908294501E+00
 -0.106471512188E+01
 -0.108237503130E+01
 -0.754156862403E+00
 -0.785753596836E+00
 -0.109462551193E+01
 -0.126990790661E+01
 -0.117895758103E+01
 -0.103167035827E+01
 -0.528399496298E+00
 -0.127508455913E+01
 -0.134554704836E+01
 -0.123258032018E+01
 -0.129569103875E+01
 -0.132100332287E+01
 -0.116669081767E+01
 -0.123194517503E+01
 -0.813352867803E+00
 -0.962651022214E+00
 -0.106537716416E+01
 -0.116187392726E-02
  0.811185948121E-01
 -0.106826514539E+00
 -0.341751482449E+00
  0.270476917529E+00
  0.986335544757E+00
  0.777198053316E+00
  0.140888079774E+00
  0.166797306476E+00
  0.320818616474E+00
  0.210324036689E+00
  0.357173024672E+00
  0.479179297751E+00
  0.332939349436E+00
  0.267133272756E+00
  0.167773179546E+00
 -0.256375077987E+00
 -0.158451867390E+00
 -0.721831011808E-01
 -0.318865680805E+00
 -0.297659564518E+00
 -0.219179387638E+00
 -0.351700059124E+00
 -0.274578731479E+00
 -0.299966563932E+00
 -0.343713729953E+00
 -0.167601401899E+00
 -0.127897194031E+00
 -0.651092780753E-01
 -0.265632632169E+00
 -0.243183487408E+00
 -0.340646600225E+00
 -0.430314137248E+00
  0.539193456676E+00
  0.541770612185E+00
 -0.991727900623E-01
  0.307611660897E+00
 -0.457775277310E-01
 -0.215307425104E+00
  0.250039666344E+00
 -0.240921892524E+00
  0.928173001928E-01
  0.291447943373E+00
  0.104095857925E+00
 -0.566868291887E-02
  0.116624143049E-01
 -0.180132539931E+00
  0.108020688026E+00
 -0.407741582112E+00
 -0.301879691176E+00
 -0.230870000142E+00
 -0.175474892673E+00
 -0.111394222218E-01
  0.458456598081E-02
  0.816798667721E+00
  0.801741626271E+00
 -0.494743854286E+00
 -0.491435961303E+00
  0.174957458622E+00
  0.366496948520E+00
  0.232973543835E+00
  0.412450194899E-01
  0.922047108038E+00
  0.917360704031E+00
  0.438728765634E+00
  0.342457093744E+00
  0.377989476339E+00
  0.574363674927E+00
  0.500188234564E+00
  0.579180068261E+00
  0.751674168725E+00
  0.783169419094E+00
  0.819004258741E+00
  0.861884167270E+00
  0.868744782758E+00
  0.737247428208E+00
  0.922745935576E+00
  0.886448679805E+00
  0.913688294908E+00
  0.657037116022E+00
  0.716760061060E+00
  0.727487086127E+00
  0.743600726324E+00
  0.790441112428E+00
 -0.386162841856E+00
 -0.206680544814E+00
 -0.241373445566E+00
 -0.863183666624E-02
 -0.329189630886E+00
 -0.244035379701E+00
 -0.214788206599E+00
 -0.910820068499E+00
 -0.109346173153E+01
 -0.122431185542E+01
 -0.126419352648E+01
 -0.113460627446E+01
 -0.123294277015E+01
 -0.122901189866E+01
 -0.886787139032E+00
 -0.518999142217E+00
 -0.515166732621E+00
 -0.545105174337E+00
 -0.510374743226E+00
 -0.786034912280E+00
 -0.119427705321E+01
 -0.123248001826E+01
 -0.121057302212E+01
 -0.139601729056E+01
 -0.125626156379E+01
 -0.131978019952E+01
 -0.112252267233E+01
 -0.111868903677E+01
  0.441267951786E+00
  0.505213168763E+00
 -0.633897794277E+00
 -0.812172534545E+00
 -0.353629360554E+00
 -0.239063438256E+00
  0.116228024692E-01
 -0.342008209775E-01
  0.208741490534E+00
  0.253240753463E+00
  0.279390326198E+00
  0.203581144989E+00
 -0.484187134297E-02
 -0.378081614496E-02
  0.143698546406E+00
 -0.342707771085E+00
 -0.734195535073E+00
 -0.631391661173E+00
 -0.608692505368E+00
 -0.583353536695E+00
 -0.123619244557E+01
 -0.121031826437E+01
 -0.126800030018E+01
 -0.127946231870E+01
 -0.131651788298E+01
 -0.127679555723E+01
 -0.118306542643E+01
 -0.121246409968E+01
 -0.123156049187E+01
 -0.122983960604E+01
 -0.123273793971E+01
 -0.122960454898E+01
 -0.129542645802E+01
 -0.129178915560E+01
 -0.123076664794E+01
 -0.120249448997E+01
 -0.120986726598E+01
 -0.125178465595E+01
 -0.778369735605E+00
 -0.869079599468E+00
 -0.114595101570E+01
 -0.115685489219E+01
 -0.117435982216E+01
 -0.564515244444E+00
 -0.430029713789E+00
 -0.774464308658E+00
 -0.788205740950E+00
 -0.616270501476E+00
 -0.444132052872E+00
 -0.125203518642E+01
 -0.125061199631E+01
 -0.125671180904E+01
 -0.135419567823E+01
  0.949190053577E+00
  0.947563114897E+00
  0.980590563650E+00
  0.971091756437E+00
  0.952869455133E+00
  0.952769866609E+00
  0.699322825835E-01
 -0.871869143063E-01
  0.296668484166E+00
  0.310623259831E+00
  0.311859409817E+00
  0.304124247310E+00
 -0.507774098237E+00
 -0.627931320656E+00
 -0.659766909568E+00
 -0.739359595038E+00
 -0.274172639083E+00
 -0.140049667606E-01
 -0.105759556350E+00
 -0.215896348375E+00
 -0.450025174443E+00
 -0.420589913820E+00
 -0.185717775122E+00
 -0.262284113084E+00
 -0.761295827994E+00
 -0.938326264455E+00
 -0.898694852988E+00
 -0.951505662862E+00
 -0.932714454853E+00
 -0.119623263256E+01
 -0.241973857318E+00
 -0.398586203951E+00
 -0.551991206050E+00
 -0.124063450586E+01
 -0.129419220503E+01
 -0.949501429552E+00
 -0.849802455934E+00
 -0.930002374558E+00
 -0.535324927683E+00
 -0.592839984127E+00
 -0.761249697416E+00
 -0.844236509337E+00
 -0.865918168738E+00
 -0.872562126249E+00
 -0.858391315852E+00
 -0.482908960808E+00
 -0.609494913056E+00
 -0.554372561858E+00
 -0.560923331045E+00
 -0.893587170942E+00
 -0.758216894085E+00
 -0.110329362364E+01
 -0.886836184961E+00
 -0.824907739118E+00
 -0.809319416793E+00
  0.464352970972E+00
  0.471223513754E+00
  0.521860616242E+00
  0.538845599592E+00
  0.636791993153E+00
  0.485985115548E+00
  0.509026620800E+00
  0.646448696612E+00
  0.556897130093E+00
 -0.111981279307E+00
  0.239841972073E-01
 -0.216123871896E+00
 -0.171060977887E+00
 -0.272203619346E+00
 -0.128702366139E+00
  0.823566971646E+00
  0.888351366392E+00
  0.910927247051E+00
  0.848064327647E+00
  0.877413451369E+00
 -0.128491704168E+01
 -0.120118138746E+01
 -0.123453940514E+01
 -0.138178090094E+01
 -0.143823938976E+01
 -0.122485295374E+01
 -0.121034903935E+01
 -0.632906190853E+00
 -0.704877787368E+00
 -0.767812925718E+00
 -0.464433459051E+00
 -0.463683111716E+00
 -0.765623974933E+00
 -0.509239299343E+00
 -0.475788678838E+00
 -0.980247754920E+00
 -0.118754373900E+01
 -0.120360958258E+01
 -0.128336905959E+01
 -0.128889474925E+01
 -0.127967490503E+01
 -0.129164967339E+01
 -0.129666869727E+01
 -0.834288542445E+00
 -0.712671188584E+00
 -0.755164486972E+00
 -0.881422574683E+00
 -0.873709122528E+00
 -0.875895299452E+00
 -0.135622196555E+01
 -0.113619983053E+01
 -0.114292480385E+01
 -0.126223192376E+01
 -0.133310385219E+01
 -0.114363714209E+01
 -0.114082722591E+01
 -0.118424947025E+01
 -0.129984695717E+01
 -0.134840154176E+01
 -0.115331811069E+01
 -0.115332756386E+01
 -0.111938846254E+01
 -0.111940213206E+01
 -0.772553048497E+00
 -0.109579387932E+01
 -0.123922299245E+01
 -0.105056698453E+01
 -0.970387002229E+00
 -0.488642664610E+00
 -0.779155023774E+00
 -0.777356136404E+00
 -0.541568544074E+00
 -0.613802836246E+00
  0.774620357315E+00
  0.836300928706E+00
  0.858709633079E+00
  0.633978759497E+00
  0.766038846710E+00
  0.657518280834E+00
  0.530389626522E+00
  0.500152220656E+00
  0.475463145880E+00
  0.336060962027E+00
  0.923591193927E+00
  0.855737184019E+00
  0.866916157454E+00
  0.909841287765E+00
  0.873837550937E+00
  0.910498386967E+00
  0.954242374113E+00
  0.882783701392E+00
  0.810263089544E+00
  0.808209292970E+00
  0.772153165170E+00
  0.652273506273E+00
  0.202737118816E+00
  0.399346087527E+00
  0.393681713288E+00
  0.142976052136E+00
  0.121646217565E+00
  0.102902583597E+00
  0.244157962176E+00
  0.296170688266E+00
  0.875378276035E+00
  0.931463128509E+00
  0.566854575307E-01
 -0.603733129805E-01
  0.765192152256E+00
  0.804235218298E+00
  0.777616168578E+00
  0.807733693276E+00
  0.492400783094E+00
  0.640043088963E+00
  0.506083094285E+00
  0.480888288042E+00
  0.541654528023E+00
  0.504522124803E+00
  0.575083971921E+00
  0.705131017341E+00
  0.865749241146E+00
  0.910649566036E+00
  0.919159383763E+00
  0.269853785812E+00
 -0.120267812267E+01
 -0.119224515390E+01
 -0.122685784225E+01
 -0.118259837938E+01
 -0.114772311684E+01
 -0.645167097806E+00
 -0.709870316404E+00
 -0.113491740426E+01
 -0.128234925170E+01
 -0.128314508361E+01
 -0.118787849212E+01
 -0.118911286088E+01
 -0.115548910170E+01
 -0.901577998071E+00
 -0.889704541276E+00
 -0.144302164803E+01
 -0.126493811371E+01
 -0.132100702115E+01
 -0.958109069744E+00
 -0.119197015057E+01
 -0.121197729309E+01
 -0.692029284752E+00
 -0.761332454233E+00
 -0.106108443632E+01
 -0.100612198567E+01
 -0.106310741202E+01
 -0.645437725908E+00
 -0.929519837313E+00
 -0.944155154248E+00
 -0.989283980945E+00
 -0.100499477770E+01
 -0.100419456856E+01
 -0.123185239659E+01
 -0.132475439196E+01
 -0.100836416201E+01
 -0.994577044320E+00
 -0.100091334536E+01
 -0.122457469523E+01
 -0.106365967535E+01
 -0.982372238435E+00
 -0.128489739756E+01
 -0.127853661600E+01
 -0.272325157162E+00
 -0.282615642562E+00
 -0.275248186187E+00
 -0.445879593174E+00
 -0.390584304774E+00
 -0.422431907659E+00
 -0.544959853972E+00
  0.298736237977E-01
  0.116106197463E+00
  0.235490774618E+00
 -0.108479678166E+01
 -0.116294244750E+01
 -0.602914050769E+00
 -0.625941075992E+00
 -0.546036503331E+00
 -0.876075089820E+00
 -0.678180921517E+00
 -0.369000593421E+00
 -0.539853934729E+00
 -0.639360630431E+00
 -0.656440275234E+00
 -0.743174134034E+00
 -0.932302093835E+00
 -0.965928842497E+00
 -0.102726359985E+01
 -0.107311428593E+01
 -0.908835674843E+00
 -0.852714861978E+00
 -0.104958896486E+01
 -0.104905453393E+01
 -0.696576438217E+00
 -0.824661018067E+00
 -0.878765635538E+00
 -0.819662325790E+00
 -0.531440714172E+00
 -0.523873745328E+00
 -0.534410293223E+00
 -0.474580994649E+00
 -0.746829219528E+00
 -0.935298221479E+00
 -0.893447954460E+00
 -0.995907143036E+00
 -0.779369025593E+00
 -0.778755557233E+00
 -0.784170153108E+00
 -0.983817882377E+00
 -0.103981322622E+01
 -0.102426585316E+01
 -0.126452719926E+01
 -0.734005794031E+00
 -0.785353774801E+00
 -0.110673694500E+01
 -0.102357127255E+01
 -0.110052372329E+01
 -0.109414718037E+01
 -0.102498497763E+01
 -0.995642455899E+00
 -0.988155712524E+00
 -0.110312016382E+01
 -0.965325987582E+00
 -0.128129074150E+01
 -0.126457400571E+01
 -0.118410282726E+01
 -0.455080460196E+00
 -0.489253461453E+00
 -0.451474810226E+00
 -0.361198036743E+00
 -0.680321639406E+00
  0.123834374453E+00
 -0.416237089723E+00
 -0.278691408263E+00
 -0.392826336097E+00
 -0.656623034865E+00
 -0.591626421843E+00
 -0.118114713587E+01
 -0.100177948938E+01
 -0.123754287797E+01
 -0.125614409647E+01
 -0.116378871146E+01
 -0.124428929749E+01
 -0.119332437980E+01
 -0.119120520779E+01
 -0.106177470735E+01
 -0.751532357125E+00
 -0.662145285608E+00
 -0.606679689715E+00
 -0.585221282039E+00
 -0.502026010906E+00
 -0.500678939367E+00
 -0.896285557395E+00
 -0.983081877697E+00
 -0.978121269268E+00
 -0.831787542170E+00
 -0.831243880924E+00
 -0.426393413169E+00
 -0.354444218104E+00
 -0.364070827646E+00
 -0.186955758295E-01
  0.520106516678E-02
  0.659093348469E-01
  0.669163679740E+00
  0.757036897448E+00
  0.578014898763E+00
  0.644187758112E+00
  0.662445535905E+00
  0.442629290607E-01
  0.177293979551E+00
  0.437663389506E+00
  0.530502326361E+00
  0.583616844282E+00
  0.375484945331E+00
  0.416473185357E+00
  0.428790045509E+00
  0.116084800577E+00
  0.122774516248E+00
  0.114315861332E+00
 -0.113732923305E+00
 -0.266274856962E+00
 -0.302280953564E-01
 -0.329042851253E+00
  0.362023199549E+00
  0.297104652083E+00
  0.116730412493E+00
  0.979853386355E-01
  0.349118172420E+00
  0.934271983360E-01
  0.167096866987E+00
  0.166488949404E+00
  0.183256645871E+00
 -0.754920688531E-02
  0.292391173861E-01
 -0.995899699355E-01
 -0.627250619903E-01
  0.171595032463E-01
  0.948799293959E-01
  0.443069514141E+00
  0.578745272336E+00
  0.256726828716E+00
  0.442886267931E+00
 -0.812858079790E-01
 -0.280648350572E+00
 -0.338392776972E+00
  0.228522197493E-01
 -0.566817307134E-01
 -0.418215205833E-01
  0.120635164373E+00
  0.171325359593E+00
  0.144763024132E+00
  0.398335257257E+00
  0.299124306779E+00
  0.253698227506E+00
  0.578885919967E+00
  0.761041664245E+00
  0.735264372467E+00
  0.659240327773E+00
  0.659969152183E+00
  0.736774258308E+00
  0.469296519510E+00
  0.508159999693E+00
  0.506761550542E+00
  0.581944462427E+00
  0.686021780733E+00
 -0.564335170790E+00
 -0.529622578772E+00
 -0.476019527633E+00
  0.879249807536E-03
  0.113567228845E+00
 -0.192353782741E+00
 -0.174538198770E+00
  0.595637833276E-01
  0.255746920276E+00
  0.435077257648E+00
  0.312262404977E+00
  0.376385568394E+00
  0.544627432740E+00
  0.562612672081E+00
  0.560433942922E+00
  0.555931729380E+00
  0.485902400246E-01
  0.979453534336E-01
  0.141967425216E+00
  0.239956882893E+00
  0.226428374103E+00
 -0.639347408721E+00
 -0.633870951128E+00
  0.797095993101E+00
  0.787459878229E+00
  0.893618657466E+00
  0.902247698810E+00
  0.900397580221E+00
  0.101929015019E+00
  0.217247291625E+00
  0.223804725310E+00
 -0.165705605152E-01
 -0.403579682983E-01
  0.600656764407E+00
  0.566702486482E+00
  0.443842801439E+00
  0.496605147370E+00
  0.561232107404E+00
  0.133998591609E+00
  0.581595573685E+00
  0.741105899034E+00
  0.776854184113E+00
  0.900388132505E+00
  0.886565631529E+00
  0.849944461782E+00
  0.843880435322E+00
  0.874210137904E+00
  0.936670096432E+00
  0.989266761561E+00
  0.991875977943E+00
  0.978285157123E+00
  0.775219740311E+00
  0.741914036739E+00
  0.676256902791E+00
  0.635850231314E+00
 -0.129366957488E+00
  0.826794973111E+00
  0.844271243470E+00
  0.749871962859E+00
  0.786853068705E+00
 -0.459048602352E+00
 -0.524201376754E+00
 -0.561389458125E+00
 -0.555817906805E+00
 -0.477650381929E+00
 -0.523915961593E+00
 -0.440087987426E+00
 -0.452478957453E+00
 -0.209459066115E+00
  0.138038613045E+00
  0.418297076395E-02
  0.127014983957E+00
  0.897624542754E-01
 -0.425030782715E+00
 -0.122363882288E+00
 -0.247127744166E+00
 -0.181734267976E+00
 -0.983516176598E+00
 -0.101396464329E+01
 -0.522365361469E+00
 -0.680336772170E+00
 -0.112576160823E+01
 -0.100829623251E+01
 -0.100638284351E+01
 -0.106800489629E+01
 -0.111032483350E+01
 -0.126965778276E+01
 -0.127318104390E+01
 -0.121312673487E+01
 -0.120450442151E+01
 -0.121514915034E+01
 -0.125976668335E+01
 -0.123250918407E+01
 -0.146571413466E+01
 -0.130940729514E+01
 -0.149116281841E+01
 -0.128469694692E+01
 -0.128338555341E+01
 -0.135914393802E+01
 -0.119994414304E+01
 -0.121592306502E+01
 -0.123514115255E+01
 -0.119974281388E+01
 -0.999713350504E+00
 -0.440852103569E+00
 -0.496678984272E+00
 -0.711033267511E+00
 -0.121600755818E+01
 -0.124849070154E+01
 -0.124589551100E+01
 -0.124551188277E+01
 -0.134762634032E+01
 -0.134136083346E+01
 -0.124302495921E+01
 -0.115810181515E+01
 -0.114119595497E+01
 -0.108890705081E+01
 -0.135123427505E+01
 -0.132773327290E+01
 -0.114145164572E+01
 -0.115096704082E+01
 -0.142951846411E+01