# vtk DataFile Version 3.0
TriPan results file. Generated by TriPan, USU AeroLab (c) 2021.
ASCII
DATASET POLYDATA
POINTS                1848 float
  0.000000000000E+00  0.000000000000E+00  0.000000000000E+00
  0.147665724158E+00  0.000000000000E+00 -0.234920635819E+00
  0.147665724158E+00  0.000000000000E+00  0.234920635819E+00
  0.339639574289E+00  0.339639574289E+00  0.000000000000E+00
  0.473465979099E+00  0.000000000000E+00 -0.436293870211E+00
  0.473465979099E+00  0.000000000000E+00  0.436293870211E+00
  0.487305283546E+00  0.339639574289E+00 -0.234920650721E+00
  0.487305283546E+00  0.339639574289E+00  0.234920650721E+00
  0.735364913940E+00  0.735364913940E+00  0.000000000000E+00
  0.813105583191E+00  0.339639574289E+00 -0.436293929815E+00
  0.813105583191E+00  0.339639574289E+00  0.436293929815E+00
  0.883030653000E+00  0.735364913940E+00 -0.234920680523E+00
  0.883030653000E+00  0.735364913940E+00  0.234920680523E+00
  0.944064557552E+00  0.000000000000E+00 -0.604293465614E+00
  0.944064557552E+00  0.000000000000E+00  0.604293465614E+00
  0.119528055191E+01  0.119528055191E+01  0.000000000000E+00
  0.120883107185E+01  0.735364913940E+00 -0.436293989420E+00
  0.120883107185E+01  0.735364913940E+00  0.436293989420E+00
  0.128370416164E+01  0.339639574289E+00 -0.604293525219E+00
  0.128370416164E+01  0.339639574289E+00  0.604293525219E+00
  0.134294629097E+01  0.119528055191E+01 -0.234920725226E+00
  0.134294629097E+01  0.119528055191E+01  0.234920725226E+00
  0.157641971111E+01  0.000000000000E+00 -0.760520398617E+00
  0.157641971111E+01  0.000000000000E+00  0.760520398617E+00
  0.166874670982E+01  0.119528055191E+01 -0.436294049025E+00
  0.166874670982E+01  0.119528055191E+01  0.436294049025E+00
  0.167942965031E+01  0.735364913940E+00 -0.604293584824E+00
  0.167942965031E+01  0.735364913940E+00  0.604293584824E+00
  0.172824025154E+01  0.172824025154E+01  0.000000000000E+00
  0.187590610981E+01  0.172824025154E+01 -0.234920769930E+00
  0.187590610981E+01  0.172824025154E+01  0.234920769930E+00
  0.191605937481E+01  0.339639574289E+00 -0.760520458221E+00
  0.191605937481E+01  0.339639574289E+00  0.760520458221E+00
  0.213934540749E+01  0.119528055191E+01 -0.604293704033E+00
  0.213934540749E+01  0.119528055191E+01  0.604293704033E+00
  0.220170640945E+01  0.172824025154E+01 -0.436294138432E+00
  0.220170640945E+01  0.172824025154E+01  0.436294138432E+00
  0.231178498268E+01  0.735364913940E+00 -0.760520577431E+00
  0.231178498268E+01  0.735364913940E+00  0.760520577431E+00
  0.234375929832E+01  0.234375929832E+01  0.000000000000E+00
  0.239635515213E+01  0.000000000000E+00 -0.902061045170E+00
  0.239635515213E+01  0.000000000000E+00  0.902061045170E+00
  0.249142503738E+01  0.234375929832E+01 -0.234920814633E+00
  0.249142503738E+01  0.234375929832E+01  0.234920814633E+00
  0.267230534554E+01  0.172824025154E+01 -0.604293823242E+00
  0.267230534554E+01  0.172824025154E+01  0.604293823242E+00
  0.273599505424E+01  0.339639574289E+00 -0.902061164379E+00
  0.273599505424E+01  0.339639574289E+00  0.902061164379E+00
  0.277170085907E+01  0.119528055191E+01 -0.760520696640E+00
  0.277170085907E+01  0.119528055191E+01  0.760520696640E+00
  0.281722569466E+01  0.234375929832E+01 -0.436294227839E+00
  0.281722569466E+01  0.234375929832E+01  0.436294227839E+00
  0.305185556412E+01  0.305185556412E+01  0.000000000000E+00
  0.313172078133E+01  0.735364913940E+00 -0.902061283588E+00
  0.313172078133E+01  0.735364913940E+00  0.902061283588E+00
  0.319952154160E+01  0.305185556412E+01 -0.234920859337E+00
  0.319952154160E+01  0.305185556412E+01  0.234920859337E+00
  0.328782463074E+01  0.234375929832E+01 -0.604293942451E+00
  0.328782463074E+01  0.234375929832E+01  0.604293942451E+00
  0.330466079712E+01  0.172824025154E+01 -0.760520815849E+00
  0.330466079712E+01  0.172824025154E+01  0.760520815849E+00
  0.342464399338E+01  0.000000000000E+00 -0.102348911762E+01
  0.342464399338E+01  0.000000000000E+00  0.102348911762E+01
  0.352532196045E+01  0.305185556412E+01 -0.436294317245E+00
  0.352532196045E+01  0.305185556412E+01  0.436294317245E+00
  0.359163665771E+01  0.119528055191E+01 -0.902061402798E+00
  0.359163665771E+01  0.119528055191E+01  0.902061402798E+00
  0.376428389549E+01  0.339639574289E+00 -0.102348923683E+01
  0.376428389549E+01  0.339639574289E+00  0.102348923683E+01
  0.386280250549E+01  0.386280250549E+01  0.000000000000E+00
  0.392018008232E+01  0.234375929832E+01 -0.760520994663E+00
  0.392018008232E+01  0.234375929832E+01  0.760520994663E+00
  0.399592113495E+01  0.305185556412E+01 -0.604294061661E+00
  0.399592113495E+01  0.305185556412E+01  0.604294061661E+00
  0.401046848297E+01  0.386280250549E+01 -0.234920918941E+00
  0.401046848297E+01  0.386280250549E+01  0.234920918941E+00
  0.412459707260E+01  0.172824025154E+01 -0.902061522007E+00
  0.412459707260E+01  0.172824025154E+01  0.902061522007E+00
  0.416000986099E+01  0.735364913940E+00 -0.102348935604E+01
  0.416000986099E+01  0.735364913940E+00  0.102348935604E+01
  0.433626890182E+01  0.386280250549E+01 -0.436294436455E+00
  0.433626890182E+01  0.386280250549E+01  0.436294436455E+00
  0.461992597580E+01  0.119528055191E+01 -0.102348947525E+01
  0.461992597580E+01  0.119528055191E+01  0.102348947525E+01
  0.462827682495E+01  0.305185556412E+01 -0.760521173477E+00
  0.462827682495E+01  0.305185556412E+01  0.760521173477E+00
  0.466872262955E+01  0.000000000000E+00 -0.111146688461E+01
  0.466872262955E+01  0.000000000000E+00  0.111146688461E+01
  0.474011659622E+01  0.234375929832E+01 -0.902061700821E+00
  0.474011659622E+01  0.234375929832E+01  0.902061700821E+00
  0.478677463531E+01  0.478677463531E+01  0.000000000000E+00
  0.480686807632E+01  0.386280250549E+01 -0.604294240475E+00
  0.480686807632E+01  0.386280250549E+01  0.604294240475E+00
  0.493444061279E+01  0.478677463531E+01 -0.234920993447E+00
  0.493444061279E+01  0.478677463531E+01  0.234920993447E+00
  0.500836277008E+01  0.339639574289E+00 -0.111146700382E+01
  0.500836277008E+01  0.339639574289E+00  0.111146700382E+01
  0.515288639069E+01  0.172824025154E+01 -0.102348971367E+01
  0.515288639069E+01  0.172824025154E+01  0.102348971367E+01
  0.526024150848E+01  0.478677463531E+01 -0.436294555664E+00
  0.526024150848E+01  0.478677463531E+01  0.436294555664E+00
  0.540408849716E+01  0.735364913940E+00 -0.111146712303E+01
  0.540408849716E+01  0.735364913940E+00  0.111146712303E+01
  0.543922424316E+01  0.386280250549E+01 -0.760521352291E+00
  0.543922424316E+01  0.386280250549E+01  0.760521352291E+00
  0.544821310043E+01  0.305185556412E+01 -0.902061939240E+00
  0.544821310043E+01  0.305185556412E+01  0.902061939240E+00
  0.573084068298E+01  0.478677463531E+01 -0.604294419289E+00
  0.573084068298E+01  0.478677463531E+01  0.604294419289E+00
  0.576840591431E+01  0.234375929832E+01 -0.102348983288E+01
  0.576840591431E+01  0.234375929832E+01  0.102348983288E+01
  0.583337688446E+01  0.583337688446E+01  0.000000000000E+00
  0.586400508881E+01  0.119528055191E+01 -0.111146736145E+01
  0.586400508881E+01  0.119528055191E+01  0.111146736145E+01
  0.598104286194E+01  0.583337688446E+01 -0.234921067953E+00
  0.598104286194E+01  0.583337688446E+01  0.234921067953E+00
  0.611307668686E+01  0.000000000000E+00 -0.114008128643E+01
  0.611307668686E+01  0.000000000000E+00  0.114008128643E+01
  0.625916051865E+01  0.386280250549E+01 -0.902062177658E+00
  0.625916051865E+01  0.386280250549E+01  0.902062177658E+00
  0.630684375763E+01  0.583337688446E+01 -0.436294704676E+00
  0.630684375763E+01  0.583337688446E+01  0.436294704676E+00
  0.636319684982E+01  0.478677463531E+01 -0.760521590710E+00
  0.636319684982E+01  0.478677463531E+01  0.760521590710E+00
  0.639696550369E+01  0.172824025154E+01 -0.111146748066E+01
  0.639696550369E+01  0.172824025154E+01  0.111146748066E+01
  0.645271682739E+01  0.339639574289E+00 -0.114008140564E+01
  0.645271682739E+01  0.339639574289E+00  0.114008140564E+01
  0.647650289536E+01  0.305185556412E+01 -0.102349007130E+01
  0.647650289536E+01  0.305185556412E+01  0.102349007130E+01
  0.677744340897E+01  0.583337688446E+01 -0.604294598103E+00
  0.677744340897E+01  0.583337688446E+01  0.604294598103E+00
  0.684844303131E+01  0.735364913940E+00 -0.114008152485E+01
  0.684844303131E+01  0.735364913940E+00  0.114008152485E+01
  0.701104879379E+01  0.701104879379E+01  0.000000000000E+00
  0.701248550415E+01  0.234375929832E+01 -0.111146771908E+01
  0.701248550415E+01  0.234375929832E+01  0.111146771908E+01
  0.715871477127E+01  0.701104879379E+01 -0.234921157360E+00
  0.715871477127E+01  0.701104879379E+01  0.234921157360E+00
  0.718313360214E+01  0.478677463531E+01 -0.902062416077E+00
  0.718313360214E+01  0.478677463531E+01  0.902062416077E+00
  0.728745079041E+01  0.386280250549E+01 -0.102349042892E+01
  0.728745079041E+01  0.386280250549E+01  0.102349042892E+01
  0.730835962296E+01  0.119528055191E+01 -0.114008176327E+01
  0.730835962296E+01  0.119528055191E+01  0.114008176327E+01
  0.740979957581E+01  0.583337688446E+01 -0.760521829128E+00
  0.740979957581E+01  0.583337688446E+01  0.760521829128E+00
  0.748451566696E+01  0.701104879379E+01 -0.436294883490E+00
  0.748451566696E+01  0.701104879379E+01  0.436294883490E+00
  0.771254587173E+01  0.000000000000E+00 -0.108925735950E+01
  0.771254587173E+01  0.000000000000E+00  0.108925735950E+01
  0.772058296204E+01  0.305185556412E+01 -0.111146795750E+01
  0.772058296204E+01  0.305185556412E+01  0.111146795750E+01
  0.784132003784E+01  0.172824025154E+01 -0.114008188248E+01
  0.784132003784E+01  0.172824025154E+01  0.114008188248E+01
  0.795511531830E+01  0.701104879379E+01 -0.604294836521E+00
  0.795511531830E+01  0.701104879379E+01  0.604294836521E+00
  0.805218601227E+01  0.339639574289E+00 -0.108925747871E+01
  0.805218601227E+01  0.339639574289E+00  0.108925747871E+01
  0.821142387390E+01  0.478677463531E+01 -0.102349066734E+01
  0.821142387390E+01  0.478677463531E+01  0.102349066734E+01
[...]
CELL_DATA                3576
SCALARS sigma float 1
LOOKUP_TABLE default
  0.748505605564E-01
  0.748512867778E-01
  0.746807045666E-01
  0.746801826452E-01
  0.744542792581E-01
  0.744542938847E-01
  0.741551545324E-01
  0.741551769336E-01
  0.735686845714E-01
  0.735684784979E-01
  0.733365768733E-01
  0.733366455374E-01
  0.737488345687E-01
  0.737488576321E-01
  0.759721937399E-01
  0.759721937399E-01
  0.819373959008E-01
  0.819373959008E-01
  0.952558395115E-01
  0.952558733114E-01
  0.116602094368E+00
  0.116602113218E+00
  0.149115188838E+00
  0.149115188838E+00
  0.199926435112E+00
  0.199926435112E+00
  0.248833277005E+00
  0.248833265078E+00
  0.292614315312E+00
  0.292614315312E+00
  0.340313065182E+00
  0.340313081176E+00
  0.399815235292E+00
  0.399815221584E+00
  0.474591742039E+00
  0.474591742041E+00
  0.593633499928E+00
  0.593633506479E+00
  0.708860019460E+00
  0.708860005481E+00
  0.562221142848E+00
  0.562221132329E+00
  0.321804440151E+00
  0.321804418832E+00
  0.152298484781E+00
  0.152298484777E+00
  0.589813690407E-01
  0.589813894994E-01
 -0.104247946831E-01
 -0.104248163521E-01
 -0.634923469398E-01
 -0.634923469408E-01
 -0.110412940400E+00
 -0.110412926543E+00
 -0.160970239260E+00
 -0.160970239260E+00
 -0.211559114291E+00
 -0.211559114291E+00
 -0.242943807574E+00
 -0.242943823501E+00
 -0.263142990085E+00
 -0.263143027059E+00
 -0.275585064809E+00
 -0.275585064809E+00
 -0.281117981623E+00
 -0.281117981623E+00
 -0.283173927559E+00
 -0.283173952112E+00
 -0.283554734693E+00
 -0.283554806124E+00
 -0.283340588424E+00
 -0.283340378863E+00
 -0.282798445252E+00
 -0.282798467573E+00
 -0.282521964223E+00
 -0.282521978549E+00
 -0.282313128572E+00
 -0.282312624429E+00
 -0.282154896184E+00
 -0.282155590041E+00
  0.748505484697E-01
  0.748505615512E-01
  0.746807005070E-01
  0.746807102469E-01
  0.744538597540E-01
  0.744542761913E-01
  0.741554637301E-01
  0.741551556527E-01
  0.735684225659E-01
  0.735686817107E-01
  0.733367392561E-01
  0.733365734390E-01
  0.737488328086E-01
  0.737488328079E-01
  0.759721516691E-01
  0.759721914964E-01
  0.819373936873E-01
  0.819373936873E-01
  0.952558858854E-01
  0.952558391122E-01
  0.116602113340E+00
  0.116602075830E+00
  0.149115188634E+00
  0.149115207791E+00
  0.199926434874E+00
  0.199926428590E+00
  0.248833264195E+00
  0.248833276244E+00
  0.292614311194E+00
  0.292614288866E+00
  0.340313081297E+00
  0.340313062979E+00
  0.399815219821E+00
  0.399815248996E+00
  0.474591724763E+00
  0.474591724759E+00
  0.593633474634E+00
  0.593633453987E+00
  0.708859997202E+00
  0.708860002211E+00
  0.562221130399E+00
  0.562221136281E+00
  0.321804366028E+00
  0.321804422887E+00
  0.152298479230E+00
  0.152298479237E+00
  0.589814108324E-01
  0.589813687806E-01
 -0.104248188447E-01
 -0.104247946868E-01
 -0.634923735245E-01
 -0.634923460461E-01
 -0.110412926205E+00
 -0.110412940008E+00
 -0.160970245617E+00
 -0.160970239069E+00
 -0.211559096153E+00
 -0.211559114000E+00
 -0.242943840084E+00
 -0.242943807830E+00
 -0.263143025956E+00
 -0.263142975856E+00
 -0.275585057365E+00
 -0.275585057365E+00
 -0.281117973321E+00
 -0.281118015640E+00
 -0.283173945351E+00
 -0.283173945351E+00
 -0.283554792845E+00
 -0.283554623144E+00
 -0.283340367845E+00
 -0.283340627899E+00
 -0.282798471846E+00
 -0.282798168062E+00
 -0.282521966912E+00
 -0.282522371519E+00
 -0.282312645903E+00
 -0.282312655253E+00
 -0.282155593790E+00
 -0.282155606231E+00
  0.748505265233E-01
  0.748505461606E-01
  0.746806933911E-01
  0.746806982381E-01
  0.744542485214E-01
  0.744538608842E-01
  0.741551342021E-01
  0.741554653180E-01
  0.735686657912E-01
  0.735684235965E-01
  0.733365181613E-01
  0.733367406417E-01
  0.737488650816E-01
  0.737488314728E-01
  0.759722605134E-01
  0.759721530596E-01
  0.819373591752E-01
  0.819373952011E-01
  0.952558872547E-01
  0.952558872541E-01
  0.116602076857E+00
  0.116602114205E+00
  0.149115208162E+00
  0.149115123446E+00
  0.199926429364E+00
  0.199926429364E+00
  0.248833279421E+00
  0.248833341040E+00
  0.292614287223E+00
  0.292614264559E+00
  0.340313062174E+00
  0.340313062176E+00
  0.399815255470E+00
  0.399815226061E+00
  0.474591745074E+00
  0.474591762094E+00
  0.593633474962E+00
  0.593633483067E+00
  0.708860020293E+00
  0.708860010511E+00
  0.562221161999E+00
  0.562221144740E+00
  0.321804397302E+00
  0.321804377398E+00
  0.152298512810E+00
  0.152298485749E+00
  0.589813705830E-01
  0.589814117873E-01
 -0.104248188169E-01
 -0.104248188201E-01
 -0.634924005775E-01
 -0.634923731681E-01
 -0.110412857863E+00
 -0.110412927615E+00
 -0.160970246240E+00
 -0.160970246240E+00
 -0.211559176133E+00
 -0.211559096679E+00
 -0.242943809633E+00
 -0.242943842224E+00
 -0.263142979637E+00
 -0.263142979636E+00
 -0.275585062456E+00
 -0.275585100389E+00
 -0.281118020785E+00
 -0.281117908717E+00
 -0.283173940221E+00
 -0.283173905704E+00
 -0.283554628501E+00
 -0.283554853040E+00
 -0.283340631869E+00
 -0.283340391556E+00
 -0.282798174117E+00
 -0.282798497729E+00
 -0.282522375807E+00
 -0.282522001756E+00
 -0.282312646676E+00
 -0.282312651305E+00
 -0.282155597527E+00
 -0.282155616131E+00
  0.748505145673E-01
  0.748505276677E-01
  0.746806651634E-01
  0.746806944677E-01
  0.744542348136E-01
  0.744542495221E-01
  0.741550977802E-01
  0.741551315449E-01
  0.735686490702E-01
  0.735686666329E-01
  0.733367133894E-01
  0.733365185287E-01
  0.737487875918E-01
  0.737488679205E-01
  0.759722216172E-01
  0.759722617483E-01
  0.819373206356E-01
  0.819373568034E-01
  0.952559344503E-01
  0.952558872450E-01
  0.116602113059E+00
  0.116602076996E+00
  0.149115123757E+00
  0.149115208284E+00
  0.199926428255E+00
  0.199926428255E+00
  0.248833340045E+00
  0.248833253502E+00
  0.292614267614E+00
  0.292614364770E+00
  0.340313052324E+00
  0.340312976094E+00
  0.399815218842E+00
  0.399815218842E+00
  0.474591753233E+00
  0.474591695785E+00
  0.593633497743E+00
  0.593633569472E+00
  0.708859959916E+00
  0.708859983599E+00
  0.562221059536E+00
  0.562221121871E+00
  0.321804567359E+00
  0.321804405258E+00
  0.152298421450E+00
  0.152298509967E+00
  0.589813695180E-01
  0.589813695180E-01
 -0.104249150428E-01
 -0.104248185151E-01
 -0.634922854483E-01
 -0.634924012404E-01
 -0.110412954412E+00
 -0.110412857422E+00
 -0.160970245347E+00
 -0.160970245347E+00
 -0.211559096852E+00
 -0.211559176575E+00
 -0.242943839106E+00
 -0.242943807244E+00
 -0.263142979609E+00
 -0.263142930697E+00
 -0.275585092412E+00
 -0.275585129868E+00
 -0.281117913287E+00
 -0.281117954481E+00
 -0.283173916604E+00
 -0.283173997949E+00
 -0.283554854460E+00
 -0.283554660117E+00
 -0.283340394798E+00
 -0.283340412057E+00
 -0.282798487596E+00
 -0.282798520347E+00
 -0.282522005553E+00
 -0.282522019664E+00
 -0.282312655375E+00
 -0.282312683239E+00
 -0.282155620445E+00
 -0.282155632815E+00
  0.748504885838E-01
  0.748505147992E-01
  0.746806458516E-01
  0.746806653558E-01
  0.744542055369E-01
  0.744542349815E-01
  0.741550980560E-01
  0.741550980575E-01
  0.735686140765E-01
  0.735686492982E-01
  0.733366852367E-01
  0.733367134592E-01
  0.737487609254E-01
  0.737487842933E-01
  0.759721788216E-01
  0.759722190631E-01
  0.819374150025E-01
  0.819373209965E-01
  0.952559004776E-01
  0.952559349193E-01
  0.116602077378E+00
  0.116602078524E+00
  0.149115207363E+00
  0.149115207363E+00
  0.199926428825E+00
  0.199926422507E+00
  0.248833252201E+00
  0.248833314639E+00
  0.292614366013E+00
  0.292614316933E+00
  0.340312976667E+00
  0.340312937977E+00
  0.399815226031E+00
  0.399815288433E+00
  0.474591680614E+00
  0.474591712584E+00
  0.593633561194E+00
  0.593633445114E+00
  0.708860054430E+00
  0.708860027111E+00
  0.562221225201E+00
  0.562221115715E+00
  0.321804316398E+00
  0.321804562872E+00
  0.152298464605E+00
  0.152298416582E+00
  0.589814543947E-01
  0.589813705785E-01
 -0.104249633066E-01
 -0.104249150604E-01
 -0.634923435034E-01
 -0.634922857182E-01
 -0.110412884446E+00
 -0.110412953834E+00
 -0.160970252327E+00
 -0.160970245806E+00
 -0.211559095545E+00
 -0.211559095545E+00
 -0.242943838880E+00
 -0.242943839903E+00
 -0.263142931993E+00
 -0.263142967220E+00
 -0.275585131082E+00
 -0.275585035093E+00
 -0.281117945030E+00
 -0.281117985782E+00
 -0.283173985283E+00
 -0.283174008664E+00
 -0.283554660387E+00
 -0.283554688252E+00
 -0.283340412935E+00
 -0.283340447268E+00
 -0.282798521404E+00
 -0.282798521406E+00
 -0.282522020301E+00
 -0.282522048410E+00
 -0.282312683967E+00
 -0.282312702443E+00
 -0.282155633689E+00
 -0.282155658373E+00
  0.748511853030E-01
  0.748504893917E-01
  0.746806222215E-01
  0.746806466521E-01
  0.744537858325E-01
  0.744542041069E-01
  0.741553748199E-01
  0.741550988139E-01
  0.735685970438E-01
  0.735686146740E-01
  0.733364597437E-01
  0.733366836286E-01
  0.737488996012E-01
  0.737487616203E-01
  0.759722490597E-01
  0.759721809968E-01
  0.819373437563E-01
  0.819374165331E-01
  0.952558999127E-01
  0.952558999083E-01
  0.116602078562E+00
  0.116602078562E+00
  0.149115207496E+00
  0.149115226499E+00
  0.199926422296E+00
  0.199926422290E+00
  0.248833316012E+00
  0.248833291258E+00
  0.292614317551E+00
  0.292614270782E+00
  0.340312941023E+00
  0.340313036930E+00
  0.399815287393E+00
  0.399815288140E+00
  0.474591718145E+00
  0.474591657233E+00
  0.593633431373E+00
  0.593633566289E+00
  0.708859939204E+00
  0.708859964987E+00
  0.562220988674E+00
  0.562221155479E+00
  0.321804581999E+00
  0.321804308950E+00
  0.152298376764E+00
  0.152298466390E+00
  0.589814552289E-01
  0.589814542413E-01
 -0.104248453181E-01
 -0.104249633999E-01
 -0.634923981399E-01
 -0.634923436376E-01
 -0.110412912369E+00
 -0.110412885055E+00
 -0.160970252164E+00
 -0.160970252158E+00
 -0.211559077655E+00
 -0.211559095734E+00
 -0.242943838960E+00
 -0.242943838959E+00
 -0.263142965648E+00
 -0.263142965643E+00
 -0.275585040241E+00
 -0.275585113667E+00
 -0.281117993831E+00
 -0.281117925694E+00
 -0.283174011333E+00
 -0.283173874676E+00
 -0.283554682034E+00
 -0.283554901197E+00
 -0.283340449569E+00
 -0.283340466636E+00
 -0.282798524296E+00
 -0.282798259720E+00
 -0.282522042984E+00
 -0.282522440625E+00
 -0.282312705469E+00
 -0.282312728540E+00
 -0.282155661419E+00
 -0.282155007683E+00
  0.748504426508E-01
  0.748511847548E-01
  0.746805802402E-01
  0.746806193501E-01
  0.744541592092E-01
  0.744537848765E-01
  0.741553420834E-01
  0.741553759776E-01
  0.735685962119E-01
  0.735685961979E-01
  0.733365997333E-01
  0.733364604606E-01
  0.737487392428E-01
  0.737489009271E-01
  0.759722074636E-01
  0.759722478951E-01
  0.819374004925E-01
  0.819373424778E-01
  0.952559133213E-01
  0.952559003200E-01
  0.116602078923E+00
  0.116602078922E+00
  0.149115226512E+00
  0.149115170852E+00
  0.199926422696E+00
  0.199926410038E+00
  0.248833293595E+00
  0.248833318454E+00
  0.292614270956E+00
  0.292614323574E+00
  0.340313040047E+00
  0.340313097369E+00
  0.399815287265E+00
  0.399815159870E+00
  0.474591669955E+00
  0.474591737038E+00
  0.593633627020E+00
  0.593633671109E+00
  0.708859978660E+00
  0.708859976053E+00
  0.562221030808E+00
  0.562220999518E+00
  0.321804700860E+00
  0.321804614921E+00
  0.152298477893E+00
  0.152298380847E+00
  0.589812888428E-01
  0.589814550998E-01
 -0.104247755845E-01
 -0.104248454136E-01
 -0.634923373822E-01
 -0.634923981776E-01
 -0.110412886138E+00
 -0.110412913406E+00
 -0.160970265503E+00
 -0.160970252492E+00
 -0.211559130808E+00
 -0.211559077673E+00
 -0.242943839715E+00
 -0.242943839714E+00
 -0.263142966768E+00
 -0.263142953738E+00
 -0.275585109366E+00
 -0.275585051428E+00
 -0.281117921384E+00
 -0.281117961467E+00
 -0.283173879767E+00
 -0.283174038520E+00
 -0.283554903969E+00
 -0.283554768620E+00
 -0.283340463378E+00
 -0.283340463365E+00
 -0.282798264136E+00
 -0.282798296477E+00
 -0.282522436998E+00
 -0.282522082382E+00
 -0.282312717685E+00
 -0.282312754519E+00
 -0.282155005617E+00
 -0.282155701359E+00
  0.748511259409E-01
  0.748504426813E-01
  0.746805675796E-01
  0.746805822522E-01
  0.744537111348E-01
  0.744541594588E-01
  0.741553291663E-01
  0.741553404519E-01
  0.735687870751E-01
  0.735685961414E-01
  0.733365996630E-01
  0.733365996630E-01
  0.737488301863E-01
  0.737487387508E-01
  0.759721679128E-01
  0.759722084076E-01
  0.819374019299E-01
  0.819374019360E-01
  0.952558785125E-01
  0.952559132051E-01
  0.116602078634E+00
  0.116602079775E+00
  0.149115171062E+00
  0.149115171056E+00
  0.199926409709E+00
  0.199926409708E+00
  0.248833316420E+00
  0.248833354718E+00
  0.292614320602E+00
  0.292614320603E+00
  0.340313095199E+00
  0.340313015347E+00
  0.399815151951E+00
  0.399815217199E+00
  0.474591718446E+00
  0.474591786743E+00
  0.593633616310E+00
  0.593633423528E+00
  0.708859991054E+00
  0.708859989887E+00
  0.562221083476E+00
  0.562221042706E+00
  0.321804306417E+00
  0.321804671154E+00
  0.152298569365E+00
  0.152298471927E+00
  0.589813719105E-01
  0.589812876745E-01
 -0.104248719328E-01
 -0.104247755181E-01
 -0.634923367364E-01
 -0.634923367373E-01
 -0.110412843434E+00
 -0.110412885236E+00
 -0.160970265238E+00
 -0.160970265238E+00
 -0.211559131111E+00
 -0.211559131106E+00
 -0.242943838073E+00
 -0.242943839115E+00
 -0.263142953417E+00
 -0.263142987914E+00
 -0.275585056283E+00
 -0.275585056289E+00
 -0.281117964960E+00
 -0.281118004775E+00
 -0.283174036631E+00
 -0.283173947508E+00
 -0.283554768348E+00
 -0.283554768348E+00
 -0.283340463093E+00
 -0.283340280249E+00
 -0.282798290255E+00
 -0.282798300983E+00
 -0.282522083330E+00
 -0.282522506778E+00
 -0.282312762125E+00
 -0.282312775913E+00
 -0.282155701474E+00
 -0.282155061974E+00
  0.748503701534E-01
  0.748511258038E-01
  0.746810530547E-01
  0.746805671812E-01
  0.744536959662E-01
  0.744537107279E-01
  0.741552738495E-01
  0.741553303926E-01
  0.735687705766E-01
  0.735687882583E-01
  0.733365422979E-01
  0.733365990529E-01
  0.737488058323E-01
  0.737488293550E-01
  0.759722634819E-01
  0.759721671911E-01
  0.819373057324E-01
  0.819374005575E-01
  0.952559389544E-01
  0.952558780891E-01
  0.116602079791E+00
  0.116602079794E+00
  0.149115171170E+00
  0.149115171170E+00
  0.199926409476E+00
  0.199926396791E+00
  0.248833355203E+00
  0.248833355204E+00
  0.292614320279E+00
  0.292614323069E+00
  0.340313008687E+00
  0.340312906066E+00
  0.399815221531E+00
  0.399815287443E+00
  0.474591795306E+00
  0.474591631997E+00
  0.593633436369E+00
  0.593633495782E+00
  0.708860003130E+00
  0.708860003720E+00
  0.562221136145E+00
  0.562221093980E+00
  0.321804423133E+00
  0.321804313378E+00
  0.152298341784E+00
  0.152298572113E+00
  0.589814568822E-01
  0.589813725496E-01
 -0.104249947204E-01
 -0.104248717288E-01
 -0.634923334846E-01
 -0.634923366660E-01
 -0.110412843648E+00
 -0.110412843649E+00
 -0.160970278053E+00
 -0.160970265052E+00
 -0.211559131273E+00
 -0.211559131273E+00
 -0.242943838105E+00
 -0.242943838107E+00
 -0.263142986744E+00
 -0.263142926624E+00
 -0.275585051673E+00
 -0.275585144880E+00
 -0.281118002105E+00
 -0.281117908089E+00
 -0.283173944316E+00
 -0.283173967103E+00
 -0.283554765989E+00
 -0.283554820525E+00
 -0.283340284806E+00
 -0.283340301668E+00
 -0.282798305659E+00
 -0.282798359229E+00
 -0.282522505234E+00
 -0.282522519142E+00
 -0.282312774407E+00
 -0.282312318693E+00
 -0.282155061457E+00
 -0.282155767714E+00
  0.748510480070E-01
  0.748503709219E-01
  0.746804896383E-01
  0.746810540018E-01
  0.744540420508E-01
  0.744536966872E-01
  0.741552405350E-01
  0.741552744797E-01
  0.735684724329E-01
  0.735687698364E-01
  0.733367109286E-01
  0.733365428281E-01
  0.737487830665E-01
  0.737488066060E-01
  0.759722234608E-01
  0.759722640716E-01
  0.819373861231E-01
  0.819373061743E-01
  0.952558567404E-01
  0.952559394344E-01
  0.116602079639E+00
  0.116602153116E+00
  0.149115171456E+00
  0.149115115964E+00
  0.199926397089E+00
  0.199926477175E+00
  0.248833355290E+00
  0.248833305121E+00
  0.292614327523E+00
  0.292614327522E+00
  0.340312910758E+00
  0.340312969352E+00
  0.399815295783E+00
  0.399815230877E+00
  0.474591640107E+00
  0.474591710280E+00
  0.593633512557E+00
  0.593633585829E+00
  0.708860017844E+00
  0.708860020320E+00
  0.562221199347E+00
  0.562221147347E+00
  0.321804565003E+00
  0.321804432226E+00
  0.152298442425E+00
  0.152298344386E+00
  0.589813756845E-01
  0.589814581125E-01
 -0.104249250709E-01
 -0.104249948641E-01
 -0.634923344526E-01
 -0.634923344511E-01
 -0.110412898023E+00
 -0.110412843686E+00
 -0.160970196304E+00
 -0.160970278292E+00
 -0.211559185037E+00
 -0.211559131679E+00
 -0.242943770071E+00
 -0.242943837783E+00
 -0.263142927950E+00
 -0.263143009176E+00
 -0.275585146366E+00
 -0.275585068261E+00
 -0.281117910271E+00
 -0.281117949690E+00
 -0.283173970073E+00
 -0.283173992758E+00
 -0.283554822575E+00
 -0.283554661748E+00
 -0.283340298818E+00
 -0.283340581442E+00
 -0.282798361633E+00
 -0.282798393705E+00
 -0.282522521878E+00
 -0.282522197176E+00
 -0.282312322274E+00
 -0.282312850766E+00
 -0.282155770610E+00
 -0.282155138533E+00
  0.748510012882E-01
  0.748510472525E-01
  0.746804434501E-01
  0.746804875104E-01
  0.744539968910E-01
  0.744540412113E-01
  0.741555165305E-01
  0.741552396179E-01
  0.735684182959E-01
  0.735684713973E-01
  0.733366543478E-01
  0.733367111919E-01
  0.737488983250E-01
  0.737487830312E-01
  0.759721826078E-01
  0.759722232601E-01
  0.819373492394E-01
  0.819373859385E-01
  0.952559174633E-01
  0.952558564285E-01
  0.116602152769E+00
  0.116602117202E+00
  0.149115115965E+00
  0.149115115965E+00
  0.199926477305E+00
  0.199926464604E+00
  0.248833304412E+00
  0.248833254143E+00
  0.292614326790E+00
  0.292614377609E+00
  0.340312966374E+00
  0.340313084138E+00
  0.399815209348E+00
  0.399815011693E+00
  0.474591696780E+00
  0.474591970122E+00
  0.593633505103E+00
  0.593633073567E+00
  0.708860035073E+00
  0.708860039687E+00
  0.562221273082E+00
  0.562221211048E+00
  0.321803751346E+00
  0.321804521241E+00
  0.152298817012E+00
  0.152298438092E+00
  0.589811230372E-01
  0.589813725086E-01
 -0.104247854236E-01
 -0.104249249797E-01
 -0.634922768773E-01
 -0.634923342939E-01
 -0.110412951993E+00
 -0.110412897708E+00
 -0.160970209398E+00
 -0.160970196408E+00
 -0.211559185039E+00
 -0.211559185039E+00
 -0.242943802242E+00
 -0.242943769346E+00
 -0.263143008314E+00
 -0.263142948643E+00
 -0.275585067640E+00
 -0.275585103309E+00
 -0.281117948948E+00
 -0.281117988213E+00
 -0.283173992623E+00
 -0.283173881999E+00
 -0.283554662766E+00
 -0.283554716953E+00
 -0.283340577454E+00
 -0.283340627769E+00
 -0.282798390207E+00
 -0.282798129172E+00
 -0.282522193991E+00
 -0.282522235586E+00
 -0.282312842722E+00
 -0.282312883927E+00
 -0.282155135689E+00
 -0.282155178556E+00
  0.748509565816E-01
  0.748510025909E-01
  0.746804006998E-01
  0.746804447417E-01
  0.744539538330E-01
  0.744539981641E-01
  0.741554611181E-01
  0.741555177390E-01
  0.735683828301E-01
  0.735684182687E-01
  0.733365973986E-01
  0.733366542674E-01
  0.737488511074E-01
  0.737488982779E-01
  0.759722790638E-01
  0.759721824749E-01
  0.819373932379E-01
  0.819373498490E-01
  0.952558830788E-01
  0.952559179662E-01
  0.116602117425E+00
  0.116602046364E+00
  0.149115115733E+00
  0.149115227837E+00
  0.199926464504E+00
  0.199926384340E+00
  0.248833254682E+00
  0.248833343692E+00
  0.292614377069E+00
  0.292614235457E+00
  0.340313097864E+00
  0.340313157002E+00
  0.399815025230E+00
  0.399815092541E+00
  0.474592014334E+00
  0.474591713291E+00
  0.593633171010E+00
  0.593633750323E+00
  0.708860054910E+00
  0.708860061820E+00
  0.562221357351E+00
  0.562221285156E+00
  0.321804824757E+00
  0.321803804169E+00
  0.152298416546E+00
  0.152298831200E+00
  0.589812095588E-01
  0.589811250342E-01
 -0.104247160591E-01
 -0.104247858440E-01
 -0.634924362032E-01
 -0.634922767601E-01
 -0.110412856344E+00
 -0.110412952232E+00
 -0.160970291245E+00
 -0.160970209318E+00
 -0.211559076589E+00
 -0.211559184709E+00
 -0.242943868630E+00
 -0.242943802708E+00
 -0.263142950033E+00
 -0.263142984008E+00
 -0.275585105359E+00
 -0.275585063368E+00
 -0.281117987721E+00
 -0.281117894809E+00
 -0.283173881818E+00
 -0.283173926914E+00