# vtk DataFile Version 3.0
MachLine results file. Generated by MachLine, USU AeroLab (c) 2022.
ASCII
DATASET POLYDATA
POINTS                 960 float
  0.000000000000E+00  0.000000000000E+00  0.000000000000E+00
  0.989272332963E+04  0.000000000000E+00  0.146083028562E+04
  0.473465979099E+00  0.000000000000E+00 -0.436293870211E+00
  0.989279648491E+04  0.000000000000E+00  0.146033487901E+04
  0.473465979099E+00  0.000000000000E+00  0.436293870211E+00
  0.989267038211E+04  0.000000000000E+00  0.146118884551E+04
  0.757896304131E+00  0.757896304131E+00  0.000000000000E+00
  0.989273950333E+04  0.757896304131E+00  0.146072075756E+04
  0.123136246204E+01  0.757896304131E+00 -0.436293989420E+00
  0.989281265863E+04  0.757896304131E+00  0.146022535081E+04
  0.123136246204E+01  0.757896304131E+00  0.436293989420E+00
  0.989268655580E+04  0.757896304131E+00  0.146107931754E+04
  0.157641971111E+01  0.000000000000E+00 -0.760520398617E+00
  0.989286687811E+04  0.000000000000E+00  0.145985817721E+04
  0.157641971111E+01  0.000000000000E+00  0.760520398617E+00
  0.989264706353E+04  0.000000000000E+00  0.146134675862E+04
  0.178897356987E+01  0.178897356987E+01  0.000000000000E+00
  0.989276150678E+04  0.178897356987E+01  0.146057175050E+04
  0.226243972778E+01  0.178897356987E+01 -0.436294138432E+00
  0.989283466210E+04  0.178897356987E+01  0.146007634360E+04
  0.226243972778E+01  0.178897356987E+01  0.436294138432E+00
  0.989270855922E+04  0.178897356987E+01  0.146093031063E+04
  0.233431649208E+01  0.757896304131E+00 -0.760520577431E+00
  0.989288305184E+04  0.757896304131E+00  0.145974864890E+04
  0.233431649208E+01  0.757896304131E+00  0.760520577431E+00
  0.989266323722E+04  0.757896304131E+00  0.146123723066E+04
  0.317279767990E+01  0.317279767990E+01  0.000000000000E+00
  0.989279103793E+04  0.317279767990E+01  0.146037176592E+04
  0.336539411545E+01  0.178897356987E+01 -0.760520815849E+00
  0.989290505533E+04  0.178897356987E+01  0.145959964156E+04
  0.336539411545E+01  0.178897356987E+01  0.760520815849E+00
  0.989268524064E+04  0.178897356987E+01  0.146108822378E+04
  0.342464399338E+01  0.000000000000E+00 -0.102348911762E+01
  0.989294432284E+04  0.000000000000E+00  0.145933372252E+04
  0.342464399338E+01  0.000000000000E+00  0.102348911762E+01
  0.989264850194E+04  0.000000000000E+00  0.146133701772E+04
  0.364626431465E+01  0.317279767990E+01 -0.436294317245E+00
  0.989286419329E+04  0.317279767990E+01  0.145987635877E+04
  0.364626431465E+01  0.317279767990E+01  0.436294317245E+00
  0.989273809036E+04  0.317279767990E+01  0.146073032615E+04
  0.418254137039E+01  0.757896304131E+00 -0.102348935604E+01
  0.989296049660E+04  0.757896304131E+00  0.145922419406E+04
  0.418254137039E+01  0.757896304131E+00  0.102348935604E+01
  0.989266467563E+04  0.757896304131E+00  0.146122748974E+04
  0.474921894073E+01  0.317279767990E+01 -0.760521173477E+00
  0.989293458656E+04  0.317279767990E+01  0.145939965652E+04
  0.474921894073E+01  0.317279767990E+01  0.760521173477E+00
  0.989271477175E+04  0.317279767990E+01  0.146088823944E+04
  0.499661636353E+01  0.499661636353E+01  0.000000000000E+00
  0.989282995868E+04  0.499661636353E+01  0.146010819512E+04
  0.521361970901E+01  0.178897356987E+01 -0.102348971367E+01
  0.989298250012E+04  0.178897356987E+01  0.145907518650E+04
  0.521361970901E+01  0.178897356987E+01  0.102348971367E+01
  0.989268667905E+04  0.178897356987E+01  0.146107848287E+04
  0.547008323669E+01  0.499661636353E+01 -0.436294585466E+00
  0.989290311408E+04  0.499661636353E+01  0.145961278768E+04
  0.547008323669E+01  0.499661636353E+01  0.436294585466E+00
  0.989277701108E+04  0.499661636353E+01  0.146046675558E+04
  0.611307668686E+01  0.000000000000E+00 -0.114008128643E+01
  0.989301854409E+04  0.000000000000E+00  0.145883109719E+04
  0.611307668686E+01  0.000000000000E+00  0.114008128643E+01
  0.989268902435E+04  0.000000000000E+00  0.146106260052E+04
  0.657303857803E+01  0.499661636353E+01 -0.760521650314E+00
  0.989297350739E+04  0.499661636353E+01  0.145913608512E+04
  0.657303857803E+01  0.499661636353E+01  0.760521650314E+00
  0.989275369245E+04  0.499661636353E+01  0.146062466898E+04
  0.659744548798E+01  0.317279767990E+01 -0.102349019051E+01
  0.989301203138E+04  0.317279767990E+01  0.145887520121E+04
  0.659744548798E+01  0.317279767990E+01  0.102349019051E+01
  0.989271621017E+04  0.317279767990E+01  0.146087849851E+04
  0.687097454071E+01  0.757896304131E+00 -0.114008152485E+01
  0.989303471786E+04  0.757896304131E+00  0.145872156867E+04
  0.687097454071E+01  0.757896304131E+00  0.114008152485E+01
  0.989270519805E+04  0.757896304131E+00  0.146095307246E+04
  0.734362459183E+01  0.734362459183E+01  0.000000000000E+00
  0.989288004442E+04  0.734362459183E+01  0.145976901512E+04
  0.781709194183E+01  0.734362459183E+01 -0.436294913292E+00
  0.989295319989E+04  0.734362459183E+01  0.145927360729E+04
  0.781709194183E+01  0.734362459183E+01  0.436294913292E+00
  0.989282709678E+04  0.734362459183E+01  0.146012757583E+04
  0.790205335617E+01  0.178897356987E+01 -0.114008200169E+01
  0.989305672141E+04  0.178897356987E+01  0.145857256092E+04
  0.790205335617E+01  0.178897356987E+01  0.114008200169E+01
  0.989272720146E+04  0.178897356987E+01  0.146080406565E+04
  0.842126560211E+01  0.499661636353E+01 -0.102349078655E+01
  0.989305095224E+04  0.499661636353E+01  0.145861162962E+04
  0.842126560211E+01  0.499661636353E+01  0.102349078655E+01
  0.989275513086E+04  0.499661636353E+01  0.146061492810E+04
  0.892004776001E+01  0.734362459183E+01 -0.760522186756E+00
  0.989302359324E+04  0.734362459183E+01  0.145879690446E+04
  0.892004776001E+01  0.734362459183E+01  0.760522186756E+00
  0.989280377814E+04  0.734362459183E+01  0.146028548936E+04
  0.928588008881E+01  0.317279767990E+01 -0.114008247852E+01
  0.989308625269E+04  0.317279767990E+01  0.145837257549E+04
  0.928588008881E+01  0.317279767990E+01  0.114008247852E+01
  0.989275673260E+04  0.317279767990E+01  0.146060408115E+04
  0.939508819580E+01  0.000000000000E+00 -0.980745851994E+00
  0.989306555654E+04  0.000000000000E+00  0.145851272952E+04
  0.939508819580E+01  0.000000000000E+00  0.980745851994E+00
  0.989278208980E+04  0.000000000000E+00  0.146043236250E+04
  0.101529865265E+02  0.757896304131E+00 -0.980746090412E+00
  0.989308173032E+04  0.757896304131E+00  0.145840320093E+04
  0.101529865265E+02  0.757896304131E+00  0.980746090412E+00
  0.989279826351E+04  0.757896304131E+00  0.146032283438E+04
  0.102728376389E+02  0.102728376389E+02  0.000000000000E+00
  0.989294255457E+04  0.102728376389E+02  0.145934569726E+04
  0.107463054657E+02  0.102728376389E+02 -0.436295330524E+00
  0.989301571010E+04  0.102728376389E+02  0.145885028896E+04
  0.107463054657E+02  0.102728376389E+02  0.436295330524E+00
  0.989288960688E+04  0.102728376389E+02  0.145970425831E+04
  0.107682771683E+02  0.734362459183E+01 -0.102349150181E+01
  0.989310103816E+04  0.734362459183E+01  0.145827244844E+04
  0.107682771683E+02  0.734362459183E+01  0.102349150181E+01
  0.989280521658E+04  0.734362459183E+01  0.146027574831E+04
  0.111097030640E+02  0.499661636353E+01 -0.114008307457E+01
  0.989312517361E+04  0.499661636353E+01  0.145810900349E+04
  0.111097030640E+02  0.499661636353E+01  0.114008307457E+01
  0.989279565335E+04  0.499661636353E+01  0.146034051032E+04
  0.111840667725E+02  0.178897356987E+01 -0.980746388435E+00
  0.989310373387E+04  0.178897356987E+01  0.145825419315E+04
  0.111840667725E+02  0.178897356987E+01  0.980746388435E+00
  0.989282026698E+04  0.178897356987E+01  0.146017382718E+04
  0.118492631912E+02  0.102728376389E+02 -0.760522902012E+00
  0.989308610353E+04  0.102728376389E+02  0.145837358556E+04
  0.118492631912E+02  0.102728376389E+02  0.760522902012E+00
  0.989286628823E+04  0.102728376389E+02  0.145986217186E+04
  0.125678949356E+02  0.317279767990E+01 -0.980746865273E+00
  0.989313326518E+04  0.317279767990E+01  0.145805420751E+04
  0.125678949356E+02  0.317279767990E+01  0.980746865273E+00
  0.989284979815E+04  0.317279767990E+01  0.145997384248E+04
  0.126670312881E+02  0.000000000000E+00 -0.678052663803E+00
  0.989309163665E+04  0.000000000000E+00  0.145833611537E+04
  0.126670312881E+02  0.000000000000E+00  0.678052663803E+00
  0.989289565787E+04  0.000000000000E+00  0.145966328107E+04
  0.134249305725E+02  0.757896304131E+00 -0.678052842617E+00
  0.989310781044E+04  0.757896304131E+00  0.145822658670E+04
  0.134249305725E+02  0.757896304131E+00  0.678052842617E+00
  0.989291183161E+04  0.757896304131E+00  0.145955375275E+04
  0.134567155838E+02  0.734362459183E+01 -0.114008402824E+01
  0.989317525959E+04  0.734362459183E+01  0.145776982193E+04
  0.134567155838E+02  0.734362459183E+01  0.114008402824E+01
  0.989284573905E+04  0.734362459183E+01  0.146000133063E+04
  0.136974935532E+02  0.102728376389E+02 -0.102349245548E+01
  0.989316354852E+04  0.102728376389E+02  0.145784912917E+04
  0.136974935532E+02  0.102728376389E+02  0.102349245548E+01
  0.989286772665E+04  0.102728376389E+02  0.145985243091E+04
  0.137921218872E+02  0.137921218872E+02  0.000000000000E+00
  0.989301765698E+04  0.137921218872E+02  0.145883710474E+04
  0.142655897141E+02  0.137921218872E+02 -0.436295837164E+00
  0.989309081258E+04  0.137921218872E+02  0.145834169593E+04
  0.142655897141E+02  0.137921218872E+02  0.436295837164E+00
  0.989296470921E+04  0.137921218872E+02  0.145919566628E+04
  0.143917188644E+02  0.499661636353E+01 -0.980747401714E+00
  0.989317218612E+04  0.499661636353E+01  0.145779063544E+04
  0.143917188644E+02  0.499661636353E+01  0.980747401714E+00
  0.989288871893E+04  0.499661636353E+01  0.145971027145E+04
  0.144560117722E+02  0.178897356987E+01 -0.678053081036E+00
  0.989312981400E+04  0.178897356987E+01  0.145807757884E+04
  0.144560117722E+02  0.178897356987E+01  0.678053081036E+00
  0.989293383510E+04  0.178897356987E+01  0.145940474535E+04
  0.153437566757E+02  0.000000000000E+00 -0.393031150103E+00
[...]
CELL_DATA                  38
NORMALS normals float
  0.144548800766E+00 -0.144549551048E+00 -0.978882562665E+00
  0.144548800766E+00 -0.144549551048E+00 -0.978882562665E+00
  0.144548796539E+00 -0.144549749138E+00 -0.978882534037E+00
  0.144548796539E+00 -0.144549749138E+00 -0.978882534037E+00
  0.144548797190E+00 -0.144549718645E+00 -0.978882538444E+00
  0.144548797190E+00 -0.144549718645E+00 -0.978882538444E+00
  0.144548798281E+00 -0.144549667504E+00 -0.978882545835E+00
  0.144548798281E+00 -0.144549667504E+00 -0.978882545835E+00
  0.144548797421E+00 -0.144549707822E+00 -0.978882540008E+00
  0.144548797421E+00 -0.144549707822E+00 -0.978882540008E+00
  0.144548797268E+00 -0.144549714957E+00 -0.978882538977E+00
  0.144548797268E+00 -0.144549714957E+00 -0.978882538977E+00
  0.144548799255E+00 -0.144549621840E+00 -0.978882552434E+00
  0.144548799255E+00 -0.144549621840E+00 -0.978882552434E+00
  0.144548797906E+00 -0.144549685099E+00 -0.978882543292E+00
  0.144548797906E+00 -0.144549685099E+00 -0.978882543292E+00
  0.144548795504E+00 -0.144549797630E+00 -0.978882527029E+00
  0.144548795504E+00 -0.144549797630E+00 -0.978882527029E+00
  0.144548801190E+00 -0.144549531193E+00 -0.978882565534E+00
  0.144548801190E+00 -0.144549531193E+00 -0.978882565534E+00
  0.144548795504E+00 -0.144549797627E+00 -0.978882527030E+00
  0.144548795504E+00 -0.144549797627E+00 -0.978882527030E+00
  0.144548797906E+00 -0.144549685099E+00 -0.978882543292E+00
  0.144548797906E+00 -0.144549685099E+00 -0.978882543292E+00
  0.144548796800E+00 -0.144549736895E+00 -0.978882535807E+00
  0.144548796800E+00 -0.144549736895E+00 -0.978882535807E+00
  0.144548800710E+00 -0.144549553690E+00 -0.978882562283E+00
  0.144548800710E+00 -0.144549553690E+00 -0.978882562283E+00
  0.144548796807E+00 -0.144549736575E+00 -0.978882535853E+00
  0.144548796807E+00 -0.144549736574E+00 -0.978882535853E+00
  0.144548797491E+00 -0.144549704506E+00 -0.978882540487E+00
  0.144548797491E+00 -0.144549704507E+00 -0.978882540487E+00
  0.144548791466E+00 -0.144549986871E+00 -0.978882499681E+00
  0.144548791466E+00 -0.144549986872E+00 -0.978882499681E+00
  0.144548805269E+00 -0.144549340045E+00 -0.978882593158E+00
  0.144548805269E+00 -0.144549340045E+00 -0.978882593158E+00
  0.144548816442E+00 -0.144548816462E+00 -0.978882668824E+00
  0.144548816443E+00 -0.144548816462E+00 -0.978882668824E+00
POINT_DATA                 960
SCALARS mu float 1
LOOKUP_TABLE default
  0.000000000000E+00
  0.000000000000E+00
  0.000000000000E+00
  0.000000000000E+00
  0.000000000000E+00
  0.000000000000E+00
  0.000000000000E+00
  0.000000000000E+00
  0.000000000000E+00
  0.000000000000E+00
  0.000000000000E+00
  0.000000000000E+00
  0.000000000000E+00
  0.000000000000E+00
  0.000000000000E+00
  0.000000000000E+00
  0.000000000000E+00
  0.000000000000E+00
  0.000000000000E+00
  0.000000000000E+00
  0.000000000000E+00
  0.000000000000E+00
  0.000000000000E+00
  0.000000000000E+00
  0.000000000000E+00
  0.000000000000E+00
  0.000000000000E+00
  0.000000000000E+00
  0.000000000000E+00
  0.000000000000E+00
  0.000000000000E+00
  0.000000000000E+00
  0.000000000000E+00
  0.000000000000E+00
  0.000000000000E+00
  0.000000000000E+00
  0.000000000000E+00
  0.000000000000E+00
  0.000000000000E+00
  0.000000000000E+00
  0.000000000000E+00
  0.000000000000E+00
  0.000000000000E+00
  0.000000000000E+00
  0.000000000000E+00
  0.000000000000E+00
  0.000000000000E+00
  0.000000000000E+00
  0.000000000000E+00
  0.000000000000E+00
  0.000000000000E+00
  0.000000000000E+00
  0.000000000000E+00
  0.000000000000E+00
  0.000000000000E+00
  0.000000000000E+00
  0.000000000000E+00
  0.000000000000E+00
  0.000000000000E+00
  0.000000000000E+00
  0.000000000000E+00
  0.000000000000E+00
  0.000000000000E+00
  0.000000000000E+00
  0.000000000000E+00
  0.000000000000E+00
  0.000000000000E+00
  0.000000000000E+00
  0.000000000000E+00
  0.000000000000E+00
  0.000000000000E+00
  0.000000000000E+00
  0.000000000000E+00
  0.000000000000E+00
  0.000000000000E+00
  0.000000000000E+00
  0.000000000000E+00
  0.000000000000E+00
  0.000000000000E+00
  0.000000000000E+00
  0.000000000000E+00
  0.000000000000E+00
  0.000000000000E+00
  0.000000000000E+00
  0.000000000000E+00
  0.000000000000E+00
  0.000000000000E+00
  0.000000000000E+00
  0.000000000000E+00
  0.000000000000E+00
  0.000000000000E+00
  0.000000000000E+00
  0.000000000000E+00
  0.000000000000E+00
  0.000000000000E+00
  0.000000000000E+00
  0.000000000000E+00
  0.000000000000E+00
  0.000000000000E+00
  0.000000000000E+00
  0.000000000000E+00
  0.000000000000E+00
  0.000000000000E+00
  0.000000000000E+00
  0.000000000000E+00
  0.000000000000E+00
  0.000000000000E+00
  0.000000000000E+00
  0.000000000000E+00
  0.000000000000E+00
  0.000000000000E+00
  0.000000000000E+00
  0.000000000000E+00
  0.000000000000E+00
  0.000000000000E+00
  0.000000000000E+00
  0.000000000000E+00
  0.000000000000E+00
  0.000000000000E+00
  0.000000000000E+00
  0.000000000000E+00
  0.000000000000E+00
  0.000000000000E+00
  0.000000000000E+00
  0.000000000000E+00
  0.000000000000E+00
  0.000000000000E+00
  0.000000000000E+00
  0.000000000000E+00
  0.000000000000E+00
  0.000000000000E+00
  0.000000000000E+00
  0.000000000000E+00
  0.000000000000E+00
  0.000000000000E+00
  0.000000000000E+00
  0.000000000000E+00
  0.000000000000E+00
  0.000000000000E+00
  0.000000000000E+00
  0.000000000000E+00
  0.000000000000E+00
  0.000000000000E+00
  0.000000000000E+00
  0.000000000000E+00
  0.000000000000E+00
  0.000000000000E+00
  0.000000000000E+00
  0.000000000000E+00
  0.000000000000E+00
  0.000000000000E+00
  0.000000000000E+00
  0.000000000000E+00
  0.000000000000E+00
  0.000000000000E+00
  0.000000000000E+00
  0.000000000000E+00
  0.000000000000E+00
  0.000000000000E+00
  0.000000000000E+00
  0.000000000000E+00
  0.000000000000E+00
  0.000000000000E+00
  0.000000000000E+00
  0.000000000000E+00
  0.000000000000E+00
  0.000000000000E+00
  0.000000000000E+00
  0.000000000000E+00
  0.000000000000E+00
  0.000000000000E+00
  0.000000000000E+00
  0.000000000000E+00
  0.000000000000E+00
  0.000000000000E+00
  0.000000000000E+00
  0.000000000000E+00
  0.000000000000E+00
  0.000000000000E+00
  0.000000000000E+00
  0.000000000000E+00
  0.000000000000E+00
  0.000000000000E+00
  0.000000000000E+00
  0.000000000000E+00
  0.000000000000E+00
  0.000000000000E+00
  0.000000000000E+00
  0.000000000000E+00
  0.000000000000E+00
  0.000000000000E+00
  0.000000000000E+00
  0.000000000000E+00
  0.000000000000E+00
  0.000000000000E+00
  0.000000000000E+00
  0.000000000000E+00
  0.000000000000E+00
  0.000000000000E+00
  0.000000000000E+00
  0.000000000000E+00
  0.000000000000E+00
  0.000000000000E+00
  0.000000000000E+00
  0.000000000000E+00
  0.000000000000E+00
  0.000000000000E+00
  0.000000000000E+00
  0.000000000000E+00
  0.000000000000E+00
  0.000000000000E+00
  0.000000000000E+00
  0.000000000000E+00
  0.000000000000E+00
  0.000000000000E+00
  0.000000000000E+00
  0.000000000000E+00
  0.000000000000E+00
  0.000000000000E+00
  0.000000000000E+00
  0.000000000000E+00
  0.000000000000E+00
 -0.449888978747E+01
 -0.449888978747E+01
  0.000000000000E+00
  0.000000000000E+00
  0.000000000000E+00
  0.000000000000E+00
  0.000000000000E+00
  0.000000000000E+00
  0.000000000000E+00
  0.000000000000E+00
  0.000000000000E+00
  0.000000000000E+00
  0.000000000000E+00
  0.000000000000E+00
 -0.452435954871E+01
 -0.452435954871E+01
  0.000000000000E+00
  0.000000000000E+00
  0.000000000000E+00
  0.000000000000E+00
  0.000000000000E+00
  0.000000000000E+00
  0.000000000000E+00
  0.000000000000E+00
  0.000000000000E+00
  0.000000000000E+00
  0.000000000000E+00
  0.000000000000E+00
  0.000000000000E+00
  0.000000000000E+00
  0.000000000000E+00
  0.000000000000E+00
  0.000000000000E+00
  0.000000000000E+00
  0.000000000000E+00
  0.000000000000E+00
 -0.457213523972E+01
 -0.457213523972E+01
  0.000000000000E+00
  0.000000000000E+00
  0.000000000000E+00
  0.000000000000E+00
  0.000000000000E+00
  0.000000000000E+00
  0.000000000000E+00
  0.000000000000E+00
 -0.464107847718E+01
 -0.464107847718E+01
  0.000000000000E+00
  0.000000000000E+00
  0.000000000000E+00
  0.000000000000E+00
  0.000000000000E+00
  0.000000000000E+00
  0.000000000000E+00
  0.000000000000E+00
  0.000000000000E+00
  0.000000000000E+00
  0.000000000000E+00
  0.000000000000E+00
  0.000000000000E+00
  0.000000000000E+00
  0.000000000000E+00
  0.000000000000E+00
  0.000000000000E+00
  0.000000000000E+00
  0.000000000000E+00
  0.000000000000E+00
  0.000000000000E+00
  0.000000000000E+00
  0.000000000000E+00
  0.000000000000E+00
  0.000000000000E+00
  0.000000000000E+00
  0.000000000000E+00
  0.000000000000E+00
  0.000000000000E+00
  0.000000000000E+00
  0.000000000000E+00
  0.000000000000E+00
  0.000000000000E+00
  0.000000000000E+00
 -0.472876929076E+01
 -0.472876929076E+01
  0.000000000000E+00
  0.000000000000E+00
  0.000000000000E+00
  0.000000000000E+00
  0.000000000000E+00
  0.000000000000E+00
  0.000000000000E+00
  0.000000000000E+00
  0.000000000000E+00
  0.000000000000E+00
  0.000000000000E+00
  0.000000000000E+00
  0.000000000000E+00
  0.000000000000E+00
  0.000000000000E+00
  0.000000000000E+00
 -0.483046304793E+01
 -0.483046304793E+01
  0.000000000000E+00
  0.000000000000E+00
  0.000000000000E+00
  0.000000000000E+00
  0.000000000000E+00
  0.000000000000E+00
  0.000000000000E+00
  0.000000000000E+00
  0.000000000000E+00
  0.000000000000E+00
  0.000000000000E+00
  0.000000000000E+00
  0.000000000000E+00
  0.000000000000E+00
  0.000000000000E+00
  0.000000000000E+00
  0.000000000000E+00
  0.000000000000E+00
  0.000000000000E+00
  0.000000000000E+00
  0.000000000000E+00
  0.000000000000E+00
  0.000000000000E+00
  0.000000000000E+00
  0.000000000000E+00
  0.000000000000E+00
  0.000000000000E+00
  0.000000000000E+00
  0.000000000000E+00
  0.000000000000E+00
  0.000000000000E+00
  0.000000000000E+00
  0.000000000000E+00
  0.000000000000E+00
 -0.493775237392E+01
 -0.493775237392E+01
  0.000000000000E+00
  0.000000000000E+00
  0.000000000000E+00
  0.000000000000E+00
  0.000000000000E+00
  0.000000000000E+00
  0.000000000000E+00
  0.000000000000E+00
  0.000000000000E+00
  0.000000000000E+00
  0.000000000000E+00
  0.000000000000E+00
  0.000000000000E+00
  0.000000000000E+00
  0.000000000000E+00
  0.000000000000E+00
  0.000000000000E+00
  0.000000000000E+00
  0.000000000000E+00
  0.000000000000E+00
  0.000000000000E+00
  0.000000000000E+00
  0.000000000000E+00
  0.000000000000E+00
  0.000000000000E+00
  0.000000000000E+00
  0.000000000000E+00
  0.000000000000E+00
  0.000000000000E+00
  0.000000000000E+00
 -0.503945186148E+01
 -0.503945186148E+01
  0.000000000000E+00
  0.000000000000E+00
  0.000000000000E+00
  0.000000000000E+00
  0.000000000000E+00
  0.000000000000E+00
  0.000000000000E+00
  0.000000000000E+00
  0.000000000000E+00
  0.000000000000E+00
  0.000000000000E+00
  0.000000000000E+00
  0.000000000000E+00
  0.000000000000E+00
  0.000000000000E+00
  0.000000000000E+00
  0.000000000000E+00
  0.000000000000E+00
  0.000000000000E+00
  0.000000000000E+00
  0.000000000000E+00
  0.000000000000E+00
  0.000000000000E+00
  0.000000000000E+00
  0.000000000000E+00
  0.000000000000E+00
  0.000000000000E+00
  0.000000000000E+00
  0.000000000000E+00
  0.000000000000E+00
  0.000000000000E+00
  0.000000000000E+00
  0.000000000000E+00
  0.000000000000E+00
  0.000000000000E+00
  0.000000000000E+00
  0.000000000000E+00
  0.000000000000E+00
 -0.512160399731E+01
 -0.512160399731E+01
  0.000000000000E+00
  0.000000000000E+00
  0.000000000000E+00
  0.000000000000E+00
  0.000000000000E+00
  0.000000000000E+00
  0.000000000000E+00
  0.000000000000E+00
  0.000000000000E+00
  0.000000000000E+00
  0.000000000000E+00
  0.000000000000E+00
  0.000000000000E+00
  0.000000000000E+00
  0.000000000000E+00
  0.000000000000E+00
  0.000000000000E+00
  0.000000000000E+00
  0.000000000000E+00
  0.000000000000E+00
  0.000000000000E+00
  0.000000000000E+00
  0.000000000000E+00
  0.000000000000E+00
  0.000000000000E+00
  0.000000000000E+00
  0.000000000000E+00
  0.000000000000E+00
  0.000000000000E+00
  0.000000000000E+00
  0.000000000000E+00
  0.000000000000E+00
  0.000000000000E+00
  0.000000000000E+00
  0.000000000000E+00
  0.000000000000E+00
  0.000000000000E+00
  0.000000000000E+00
 -0.516826871832E+01
 -0.516826871832E+01
  0.000000000000E+00
  0.000000000000E+00
  0.000000000000E+00
  0.000000000000E+00
  0.000000000000E+00
  0.000000000000E+00
  0.000000000000E+00
  0.000000000000E+00
  0.000000000000E+00
  0.000000000000E+00
  0.000000000000E+00
  0.000000000000E+00
  0.000000000000E+00
  0.000000000000E+00
  0.000000000000E+00
  0.000000000000E+00
  0.000000000000E+00
  0.000000000000E+00
  0.000000000000E+00
  0.000000000000E+00
  0.000000000000E+00
  0.000000000000E+00
  0.000000000000E+00
  0.000000000000E+00
  0.000000000000E+00
  0.000000000000E+00
  0.000000000000E+00
  0.000000000000E+00
  0.000000000000E+00
  0.000000000000E+00
  0.000000000000E+00
  0.000000000000E+00
  0.000000000000E+00
  0.000000000000E+00
  0.000000000000E+00
  0.000000000000E+00
  0.000000000000E+00
  0.000000000000E+00
  0.000000000000E+00
  0.000000000000E+00
  0.000000000000E+00
  0.000000000000E+00
  0.000000000000E+00
  0.000000000000E+00
  0.000000000000E+00
  0.000000000000E+00
  0.000000000000E+00
  0.000000000000E+00
  0.000000000000E+00
  0.000000000000E+00
  0.000000000000E+00
  0.000000000000E+00
 -0.516169590254E+01
 -0.516169590254E+01
  0.000000000000E+00
  0.000000000000E+00
  0.000000000000E+00
  0.000000000000E+00
  0.000000000000E+00
  0.000000000000E+00
  0.000000000000E+00
  0.000000000000E+00
  0.000000000000E+00
  0.000000000000E+00
  0.000000000000E+00
  0.000000000000E+00
  0.000000000000E+00
  0.000000000000E+00
  0.000000000000E+00
  0.000000000000E+00
  0.000000000000E+00
  0.000000000000E+00
  0.000000000000E+00
  0.000000000000E+00
  0.000000000000E+00
  0.000000000000E+00
  0.000000000000E+00
  0.000000000000E+00
  0.000000000000E+00
  0.000000000000E+00
  0.000000000000E+00
  0.000000000000E+00
  0.000000000000E+00
  0.000000000000E+00
  0.000000000000E+00
  0.000000000000E+00
  0.000000000000E+00
  0.000000000000E+00
  0.000000000000E+00
  0.000000000000E+00
  0.000000000000E+00
  0.000000000000E+00
  0.000000000000E+00
  0.000000000000E+00
  0.000000000000E+00
  0.000000000000E+00
  0.000000000000E+00
  0.000000000000E+00
  0.000000000000E+00
  0.000000000000E+00
  0.000000000000E+00
  0.000000000000E+00
  0.000000000000E+00
  0.000000000000E+00
  0.000000000000E+00
  0.000000000000E+00
  0.000000000000E+00
  0.000000000000E+00
  0.000000000000E+00
  0.000000000000E+00
  0.000000000000E+00
  0.000000000000E+00
  0.000000000000E+00
  0.000000000000E+00
  0.000000000000E+00
  0.000000000000E+00
  0.000000000000E+00
  0.000000000000E+00
  0.000000000000E+00
  0.000000000000E+00
  0.000000000000E+00
  0.000000000000E+00
  0.000000000000E+00
  0.000000000000E+00
  0.000000000000E+00
  0.000000000000E+00
  0.000000000000E+00
  0.000000000000E+00
  0.000000000000E+00
  0.000000000000E+00
  0.000000000000E+00
  0.000000000000E+00
  0.000000000000E+00
  0.000000000000E+00
  0.000000000000E+00
  0.000000000000E+00
  0.000000000000E+00
  0.000000000000E+00
  0.000000000000E+00
  0.000000000000E+00
 -0.508145980436E+01
 -0.508145980436E+01
  0.000000000000E+00
  0.000000000000E+00
  0.000000000000E+00
  0.000000000000E+00
  0.000000000000E+00
  0.000000000000E+00
  0.000000000000E+00
  0.000000000000E+00
  0.000000000000E+00
  0.000000000000E+00
  0.000000000000E+00
  0.000000000000E+00
  0.000000000000E+00
  0.000000000000E+00
  0.000000000000E+00
  0.000000000000E+00
  0.000000000000E+00
  0.000000000000E+00
  0.000000000000E+00
  0.000000000000E+00
  0.000000000000E+00
  0.000000000000E+00
  0.000000000000E+00
  0.000000000000E+00
  0.000000000000E+00
  0.000000000000E+00
  0.000000000000E+00
  0.000000000000E+00
  0.000000000000E+00
  0.000000000000E+00
  0.000000000000E+00
  0.000000000000E+00
  0.000000000000E+00
  0.000000000000E+00
  0.000000000000E+00
  0.000000000000E+00
  0.000000000000E+00
  0.000000000000E+00
  0.000000000000E+00
  0.000000000000E+00
  0.000000000000E+00
  0.000000000000E+00
  0.000000000000E+00
  0.000000000000E+00
  0.000000000000E+00
  0.000000000000E+00
  0.000000000000E+00
  0.000000000000E+00
  0.000000000000E+00
  0.000000000000E+00
  0.000000000000E+00
  0.000000000000E+00
  0.000000000000E+00
  0.000000000000E+00
  0.000000000000E+00
  0.000000000000E+00
  0.000000000000E+00
  0.000000000000E+00
  0.000000000000E+00
  0.000000000000E+00
  0.000000000000E+00
  0.000000000000E+00
  0.000000000000E+00
  0.000000000000E+00
  0.000000000000E+00
  0.000000000000E+00
  0.000000000000E+00
  0.000000000000E+00
  0.000000000000E+00
  0.000000000000E+00
  0.000000000000E+00
  0.000000000000E+00
  0.000000000000E+00
  0.000000000000E+00
  0.000000000000E+00
  0.000000000000E+00
  0.000000000000E+00
  0.000000000000E+00
  0.000000000000E+00
  0.000000000000E+00
 -0.490521449460E+01
 -0.490521449460E+01
  0.000000000000E+00
  0.000000000000E+00
  0.000000000000E+00
  0.000000000000E+00
  0.000000000000E+00
  0.000000000000E+00
  0.000000000000E+00
  0.000000000000E+00
  0.000000000000E+00
  0.000000000000E+00
  0.000000000000E+00
  0.000000000000E+00
  0.000000000000E+00
  0.000000000000E+00
  0.000000000000E+00
  0.000000000000E+00
  0.000000000000E+00
  0.000000000000E+00
  0.000000000000E+00
  0.000000000000E+00
  0.000000000000E+00
  0.000000000000E+00
  0.000000000000E+00
  0.000000000000E+00
  0.000000000000E+00
  0.000000000000E+00
  0.000000000000E+00
  0.000000000000E+00
  0.000000000000E+00
  0.000000000000E+00
  0.000000000000E+00
  0.000000000000E+00
  0.000000000000E+00
  0.000000000000E+00
  0.000000000000E+00
  0.000000000000E+00
  0.000000000000E+00
  0.000000000000E+00
  0.000000000000E+00
  0.000000000000E+00
  0.000000000000E+00
  0.000000000000E+00
  0.000000000000E+00
  0.000000000000E+00
  0.000000000000E+00
  0.000000000000E+00
  0.000000000000E+00
  0.000000000000E+00
  0.000000000000E+00
  0.000000000000E+00
  0.000000000000E+00
  0.000000000000E+00
  0.000000000000E+00
  0.000000000000E+00
 -0.461499682929E+01
 -0.461499682929E+01
  0.000000000000E+00
  0.000000000000E+00
  0.000000000000E+00
  0.000000000000E+00
  0.000000000000E+00
  0.000000000000E+00
  0.000000000000E+00
  0.000000000000E+00
  0.000000000000E+00
  0.000000000000E+00
  0.000000000000E+00
  0.000000000000E+00
  0.000000000000E+00
  0.000000000000E+00
  0.000000000000E+00
  0.000000000000E+00
  0.000000000000E+00
  0.000000000000E+00
  0.000000000000E+00
  0.000000000000E+00
  0.000000000000E+00
  0.000000000000E+00
  0.000000000000E+00
  0.000000000000E+00
  0.000000000000E+00
  0.000000000000E+00
  0.000000000000E+00
  0.000000000000E+00
  0.000000000000E+00
  0.000000000000E+00
  0.000000000000E+00
  0.000000000000E+00
  0.000000000000E+00
  0.000000000000E+00
  0.000000000000E+00
  0.000000000000E+00
  0.000000000000E+00
  0.000000000000E+00
 -0.420426886049E+01
 -0.420426886049E+01
  0.000000000000E+00
  0.000000000000E+00
  0.000000000000E+00
  0.000000000000E+00
  0.000000000000E+00
  0.000000000000E+00
  0.000000000000E+00
  0.000000000000E+00
  0.000000000000E+00
  0.000000000000E+00
  0.000000000000E+00
  0.000000000000E+00
  0.000000000000E+00
  0.000000000000E+00
  0.000000000000E+00
  0.000000000000E+00
  0.000000000000E+00
  0.000000000000E+00
  0.000000000000E+00
  0.000000000000E+00
  0.000000000000E+00
  0.000000000000E+00
  0.000000000000E+00
  0.000000000000E+00
  0.000000000000E+00
  0.000000000000E+00
  0.000000000000E+00
  0.000000000000E+00
  0.000000000000E+00
  0.000000000000E+00
  0.000000000000E+00
  0.000000000000E+00
  0.000000000000E+00
  0.000000000000E+00
  0.000000000000E+00
  0.000000000000E+00
  0.000000000000E+00
  0.000000000000E+00
 -0.367927256035E+01
 -0.367927256035E+01
  0.000000000000E+00
  0.000000000000E+00
  0.000000000000E+00
  0.000000000000E+00