# vtk DataFile Version 3.0
MachLine results file. Generated by MachLine, USU AeroLab (c) 2022.
ASCII
DATASET POLYDATA
POINTS                7064 float
  0.000000000000E+00  0.000000000000E+00  0.000000000000E+00
  0.389988087118E-01  0.000000000000E+00 -0.109218262136E+00
  0.389988087118E-01  0.000000000000E+00  0.109218262136E+00
  0.147665724158E+00  0.000000000000E+00 -0.234920635819E+00
  0.147665724158E+00  0.000000000000E+00  0.234920635819E+00
  0.161138445139E+00  0.161138445139E+00  0.000000000000E+00
  0.200137257576E+00  0.161138445139E+00 -0.109218269587E+00
  0.200137257576E+00  0.161138445139E+00  0.109218269587E+00
  0.290265858173E+00  0.000000000000E+00 -0.347333192825E+00
  0.290265858173E+00  0.000000000000E+00  0.347333192825E+00
  0.308804154396E+00  0.161138445139E+00 -0.234920650721E+00
  0.308804154396E+00  0.161138445139E+00  0.234920650721E+00
  0.335006117821E+00  0.335006117821E+00  0.000000000000E+00
  0.374004930258E+00  0.335006117821E+00 -0.109218277037E+00
  0.374004930258E+00  0.335006117821E+00  0.109218277037E+00
  0.451404303312E+00  0.161138445139E+00 -0.347333222628E+00
  0.451404303312E+00  0.161138445139E+00  0.347333222628E+00
  0.473465979099E+00  0.000000000000E+00 -0.436293870211E+00
  0.473465979099E+00  0.000000000000E+00  0.436293870211E+00
  0.482671856880E+00  0.335006117821E+00 -0.234920650721E+00
  0.482671856880E+00  0.335006117821E+00  0.234920650721E+00
  0.522506594658E+00  0.522506594658E+00  0.000000000000E+00
  0.561505436897E+00  0.522506594658E+00 -0.109218284488E+00
  0.561505436897E+00  0.522506594658E+00  0.109218284488E+00
  0.625271975994E+00  0.335006117821E+00 -0.347333222628E+00
  0.625271975994E+00  0.335006117821E+00  0.347333222628E+00
  0.634604454041E+00  0.161138445139E+00 -0.436293900013E+00
  0.634604454041E+00  0.161138445139E+00  0.436293900013E+00
  0.670172333717E+00  0.522506594658E+00 -0.234920665622E+00
  0.670172333717E+00  0.522506594658E+00  0.234920665622E+00
  0.689334988594E+00  0.000000000000E+00 -0.522850036621E+00
  0.689334988594E+00  0.000000000000E+00  0.522850036621E+00
  0.724590361118E+00  0.724590361118E+00  0.000000000000E+00
  0.763589203358E+00  0.724590361118E+00 -0.109218291938E+00
  0.763589203358E+00  0.724590361118E+00  0.109218291938E+00
  0.808472156525E+00  0.335006117821E+00 -0.436293929815E+00
  0.808472156525E+00  0.335006117821E+00  0.436293929815E+00
  0.812772512436E+00  0.522506594658E+00 -0.347333252430E+00
  0.812772512436E+00  0.522506594658E+00  0.347333252430E+00
  0.850473463535E+00  0.161138445139E+00 -0.522850036621E+00
  0.850473463535E+00  0.161138445139E+00  0.522850036621E+00
  0.872256100178E+00  0.724590361118E+00 -0.234920680523E+00
  0.872256100178E+00  0.724590361118E+00  0.234920680523E+00
  0.942254066467E+00  0.942254066467E+00  0.000000000000E+00
  0.944064557552E+00  0.000000000000E+00 -0.604293465614E+00
  0.944064557552E+00  0.000000000000E+00  0.604293465614E+00
  0.981252849102E+00  0.942254066467E+00 -0.109218299389E+00
  0.981252849102E+00  0.942254066467E+00  0.109218299389E+00
  0.995972692966E+00  0.522506594658E+00 -0.436293959618E+00
  0.995972692966E+00  0.522506594658E+00  0.436293959618E+00
  0.101485633850E+01  0.724590361118E+00 -0.347333282232E+00
  0.101485633850E+01  0.724590361118E+00  0.347333282232E+00
  0.102434122562E+01  0.335006117821E+00 -0.522850096226E+00
  0.102434122562E+01  0.335006117821E+00  0.522850096226E+00
  0.108991980553E+01  0.942254066467E+00 -0.234920710325E+00
  0.108991980553E+01  0.942254066467E+00  0.234920710325E+00
  0.110520303249E+01  0.161138445139E+00 -0.604293525219E+00
  0.110520303249E+01  0.161138445139E+00  0.604293525219E+00
  0.117653930187E+01  0.117653930187E+01  0.000000000000E+00
  0.119805645943E+01  0.724590361118E+00 -0.436293989420E+00
  0.119805645943E+01  0.724590361118E+00  0.436293989420E+00
  0.121184170246E+01  0.522506594658E+00 -0.522850096226E+00
  0.121184170246E+01  0.522506594658E+00  0.522850096226E+00
  0.121553814411E+01  0.117653930187E+01 -0.109218306839E+00
  0.121553814411E+01  0.117653930187E+01  0.109218306839E+00
  0.123251998425E+01  0.942254066467E+00 -0.347333312035E+00
  0.123251998425E+01  0.942254066467E+00  0.347333312035E+00
  0.123833239079E+01  0.000000000000E+00 -0.683996438980E+00
  0.123833239079E+01  0.000000000000E+00  0.683996438980E+00
  0.127907073498E+01  0.335006117821E+00 -0.604293525219E+00
  0.127907073498E+01  0.335006117821E+00  0.604293525219E+00
  0.132420504093E+01  0.117653930187E+01 -0.234920725226E+00
  0.132420504093E+01  0.117653930187E+01  0.234920725226E+00
  0.139947092533E+01  0.161138445139E+00 -0.683996498585E+00
  0.139947092533E+01  0.161138445139E+00  0.683996498585E+00
  0.141392552853E+01  0.724590361118E+00 -0.522850155830E+00
  0.141392552853E+01  0.724590361118E+00  0.522850155830E+00
  0.141572022438E+01  0.942254066467E+00 -0.436294019222E+00
  0.141572022438E+01  0.942254066467E+00  0.436294019222E+00
  0.142853081226E+01  0.142853081226E+01  0.000000000000E+00
  0.146657133102E+01  0.522506594658E+00 -0.604293584824E+00
  0.146657133102E+01  0.522506594658E+00  0.604293584824E+00
  0.146680521965E+01  0.117653930187E+01 -0.347333341837E+00
  0.146680521965E+01  0.117653930187E+01  0.347333341837E+00
  0.146752965450E+01  0.142853081226E+01 -0.109218314290E+00
  0.146752965450E+01  0.142853081226E+01  0.109218314290E+00
  0.157333862782E+01  0.335006117821E+00 -0.683996558189E+00
  0.157333862782E+01  0.335006117821E+00  0.683996558189E+00
  0.157619655132E+01  0.142853081226E+01 -0.234920740128E+00
  0.157619655132E+01  0.142853081226E+01  0.234920740128E+00
  0.157641971111E+01  0.000000000000E+00 -0.760520398617E+00
  0.157641971111E+01  0.000000000000E+00  0.760520398617E+00
  0.163158929348E+01  0.942254066467E+00 -0.522850155830E+00
  0.163158929348E+01  0.942254066467E+00  0.522850155830E+00
  0.165000545979E+01  0.117653930187E+01 -0.436294049025E+00
  0.165000545979E+01  0.117653930187E+01  0.436294049025E+00
  0.166865515709E+01  0.724590361118E+00 -0.604293584824E+00
  0.166865515709E+01  0.724590361118E+00  0.604293584824E+00
  0.169935321808E+01  0.169935321808E+01  0.000000000000E+00
  0.171879673004E+01  0.142853081226E+01 -0.347333371639E+00
  0.171879673004E+01  0.142853081226E+01  0.347333371639E+00
  0.173755824566E+01  0.161138445139E+00 -0.760520458221E+00
  0.173755824566E+01  0.161138445139E+00  0.760520458221E+00
  0.173835194111E+01  0.169935321808E+01 -0.109218329191E+00
  0.173835194111E+01  0.169935321808E+01  0.109218329191E+00
  0.176083922386E+01  0.522506594658E+00 -0.683996558189E+00
  0.176083922386E+01  0.522506594658E+00  0.683996558189E+00
  0.184701895714E+01  0.169935321808E+01 -0.234920755029E+00
  0.184701895714E+01  0.169935321808E+01  0.234920755029E+00
  0.186587452888E+01  0.117653930187E+01 -0.522850215435E+00
  0.186587452888E+01  0.117653930187E+01  0.522850215435E+00
  0.188631892204E+01  0.942254066467E+00 -0.604293644428E+00
  0.188631892204E+01  0.942254066467E+00  0.604293644428E+00
  0.190199697018E+01  0.142853081226E+01 -0.436294078827E+00
  0.190199697018E+01  0.142853081226E+01  0.436294078827E+00
  0.191142594814E+01  0.335006117821E+00 -0.760520458221E+00
  0.191142594814E+01  0.335006117821E+00  0.760520458221E+00
  0.196138751507E+01  0.000000000000E+00 -0.833668828011E+00
  0.196138751507E+01  0.000000000000E+00  0.833668828011E+00
  0.196292304993E+01  0.724590361118E+00 -0.683996617794E+00
  0.196292304993E+01  0.724590361118E+00  0.683996617794E+00
  0.198961913586E+01  0.169935321808E+01 -0.347333401442E+00
  0.198961913586E+01  0.169935321808E+01  0.347333401442E+00
  0.199016737938E+01  0.199016737938E+01  0.000000000000E+00
  0.202916622162E+01  0.199016737938E+01 -0.109218336642E+00
  0.202916622162E+01  0.199016737938E+01  0.109218336642E+00
  0.209892654419E+01  0.522506594658E+00 -0.760520517826E+00
  0.209892654419E+01  0.522506594658E+00  0.760520517826E+00
  0.211786603928E+01  0.142853081226E+01 -0.522850275040E+00
  0.211786603928E+01  0.142853081226E+01  0.522850275040E+00
  0.212060427666E+01  0.117653930187E+01 -0.604293704033E+00
  0.212060427666E+01  0.117653930187E+01  0.604293704033E+00
  0.212252616882E+01  0.161138445139E+00 -0.833668828011E+00
  0.212252616882E+01  0.161138445139E+00  0.833668828011E+00
  0.213783311844E+01  0.199016737938E+01 -0.234920784831E+00
  0.213783311844E+01  0.199016737938E+01  0.234920784831E+00
  0.217281937599E+01  0.169935321808E+01 -0.436294138432E+00
  0.217281937599E+01  0.169935321808E+01  0.436294138432E+00
  0.218058681488E+01  0.942254066467E+00 -0.683996677399E+00
  0.218058681488E+01  0.942254066467E+00  0.683996677399E+00
  0.228043341637E+01  0.199016737938E+01 -0.347333431244E+00
  0.228043341637E+01  0.199016737938E+01  0.347333431244E+00
  0.229639387131E+01  0.335006117821E+00 -0.833668887615E+00
  0.229639387131E+01  0.335006117821E+00  0.833668887615E+00
  0.230101037025E+01  0.724590361118E+00 -0.760520577431E+00
  0.230101037025E+01  0.724590361118E+00  0.760520577431E+00
  0.230216526985E+01  0.230216526985E+01  0.000000000000E+00
  0.234116411209E+01  0.230216526985E+01 -0.109218344092E+00
  0.234116411209E+01  0.230216526985E+01  0.109218344092E+00
  0.237259578705E+01  0.142853081226E+01 -0.604293763638E+00
  0.237259578705E+01  0.142853081226E+01  0.604293763638E+00
  0.238868856430E+01  0.169935321808E+01 -0.522850275040E+00
  0.238868856430E+01  0.169935321808E+01  0.522850275040E+00
  0.239635515213E+01  0.000000000000E+00 -0.902061045170E+00
  0.239635515213E+01  0.000000000000E+00  0.902061045170E+00
  0.241487216949E+01  0.117653930187E+01 -0.683996737003E+00
  0.241487216949E+01  0.117653930187E+01  0.683996737003E+00
  0.244983124733E+01  0.230216526985E+01 -0.234920799732E+00
  0.244983124733E+01  0.230216526985E+01  0.234920799732E+00
  0.246363353729E+01  0.199016737938E+01 -0.436294168234E+00
  0.246363353729E+01  0.199016737938E+01  0.436294168234E+00
[...]
CELL_DATA               13888
SCALARS C_p_inc float 1
LOOKUP_TABLE default
  0.202601129816E+00
  0.179573314327E+00
  0.162283584301E+00
  0.142791920237E+00
  0.140163130592E+00
  0.127476507548E+00
  0.124665660059E+00
  0.116432492402E+00
  0.113440612188E+00
  0.107656618620E+00
  0.104533091388E+00
  0.100234135711E+00
  0.970407299454E-01
  0.937159284142E-01
  0.904719866292E-01
  0.878019842260E-01
  0.844246095975E-01
  0.821614292415E-01
  0.784478445108E-01
  0.763940864647E-01
  0.724269366693E-01
  0.705850230955E-01
  0.667325055903E-01
  0.651680134879E-01
  0.613169836144E-01
  0.598758091701E-01
  0.550762847448E-01
  0.534272892636E-01
  0.488400029386E-01
  0.474950980228E-01
  0.427615825111E-01
  0.413366078049E-01
  0.352258259521E-01
  0.334781951496E-01
  0.300394535209E-01
  0.293141569110E-01
  0.259839776237E-01
  0.248866831773E-01
  0.245070702493E-01
  0.245273197522E-01
  0.249108623443E-01
  0.250425719262E-01
  0.295534020430E-01
  0.284743847279E-01
  0.397202336861E-01
  0.375129982142E-01
  0.511387575247E-01
  0.484369672835E-01
  0.781582322390E-01
  0.709319140152E-01
  0.113445161454E+00
  0.104891485571E+00
  0.151332095626E+00
  0.141547970713E+00
  0.190977103866E+00
  0.180069758102E+00
  0.231193789040E+00
  0.219352723342E+00
  0.270642746230E+00
  0.257838355061E+00
  0.312206231194E+00
  0.297087904510E+00
  0.359309242337E+00
  0.341103111841E+00
  0.411211711363E+00
  0.390333367347E+00
  0.469779862961E+00
  0.445960595533E+00
  0.532665402106E+00
  0.507098861764E+00
  0.608784313890E+00
  0.581850183215E+00
  0.690562025593E+00
  0.667985868968E+00
  0.788543452342E+00
  0.785038824810E+00
  0.846252083131E+00
  0.854919186745E+00
  0.776933351859E+00
  0.706864867841E+00
  0.327293119937E+00
  0.470499135243E+00
 -0.106536362401E-02
  0.186087588645E+00
 -0.282050553480E+00
 -0.667562499691E-01
 -0.406206254503E+00
 -0.257861493414E+00
 -0.410797535443E+00
 -0.311820106212E+00
 -0.435848246541E+00
 -0.373208988301E+00
 -0.450033485222E+00
 -0.404983822218E+00
 -0.468544978993E+00
 -0.437390960408E+00
 -0.482825981488E+00
 -0.460500835723E+00
 -0.493347847595E+00
 -0.478703500415E+00
 -0.499942543901E+00
 -0.489837115117E+00
 -0.509461938015E+00
 -0.500586506143E+00
 -0.522909522007E+00
 -0.515299243870E+00
 -0.536194060312E+00
 -0.530211595233E+00
 -0.547091339496E+00
 -0.542858970877E+00
 -0.554323498653E+00
 -0.551922346380E+00
 -0.544122927310E+00
 -0.548683171223E+00
 -0.518262040750E+00
 -0.522690470945E+00
 -0.492761667384E+00
 -0.498254190257E+00
 -0.461717239639E+00
 -0.468412791597E+00
 -0.435081926864E+00
 -0.429276385713E+00
 -0.403553064988E+00
 -0.396500444877E+00
 -0.368718071458E+00
 -0.362487534803E+00
 -0.336621584645E+00
 -0.329196101182E+00
 -0.301610203727E+00
 -0.294784932249E+00
 -0.270892979731E+00
 -0.264237547017E+00
 -0.242151636433E+00
 -0.235086835063E+00
 -0.214214587120E+00
 -0.207333925198E+00
 -0.189042236574E+00
 -0.181831361565E+00
 -0.164783653033E+00
 -0.156967650417E+00
 -0.140955871523E+00
 -0.132520537548E+00
 -0.117932976522E+00
 -0.108753634721E+00
 -0.956205989537E-01
 -0.852911482853E-01
 -0.733174433677E-01
 -0.613131009726E-01
 -0.503685059451E-01
 -0.359710761220E-01
 -0.260509963574E-01
 -0.810808178942E-02
  0.771284429861E-03
  0.243638078184E-01
  0.323883908897E-01
  0.658011290219E-01
  0.747179202253E-01
  0.123937650866E+00
  0.166185585974E+00
  0.226122759416E+00
  0.218437080993E+00
  0.201714804275E+00
  0.168874929831E+00
  0.162085979151E+00
  0.149454846543E+00
  0.140106680471E+00
  0.133131260425E+00
  0.124644185439E+00
  0.119891100802E+00
  0.113429604208E+00
  0.109383172831E+00
  0.104526502599E+00
  0.100780851903E+00
  0.970364119815E-01
  0.934507713505E-01
  0.904689436369E-01
  0.868928338328E-01
  0.844224216656E-01
  0.805882118353E-01
  0.784466465710E-01
  0.743191088852E-01
  0.724268471659E-01
  0.683896754641E-01
  0.667330225061E-01
  0.628269121079E-01
  0.613178681799E-01
  0.565799384100E-01
  0.550786969216E-01
  0.501939494038E-01
  0.488422412825E-01
  0.440738802023E-01
  0.427643935807E-01
  0.365352665023E-01
  0.352293370348E-01
  0.308078627975E-01
  0.300329020533E-01
  0.265899625665E-01
  0.259728219785E-01
  0.244301936840E-01
  0.244764927585E-01
  0.250070330714E-01
  0.245852028781E-01
  0.284439607910E-01
  0.270383079886E-01
  0.375024886047E-01
  0.349714650878E-01
  0.484356102334E-01
  0.446948713315E-01
  0.710676507187E-01
  0.644983543156E-01
  0.105065633943E+00
  0.969763569849E-01
  0.141707912676E+00
  0.132632187767E+00
  0.180148171981E+00
  0.170336423284E+00
  0.219265750376E+00
  0.208919430497E+00
  0.257517469914E+00
  0.246646572405E+00
  0.296381798676E+00
  0.284670276634E+00
  0.339558134977E+00
  0.326994578010E+00
  0.387195585750E+00
  0.374285159207E+00
  0.439797372517E+00
  0.427366800235E+00
  0.495822774468E+00
  0.484941955461E+00
  0.559828918216E+00
  0.552282418663E+00
  0.627707040173E+00
  0.624607441542E+00
  0.701172070394E+00
  0.701098649614E+00
  0.722497687364E+00
  0.709220031120E+00
  0.571948570305E+00
  0.508268628073E+00
  0.136138548625E+00
  0.212077845388E+00
 -0.140329261064E+00
 -0.353759318632E-01
 -0.399537348614E+00
 -0.279739694325E+00
 -0.506535514627E+00
 -0.394506323477E+00
 -0.488765762588E+00
 -0.405699769384E+00
 -0.497609690996E+00
 -0.434053441159E+00
 -0.497492046973E+00
 -0.449814324651E+00
 -0.505168715291E+00
 -0.469227851256E+00
 -0.510609516516E+00
 -0.483876595587E+00
 -0.514068085448E+00
 -0.494545866672E+00
 -0.515604819132E+00
 -0.501002141833E+00
 -0.522045681487E+00
 -0.510306651896E+00
 -0.533199486040E+00
 -0.523669511745E+00
 -0.544313857938E+00
 -0.536943107833E+00
 -0.552982493224E+00
 -0.547866716491E+00
 -0.557440589581E+00
 -0.555204456385E+00
 -0.542721065590E+00
 -0.545087458191E+00
 -0.515174471895E+00
 -0.518966116271E+00
 -0.488292130774E+00
 -0.493344733316E+00
 -0.456124181753E+00
 -0.462167406078E+00
 -0.429271159866E+00
 -0.423690928268E+00
 -0.396446060678E+00
 -0.390167980016E+00
 -0.362442598933E+00
 -0.356136247805E+00
 -0.329132158301E+00
 -0.322234927812E+00
 -0.294739230299E+00
 -0.287915281472E+00
 -0.264202058754E+00
 -0.257333928337E+00
 -0.235056866395E+00
 -0.227933972494E+00
 -0.207314842712E+00
 -0.200047620937E+00
 -0.181817261437E+00
 -0.174145622400E+00
 -0.156958715647E+00
 -0.148682458717E+00
 -0.132518120123E+00
 -0.123512875111E+00
 -0.108757245824E+00
 -0.987895491842E-01
 -0.853004714007E-01
 -0.739743685859E-01
 -0.613300850723E-01
 -0.481168764151E-01
 -0.360005916682E-01
 -0.201975339965E-01
 -0.816179938170E-02
  0.110919835971E-01
  0.242506628965E-01
  0.473167373225E-01
  0.654849816274E-01
  0.890458694829E-01
  0.122724410892E+00
  0.134899442374E+00
  0.220076511148E+00
  0.202930115121E+00
  0.226428754743E+00
  0.217320029235E+00
  0.173562768706E+00
  0.168556949307E+00
  0.153819306950E+00
  0.149288038885E+00
  0.138679529677E+00
  0.133056540383E+00
  0.125617993264E+00
  0.119856374405E+00
  0.114320598151E+00
  0.109364584374E+00
  0.104780552626E+00
  0.100769623136E+00
  0.966788881753E-01
  0.934433609736E-01
  0.895508128731E-01
  0.868877259776E-01
  0.828496237816E-01
  0.805850711474E-01
  0.762970692311E-01
  0.743180053480E-01
  0.701315360467E-01
  0.683900601440E-01
  0.643891899461E-01
  0.628281643218E-01
  0.580581640053E-01
  0.565829868550E-01
  0.515592114358E-01
  0.501983311568E-01
  0.453336725859E-01
  0.440789278499E-01
  0.377106763343E-01
  0.365409647157E-01
  0.315985786006E-01
  0.308041073109E-01
  0.270494631179E-01
  0.265764886715E-01
  0.243392527040E-01
  0.243910988716E-01
  0.245573981521E-01
  0.239514564190E-01
  0.270429933210E-01
  0.255692920897E-01
  0.350352367365E-01
  0.324441909826E-01
  0.448464732475E-01
  0.409708553662E-01
  0.648286389628E-01
  0.588783023809E-01
  0.973312055987E-01
  0.898166870481E-01
  0.132897348230E+00
  0.124526676375E+00
  0.170397235740E+00
  0.161511035140E+00
  0.208656232104E+00
  0.199500118285E+00
  0.245961257803E+00
  0.236657026747E+00
  0.283356089811E+00
  0.273940248131E+00
  0.324554959591E+00
  0.315207970738E+00
  0.370011348812E+00
  0.361189008624E+00
  0.420168096789E+00
  0.412596338683E+00
  0.473512482420E+00
  0.467904406603E+00
  0.534050282655E+00
  0.531252342716E+00
  0.597331501514E+00
  0.596989368263E+00
  0.661270844634E+00
  0.658890052941E+00
  0.661872046841E+00
  0.643711392597E+00
  0.469000321431E+00
  0.410328231779E+00
  0.158193089597E-01
  0.799439546105E-01
 -0.246069057265E+00
 -0.161558945392E+00
 -0.495944393730E+00
 -0.399118144888E+00
 -0.589268363013E+00
 -0.495382578118E+00
 -0.554997666191E+00
 -0.481278142915E+00
 -0.551937662972E+00
 -0.492290314988E+00
 -0.541189056790E+00
 -0.494350909431E+00
 -0.540312422204E+00
 -0.503452828807E+00
 -0.538413717637E+00
 -0.509901341333E+00
 -0.535884458498E+00
 -0.513997584538E+00
 -0.532861111772E+00
 -0.515832744141E+00
 -0.536011255890E+00
 -0.522382971952E+00
 -0.544556850557E+00
 -0.533643832124E+00
 -0.553260966460E+00
 -0.544904672378E+00
 -0.559450946314E+00
 -0.553767565618E+00
 -0.560749922534E+00
 -0.558548321375E+00
 -0.542531724848E+00
 -0.544052452614E+00
 -0.512909250339E+00
 -0.516318596941E+00
 -0.484441304609E+00
 -0.489311258695E+00
 -0.451137545423E+00
 -0.456965146153E+00
 -0.423651728235E+00
 -0.418225169137E+00
 -0.390075244403E+00
 -0.384057436608E+00
 -0.356038856033E+00
 -0.349689237630E+00
 -0.322132818456E+00
 -0.315341896870E+00
 -0.287836345151E+00
 -0.280946073667E+00
 -0.257269780370E+00
 -0.250200137593E+00
 -0.227884741240E+00
 -0.220558575136E+00
 -0.200012962398E+00
 -0.192395060864E+00
 -0.174120200916E+00
 -0.166009970411E+00
 -0.148667542025E+00
 -0.139900150010E+00
 -0.123509764025E+00
 -0.113916638749E+00
 -0.987979595659E-01
 -0.881124535085E-01
 -0.739961538766E-01
 -0.618671953264E-01
 -0.481591702183E-01
 -0.342317481452E-01
 -0.202775912854E-01
 -0.441336428940E-02
  0.109299081946E-01
  0.279304098793E-01
  0.469516021249E-01
  0.620883958291E-01
  0.882001654605E-01
  0.967859198704E-01
  0.133279713394E+00
  0.132248696543E+00
  0.200997022468E+00
  0.189035898701E+00
  0.216286402763E+00
  0.225130655040E+00
  0.172642387721E+00
  0.173137484630E+00
  0.155181388213E+00
  0.153591950674E+00
  0.141365364952E+00
  0.138548936388E+00
  0.129375048202E+00
  0.125546814581E+00
  0.118464002578E+00
  0.114282242135E+00
  0.108639478795E+00
  0.104758591020E+00
  0.999982525151E-01
  0.966652920604E-01
  0.923468360135E-01
  0.895419655909E-01
  0.852273996796E-01
  0.828442262513E-01
  0.783617439097E-01
  0.762947504970E-01
  0.719484334637E-01
  0.701315314658E-01
  0.660060600389E-01
  0.643906357688E-01
  0.595422341395E-01
  0.580617799657E-01
  0.529283790618E-01
  0.515648590569E-01
  0.465671124443E-01
  0.453399555394E-01
  0.388122688840E-01
  0.377171643658E-01
  0.323955021799E-01
  0.315967672557E-01
  0.274478337632E-01
  0.270336106326E-01
  0.242474572720E-01
  0.242974245648E-01
  0.239338061877E-01
  0.232546530169E-01
  0.255948265142E-01
  0.241171212526E-01
  0.325447814093E-01
  0.299951127056E-01
  0.411843993402E-01
  0.373790684022E-01
  0.592440776332E-01
  0.538186258580E-01
  0.901900773163E-01
  0.833062709082E-01
  0.124762892059E+00
  0.117095408333E+00
  0.161474766509E+00
  0.153443404731E+00
  0.199060259181E+00
  0.190956274898E+00
  0.235706360811E+00
  0.227720519782E+00
  0.272284427508E+00
  0.264590411474E+00
  0.312428827960E+00
  0.305293005327E+00
  0.356733427026E+00
  0.350533810920E+00
  0.405710935867E+00
  0.400953735503E+00
  0.457830161135E+00
  0.454926603658E+00
  0.516679375034E+00
  0.515850046811E+00
  0.577270649644E+00
  0.577511819541E+00
  0.633847691211E+00
  0.629856906961E+00
  0.617772941203E+00
  0.597607793901E+00
  0.391012119951E+00
  0.335552316719E+00
 -0.818159841015E-01
 -0.231228804964E-01
 -0.335169884940E+00
 -0.260971846407E+00
 -0.579537953638E+00
 -0.494993708799E+00
 -0.662350035115E+00
 -0.579414637183E+00
 -0.614564381375E+00
 -0.547465191185E+00
 -0.601859525119E+00
 -0.545895836552E+00
 -0.582392600789E+00
 -0.537053942572E+00
 -0.574334402158E+00
 -0.537575357411E+00
 -0.566175331113E+00
 -0.536794309024E+00
 -0.558402238962E+00
 -0.535054020800E+00
 -0.551122718424E+00
 -0.532531506750E+00
 -0.550951369403E+00
 -0.535994943952E+00
 -0.556744352382E+00
 -0.544802041820E+00
 -0.562863868071E+00
 -0.553784355704E+00
 -0.566338326407E+00
 -0.560308698589E+00
 -0.564383432371E+00
 -0.562063203893E+00
 -0.543109087105E+00
 -0.544079144656E+00
 -0.511227718320E+00
 -0.514347144821E+00
 -0.481049178863E+00
 -0.485766515768E+00
 -0.446549047691E+00
 -0.452264707983E+00
 -0.418190951687E+00
 -0.412890763660E+00
 -0.383955743785E+00
 -0.378069020208E+00
 -0.349563874924E+00
 -0.343189786735E+00
 -0.315214159437E+00
 -0.308443566477E+00
 -0.280840963171E+00
 -0.273850187283E+00
 -0.250111728776E+00
 -0.242850887200E+00
 -0.220489852683E+00
 -0.212920910499E+00
 -0.192344274526E+00
 -0.184374975907E+00
 -0.165972571286E+00
 -0.157440397687E+00
 -0.139878217604E+00
 -0.130633286485E+00
 -0.113912227572E+00
 -0.103779331147E+00
 -0.881271356878E-01
 -0.768948378630E-01
 -0.619071805270E-01
 -0.494263886620E-01
 -0.343136918401E-01
 -0.207348510841E-01
 -0.457437635422E-02
  0.920154683560E-02
  0.276157627239E-01
  0.396164705220E-01
  0.615126428295E-01
  0.696371677393E-01
  0.958959564709E-01
  0.997886630710E-01
  0.131200151626E+00
  0.133232199395E+00
  0.188412209882E+00
  0.197211661362E+00
  0.214040178207E+00
  0.216001669981E+00
  0.170636588546E+00
  0.172305272546E+00
  0.154525851567E+00
  0.154941886573E+00
  0.142039099582E+00
  0.141206557406E+00
  0.131234607303E+00
  0.129273360848E+00
  0.121235468999E+00
  0.118402158114E+00
  0.111824560699E+00
  0.108602763722E+00
  0.103112956709E+00
  0.999759470721E-01
  0.951481361169E-01
  0.923328343412E-01
  0.876729504959E-01
  0.852189580204E-01
  0.804970592887E-01
  0.783577202961E-01
  0.738291903732E-01
  0.719476656492E-01
  0.676749282579E-01
  0.660074284472E-01
  0.610476726637E-01
  0.595462033351E-01
  0.543001555548E-01
  0.529348264722E-01
  0.477890675225E-01
  0.465743334866E-01
  0.398705325958E-01
  0.388193332665E-01
  0.331843091744E-01
  0.323951178219E-01
  0.278317651089E-01
  0.274312806157E-01
  0.241595167541E-01
  0.242050103076E-01
  0.232436726444E-01
  0.225592349620E-01
  0.241549731596E-01
  0.227077023879E-01
  0.301135018556E-01
  0.276681577691E-01
  0.376165881831E-01
  0.339907668105E-01
  0.541811473159E-01
  0.492182719222E-01
  0.836593813057E-01
  0.774503607801E-01
  0.117285433985E+00
  0.110351111257E+00
  0.153324180805E+00
  0.146127451760E+00
  0.190394818828E+00
  0.183261090068E+00
  0.226613554383E+00
  0.219771748475E+00
  0.262773657684E+00
  0.256452375798E+00
  0.302439080392E+00
  0.296928203141E+00
  0.346239425863E+00
  0.341843526865E+00
  0.394713172837E+00
  0.391756900051E+00
  0.446316539258E+00
  0.444978569793E+00
  0.504190110692E+00
  0.504312757532E+00
  0.562800931258E+00
  0.563057773566E+00
  0.612948027320E+00
  0.607890010377E+00
  0.582181123638E+00
  0.561156263408E+00
  0.325456274133E+00
  0.272405692393E+00
 -0.167066956658E+00
 -0.111247565391E+00
 -0.414335244672E+00
 -0.346241036396E+00
 -0.655039326814E+00
 -0.578175902213E+00
 -0.729111442666E+00
 -0.653533961866E+00
 -0.669548366136E+00
 -0.607376967315E+00
 -0.648587243413E+00
 -0.595730378558E+00
 -0.621619937844E+00
 -0.577857238956E+00
 -0.607354465002E+00
 -0.571051167140E+00
 -0.593719857776E+00
 -0.563969605397E+00
 -0.581238653737E+00
 -0.557030474283E+00
 -0.569946087062E+00
 -0.550371868910E+00
 -0.566486972974E+00
 -0.550654545705E+00
 -0.569462918907E+00
 -0.556836567168E+00
 -0.572880251648E+00
 -0.563356709228E+00
 -0.573480110265E+00
 -0.567293706357E+00
 -0.568393713215E+00
 -0.565863210729E+00
 -0.544247190082E+00
 -0.544829540342E+00
 -0.510015366255E+00
 -0.512901558462E+00
 -0.478055799423E+00
 -0.482624106643E+00
 -0.442260184982E+00
 -0.447920774254E+00
 -0.412884381239E+00
 -0.407696834569E+00
 -0.377974461244E+00
 -0.372151203373E+00
 -0.343052938491E+00
 -0.336670314297E+00
 -0.308300922834E+00
 -0.301506813669E+00
 -0.273726216782E+00
 -0.266614621787E+00
 -0.242743857956E+00
 -0.235292871850E+00
 -0.212835776329E+00
 -0.205005449959E+00
 -0.184310220962E+00
 -0.175998559838E+00
 -0.157392871239E+00
 -0.148468854246E+00
 -0.130606128498E+00
 -0.120945115414E+00
 -0.103776198610E+00
 -0.932606754875E-01
 -0.769206952200E-01
 -0.655148915021E-01
 -0.494938602852E-01
 -0.374319612236E-01
 -0.208708875412E-01
 -0.891454052107E-02
  0.895221950597E-02
  0.194934136153E-01
  0.392042285862E-01
  0.471734040682E-01
  0.690432225864E-01
  0.743426884391E-01
  0.990376964279E-01
  0.102538114318E+00
  0.132306107813E+00
  0.134870158988E+00
  0.195319360468E+00
  0.196098164514E+00
  0.220723890337E+00
  0.213808676973E+00
  0.171448920849E+00
  0.170420093343E+00
  0.154192412165E+00
  0.154330534053E+00
  0.141927639810E+00
  0.141883316338E+00
  0.131849261486E+00
  0.131119647047E+00
  0.122714729067E+00
  0.121155890867E+00
  0.114025889426E+00
  0.111772496792E+00
  0.105688218023E+00
  0.103079964017E+00
  0.977428548550E-01
  0.951273854101E-01
  0.900821750727E-01
  0.876604237023E-01
  0.826588559384E-01
  0.804906700199E-01
  0.757523134592E-01
  0.738272016094E-01
  0.693862761516E-01
  0.676758848200E-01
  0.625795746913E-01
  0.610517646254E-01
  0.556789328550E-01
  0.543071131941E-01
  0.490082412704E-01
  0.477971014596E-01
  0.409064683953E-01
  0.398783233370E-01
  0.339640580676E-01
  0.331853756522E-01
  0.282272106053E-01
  0.278166734763E-01
  0.240902732967E-01
  0.241189826865E-01
  0.225527698950E-01
  0.219084887068E-01
  0.227534646576E-01
  0.213741021268E-01
  0.277942793857E-01
  0.255018845883E-01
  0.342327899960E-01
  0.308594285496E-01
  0.495638091966E-01
  0.450524395725E-01
  0.777687164985E-01
  0.722361314349E-01
  0.110493413471E+00
  0.104311026055E+00
  0.145945244598E+00
  0.139565405119E+00
  0.182625995773E+00
  0.176395034253E+00
  0.218590948081E+00
  0.212760235334E+00
  0.254593834040E+00
  0.249410453182E+00
  0.294143884823E+00
  0.289887026094E+00
  0.337850281869E+00
  0.334761494387E+00
  0.386223590709E+00
  0.384493523407E+00
  0.437684614355E+00
  0.437327011817E+00
  0.494917960051E+00
  0.495540873692E+00
  0.551837777860E+00
  0.551948244155E+00
  0.596052852705E+00
  0.590275921361E+00
  0.551757503524E+00
  0.530386923243E+00
  0.267316337463E+00
  0.216134907045E+00
 -0.244627041109E+00
 -0.190420076879E+00
 -0.487000069035E+00
 -0.422845820593E+00
 -0.725028435676E+00
 -0.653395364141E+00
 -0.791421309340E+00
 -0.721141479338E+00
 -0.721189482240E+00
 -0.662807853324E+00
 -0.692885190513E+00
 -0.642622935062E+00
 -0.659259249097E+00
 -0.616984274197E+00
 -0.639495265824E+00
 -0.603808606876E+00
 -0.620959248790E+00
 -0.591169769333E+00
 -0.604159456380E+00
 -0.579520680167E+00
 -0.589054102366E+00
 -0.568912965946E+00
 -0.582361053309E+00
 -0.565998571106E+00
 -0.582484446437E+00
 -0.569458920480E+00
 -0.583112229946E+00
 -0.573376947395E+00
 -0.580773789982E+00
 -0.574532797313E+00
 -0.572723772206E+00
 -0.569993759890E+00
 -0.545794929899E+00
 -0.546108246398E+00
 -0.509177080631E+00
 -0.511879595724E+00
 -0.475396169372E+00
 -0.479836165207E+00
 -0.438205451280E+00
 -0.443843317552E+00
 -0.407732573232E+00
 -0.402633014648E+00
 -0.372074299742E+00
 -0.366277641635E+00
 -0.336534928781E+00
 -0.330141952940E+00
 -0.301358151161E+00
 -0.294511043105E+00
 -0.266478536616E+00
 -0.259234963171E+00
 -0.235172508407E+00
 -0.227527979212E+00
 -0.204907321155E+00
 -0.196816507546E+00
 -0.175922544741E+00
 -0.167298195465E+00
 -0.148413644783E+00
 -0.139164295444E+00
 -0.120915421156E+00
 -0.110977906323E+00
 -0.932627049513E-01
 -0.826615798430E-01
 -0.655578968039E-01
 -0.545352678339E-01
 -0.375338669304E-01
 -0.267005563540E-01
 -0.910307198550E-02
  0.609134595194E-03