# vtk DataFile Version 3.0
MachLine results file. Generated by MachLine, USU AeroLab (c) 2022.
ASCII
DATASET POLYDATA
POINTS                  36 float
  0.209237651825E+02  0.192375373840E+01  0.000000000000E+00
  0.190000000000E+02  0.000000000000E+00  0.000000000000E+00
  0.148292928895E+05  0.192375373840E+01  0.218670970335E+04
  0.148301931916E+05  0.000000000000E+00  0.218712672533E+04
  0.244703655243E+02  0.547033166885E+01  0.000000000000E+00
  0.209237651825E+02  0.192375373840E+01  0.000000000000E+00
  0.148276331173E+05  0.547033166885E+01  0.218594089315E+04
  0.148292928895E+05  0.192375373840E+01  0.218670970335E+04
  0.303820724487E+02  0.113820018768E+02  0.000000000000E+00
  0.244703655243E+02  0.547033166885E+01  0.000000000000E+00
  0.148248664998E+05  0.113820018768E+02  0.218465938969E+04
  0.148276331173E+05  0.547033166885E+01  0.218594089315E+04
  0.387563171387E+02  0.197561950684E+02  0.000000000000E+00
  0.303820724487E+02  0.113820018768E+02  0.000000000000E+00
  0.148209474402E+05  0.197561950684E+02  0.218284407245E+04
  0.148248664998E+05  0.113820018768E+02  0.218465938969E+04
  0.482439842224E+02  0.292438049316E+02  0.000000000000E+00
  0.387563171387E+02  0.197561950684E+02  0.000000000000E+00
  0.148165073104E+05  0.292438049316E+02  0.218078739435E+04
  0.148209474402E+05  0.197561950684E+02  0.218284407245E+04
  0.566182289124E+02  0.376179962158E+02  0.000000000000E+00
  0.482439842224E+02  0.292438049316E+02  0.000000000000E+00
  0.148125882508E+05  0.376179962158E+02  0.217897207710E+04
  0.148165073104E+05  0.292438049316E+02  0.218078739435E+04
  0.625299339294E+02  0.435296669006E+02  0.000000000000E+00
  0.566182289124E+02  0.376179962158E+02  0.000000000000E+00
  0.148098216342E+05  0.435296669006E+02  0.217769057406E+04
  0.148125882508E+05  0.376179962158E+02  0.217897207710E+04
  0.660765380859E+02  0.470762481689E+02  0.000000000000E+00
  0.625299339294E+02  0.435296669006E+02  0.000000000000E+00
  0.148081618603E+05  0.470762481689E+02  0.217692176303E+04
  0.148098216342E+05  0.435296669006E+02  0.217769057406E+04
  0.680002975464E+02  0.490000000000E+02  0.000000000000E+00
  0.660765380859E+02  0.470762481689E+02  0.000000000000E+00
  0.148072615608E+05  0.490000000000E+02  0.217650474229E+04
  0.148081618603E+05  0.470762481689E+02  0.217692176303E+04
POLYGONS                  18                  72
3                   0                   3                   1
3                   0                   2                   3
3                   4                   7                   5
3                   4                   6                   7
3                   8                  11                   9
3                   8                  10                  11
3                  12                  15                  13
3                  12                  14                  15
3                  16                  19                  17
3                  16                  18                  19
3                  20                  23                  21
3                  20                  22                  23
3                  24                  27                  25
3                  24                  26                  27
3                  28                  31                  29
3                  28                  30                  31
3                  32                  35                  33
3                  32                  34                  35
POINT_DATA                  36
SCALARS mu float 1
LOOKUP_TABLE default
 -0.140706376444E+01
  0.124232588864E-03
 -0.140706376444E+01
  0.124232588864E-03
 -0.240645038682E+01
 -0.140706376444E+01
 -0.240645038682E+01
 -0.140706376444E+01
 -0.321000320309E+01
 -0.240645038682E+01
 -0.321000320309E+01
 -0.240645038682E+01
 -0.377371737529E+01
 -0.321000320309E+01
 -0.377371737529E+01
 -0.321000320309E+01
 -0.395975617837E+01
 -0.377371737529E+01
 -0.395975617837E+01
 -0.377371737529E+01
 -0.363525210289E+01
 -0.395975617837E+01
 -0.363525210289E+01
 -0.395975617837E+01
 -0.278081082366E+01
 -0.363525210289E+01
 -0.278081082366E+01
 -0.363525210289E+01
 -0.152994656550E+01
 -0.278081082366E+01
 -0.152994656550E+01
 -0.278081082366E+01
  0.000000000000E+00
 -0.152994656550E+01
  0.000000000000E+00
 -0.152994656550E+01
