# vtk DataFile Version 3.0
MachLine results file. Generated by MachLine, USU AeroLab (c) 2022.
ASCII
DATASET POLYDATA
POINTS                7064 float
  0.000000000000E+00  0.000000000000E+00  0.000000000000E+00
  0.389988087118E-01  0.000000000000E+00 -0.109218262136E+00
  0.389988087118E-01  0.000000000000E+00  0.109218262136E+00
  0.147665724158E+00  0.000000000000E+00 -0.234920635819E+00
  0.147665724158E+00  0.000000000000E+00  0.234920635819E+00
  0.161138445139E+00  0.161138445139E+00  0.000000000000E+00
  0.200137257576E+00  0.161138445139E+00 -0.109218269587E+00
  0.200137257576E+00  0.161138445139E+00  0.109218269587E+00
  0.290265858173E+00  0.000000000000E+00 -0.347333192825E+00
  0.290265858173E+00  0.000000000000E+00  0.347333192825E+00
  0.308804154396E+00  0.161138445139E+00 -0.234920650721E+00
  0.308804154396E+00  0.161138445139E+00  0.234920650721E+00
  0.335006117821E+00  0.335006117821E+00  0.000000000000E+00
  0.374004930258E+00  0.335006117821E+00 -0.109218277037E+00
  0.374004930258E+00  0.335006117821E+00  0.109218277037E+00
  0.451404303312E+00  0.161138445139E+00 -0.347333222628E+00
  0.451404303312E+00  0.161138445139E+00  0.347333222628E+00
  0.473465979099E+00  0.000000000000E+00 -0.436293870211E+00
  0.473465979099E+00  0.000000000000E+00  0.436293870211E+00
  0.482671856880E+00  0.335006117821E+00 -0.234920650721E+00
  0.482671856880E+00  0.335006117821E+00  0.234920650721E+00
  0.522506594658E+00  0.522506594658E+00  0.000000000000E+00
  0.561505436897E+00  0.522506594658E+00 -0.109218284488E+00
  0.561505436897E+00  0.522506594658E+00  0.109218284488E+00
  0.625271975994E+00  0.335006117821E+00 -0.347333222628E+00
  0.625271975994E+00  0.335006117821E+00  0.347333222628E+00
  0.634604454041E+00  0.161138445139E+00 -0.436293900013E+00
  0.634604454041E+00  0.161138445139E+00  0.436293900013E+00
  0.670172333717E+00  0.522506594658E+00 -0.234920665622E+00
  0.670172333717E+00  0.522506594658E+00  0.234920665622E+00
  0.689334988594E+00  0.000000000000E+00 -0.522850036621E+00
  0.689334988594E+00  0.000000000000E+00  0.522850036621E+00
  0.724590361118E+00  0.724590361118E+00  0.000000000000E+00
  0.763589203358E+00  0.724590361118E+00 -0.109218291938E+00
  0.763589203358E+00  0.724590361118E+00  0.109218291938E+00
  0.808472156525E+00  0.335006117821E+00 -0.436293929815E+00
  0.808472156525E+00  0.335006117821E+00  0.436293929815E+00
  0.812772512436E+00  0.522506594658E+00 -0.347333252430E+00
  0.812772512436E+00  0.522506594658E+00  0.347333252430E+00
  0.850473463535E+00  0.161138445139E+00 -0.522850036621E+00
  0.850473463535E+00  0.161138445139E+00  0.522850036621E+00
  0.872256100178E+00  0.724590361118E+00 -0.234920680523E+00
  0.872256100178E+00  0.724590361118E+00  0.234920680523E+00
  0.942254066467E+00  0.942254066467E+00  0.000000000000E+00
  0.944064557552E+00  0.000000000000E+00 -0.604293465614E+00
  0.944064557552E+00  0.000000000000E+00  0.604293465614E+00
  0.981252849102E+00  0.942254066467E+00 -0.109218299389E+00
  0.981252849102E+00  0.942254066467E+00  0.109218299389E+00
  0.995972692966E+00  0.522506594658E+00 -0.436293959618E+00
  0.995972692966E+00  0.522506594658E+00  0.436293959618E+00
  0.101485633850E+01  0.724590361118E+00 -0.347333282232E+00
  0.101485633850E+01  0.724590361118E+00  0.347333282232E+00
  0.102434122562E+01  0.335006117821E+00 -0.522850096226E+00
  0.102434122562E+01  0.335006117821E+00  0.522850096226E+00
  0.108991980553E+01  0.942254066467E+00 -0.234920710325E+00
  0.108991980553E+01  0.942254066467E+00  0.234920710325E+00
  0.110520303249E+01  0.161138445139E+00 -0.604293525219E+00
  0.110520303249E+01  0.161138445139E+00  0.604293525219E+00
  0.117653930187E+01  0.117653930187E+01  0.000000000000E+00
  0.119805645943E+01  0.724590361118E+00 -0.436293989420E+00
  0.119805645943E+01  0.724590361118E+00  0.436293989420E+00
  0.121184170246E+01  0.522506594658E+00 -0.522850096226E+00
  0.121184170246E+01  0.522506594658E+00  0.522850096226E+00
  0.121553814411E+01  0.117653930187E+01 -0.109218306839E+00
  0.121553814411E+01  0.117653930187E+01  0.109218306839E+00
  0.123251998425E+01  0.942254066467E+00 -0.347333312035E+00
  0.123251998425E+01  0.942254066467E+00  0.347333312035E+00
  0.123833239079E+01  0.000000000000E+00 -0.683996438980E+00
  0.123833239079E+01  0.000000000000E+00  0.683996438980E+00
  0.127907073498E+01  0.335006117821E+00 -0.604293525219E+00
  0.127907073498E+01  0.335006117821E+00  0.604293525219E+00
  0.132420504093E+01  0.117653930187E+01 -0.234920725226E+00
  0.132420504093E+01  0.117653930187E+01  0.234920725226E+00
  0.139947092533E+01  0.161138445139E+00 -0.683996498585E+00
  0.139947092533E+01  0.161138445139E+00  0.683996498585E+00
  0.141392552853E+01  0.724590361118E+00 -0.522850155830E+00
  0.141392552853E+01  0.724590361118E+00  0.522850155830E+00
  0.141572022438E+01  0.942254066467E+00 -0.436294019222E+00
  0.141572022438E+01  0.942254066467E+00  0.436294019222E+00
  0.142853081226E+01  0.142853081226E+01  0.000000000000E+00
  0.146657133102E+01  0.522506594658E+00 -0.604293584824E+00
  0.146657133102E+01  0.522506594658E+00  0.604293584824E+00
  0.146680521965E+01  0.117653930187E+01 -0.347333341837E+00
  0.146680521965E+01  0.117653930187E+01  0.347333341837E+00
  0.146752965450E+01  0.142853081226E+01 -0.109218314290E+00
  0.146752965450E+01  0.142853081226E+01  0.109218314290E+00
  0.157333862782E+01  0.335006117821E+00 -0.683996558189E+00
  0.157333862782E+01  0.335006117821E+00  0.683996558189E+00
  0.157619655132E+01  0.142853081226E+01 -0.234920740128E+00
  0.157619655132E+01  0.142853081226E+01  0.234920740128E+00
  0.157641971111E+01  0.000000000000E+00 -0.760520398617E+00
  0.157641971111E+01  0.000000000000E+00  0.760520398617E+00
  0.163158929348E+01  0.942254066467E+00 -0.522850155830E+00
  0.163158929348E+01  0.942254066467E+00  0.522850155830E+00
  0.165000545979E+01  0.117653930187E+01 -0.436294049025E+00
  0.165000545979E+01  0.117653930187E+01  0.436294049025E+00
  0.166865515709E+01  0.724590361118E+00 -0.604293584824E+00
  0.166865515709E+01  0.724590361118E+00  0.604293584824E+00
  0.169935321808E+01  0.169935321808E+01  0.000000000000E+00
  0.171879673004E+01  0.142853081226E+01 -0.347333371639E+00
  0.171879673004E+01  0.142853081226E+01  0.347333371639E+00
  0.173755824566E+01  0.161138445139E+00 -0.760520458221E+00
  0.173755824566E+01  0.161138445139E+00  0.760520458221E+00
  0.173835194111E+01  0.169935321808E+01 -0.109218329191E+00
  0.173835194111E+01  0.169935321808E+01  0.109218329191E+00
  0.176083922386E+01  0.522506594658E+00 -0.683996558189E+00
  0.176083922386E+01  0.522506594658E+00  0.683996558189E+00
  0.184701895714E+01  0.169935321808E+01 -0.234920755029E+00
  0.184701895714E+01  0.169935321808E+01  0.234920755029E+00
  0.186587452888E+01  0.117653930187E+01 -0.522850215435E+00
  0.186587452888E+01  0.117653930187E+01  0.522850215435E+00
  0.188631892204E+01  0.942254066467E+00 -0.604293644428E+00
  0.188631892204E+01  0.942254066467E+00  0.604293644428E+00
  0.190199697018E+01  0.142853081226E+01 -0.436294078827E+00
  0.190199697018E+01  0.142853081226E+01  0.436294078827E+00
  0.191142594814E+01  0.335006117821E+00 -0.760520458221E+00
  0.191142594814E+01  0.335006117821E+00  0.760520458221E+00
  0.196138751507E+01  0.000000000000E+00 -0.833668828011E+00
  0.196138751507E+01  0.000000000000E+00  0.833668828011E+00
  0.196292304993E+01  0.724590361118E+00 -0.683996617794E+00
  0.196292304993E+01  0.724590361118E+00  0.683996617794E+00
  0.198961913586E+01  0.169935321808E+01 -0.347333401442E+00
  0.198961913586E+01  0.169935321808E+01  0.347333401442E+00
  0.199016737938E+01  0.199016737938E+01  0.000000000000E+00
  0.202916622162E+01  0.199016737938E+01 -0.109218336642E+00
  0.202916622162E+01  0.199016737938E+01  0.109218336642E+00
  0.209892654419E+01  0.522506594658E+00 -0.760520517826E+00
  0.209892654419E+01  0.522506594658E+00  0.760520517826E+00
  0.211786603928E+01  0.142853081226E+01 -0.522850275040E+00
  0.211786603928E+01  0.142853081226E+01  0.522850275040E+00
  0.212060427666E+01  0.117653930187E+01 -0.604293704033E+00
  0.212060427666E+01  0.117653930187E+01  0.604293704033E+00
  0.212252616882E+01  0.161138445139E+00 -0.833668828011E+00
  0.212252616882E+01  0.161138445139E+00  0.833668828011E+00
  0.213783311844E+01  0.199016737938E+01 -0.234920784831E+00
  0.213783311844E+01  0.199016737938E+01  0.234920784831E+00
  0.217281937599E+01  0.169935321808E+01 -0.436294138432E+00
  0.217281937599E+01  0.169935321808E+01  0.436294138432E+00
  0.218058681488E+01  0.942254066467E+00 -0.683996677399E+00
  0.218058681488E+01  0.942254066467E+00  0.683996677399E+00
  0.228043341637E+01  0.199016737938E+01 -0.347333431244E+00
  0.228043341637E+01  0.199016737938E+01  0.347333431244E+00
  0.229639387131E+01  0.335006117821E+00 -0.833668887615E+00
  0.229639387131E+01  0.335006117821E+00  0.833668887615E+00
  0.230101037025E+01  0.724590361118E+00 -0.760520577431E+00
  0.230101037025E+01  0.724590361118E+00  0.760520577431E+00
  0.230216526985E+01  0.230216526985E+01  0.000000000000E+00
  0.234116411209E+01  0.230216526985E+01 -0.109218344092E+00
  0.234116411209E+01  0.230216526985E+01  0.109218344092E+00
  0.237259578705E+01  0.142853081226E+01 -0.604293763638E+00
  0.237259578705E+01  0.142853081226E+01  0.604293763638E+00
  0.238868856430E+01  0.169935321808E+01 -0.522850275040E+00
  0.238868856430E+01  0.169935321808E+01  0.522850275040E+00
  0.239635515213E+01  0.000000000000E+00 -0.902061045170E+00
  0.239635515213E+01  0.000000000000E+00  0.902061045170E+00
  0.241487216949E+01  0.117653930187E+01 -0.683996737003E+00
  0.241487216949E+01  0.117653930187E+01  0.683996737003E+00
  0.244983124733E+01  0.230216526985E+01 -0.234920799732E+00
  0.244983124733E+01  0.230216526985E+01  0.234920799732E+00
  0.246363353729E+01  0.199016737938E+01 -0.436294168234E+00
  0.246363353729E+01  0.199016737938E+01  0.436294168234E+00
[...]
CELL_DATA               13888
SCALARS C_p_inc float 1
LOOKUP_TABLE default
  0.202689167073E+00
  0.180022176556E+00
  0.162394341592E+00
  0.142892730141E+00
  0.140229333742E+00
  0.127523807662E+00
  0.124704453035E+00
  0.116461488448E+00
  0.113465340011E+00
  0.107676341394E+00
  0.104550057457E+00
  0.100248353577E+00
  0.970529880729E-01
  0.937265788449E-01
  0.904811786759E-01
  0.878101897230E-01
  0.844316994888E-01
  0.821678892955E-01
  0.784534382056E-01
  0.763992654610E-01
  0.724314344758E-01
  0.705892394719E-01
  0.667361792848E-01
  0.651714915554E-01
  0.613200267863E-01
  0.598787136090E-01
  0.550788414551E-01
  0.534297466114E-01
  0.488421777793E-01
  0.474971986817E-01
  0.427634541935E-01
  0.413384241771E-01
  0.352274575348E-01
  0.334797846496E-01
  0.300408883486E-01
  0.293155578914E-01
  0.259852519313E-01
  0.248879307104E-01
  0.245082113318E-01
  0.245284386037E-01
  0.249118747994E-01
  0.250436027786E-01
  0.295543240896E-01
  0.284753231606E-01
  0.397210771718E-01
  0.375138564592E-01
  0.511395358826E-01
  0.484377586637E-01
  0.781589459855E-01
  0.709326424705E-01
  0.113445815950E+00
  0.104892153916E+00
  0.151332699150E+00
  0.141548587401E+00
  0.190977663805E+00
  0.180070330728E+00
  0.231194312409E+00
  0.219353258829E+00
  0.270643239943E+00
  0.257838860712E+00
  0.312206699725E+00
  0.297088385940E+00
  0.359309687205E+00
  0.341103571703E+00
  0.411212134282E+00
  0.390333807610E+00
  0.469780263328E+00
  0.445961017257E+00
  0.532665780888E+00
  0.507099266984E+00
  0.608784661202E+00
  0.581850566522E+00
  0.690562335109E+00
  0.667986224823E+00
  0.788543667751E+00
  0.785039085411E+00
  0.846252147463E+00
  0.854919235266E+00
  0.776933168169E+00
  0.706864496764E+00
  0.327292369249E+00
  0.470498643554E+00
 -0.106618868830E-02
  0.186086981676E+00
 -0.282051416402E+00
 -0.667569272299E-01
 -0.406207075693E+00
 -0.257862207644E+00
 -0.410798289357E+00
 -0.311820795177E+00
 -0.435848975373E+00
 -0.373209677180E+00
 -0.450034200087E+00
 -0.404984507811E+00
 -0.468545693673E+00
 -0.437391653120E+00
 -0.482826703025E+00
 -0.460501539094E+00
 -0.493348581969E+00
 -0.478704219775E+00
 -0.499943296880E+00
 -0.489837854299E+00
 -0.509462718836E+00
 -0.500587272740E+00
 -0.522910341204E+00
 -0.515300048114E+00
 -0.536194927150E+00
 -0.530212446422E+00
 -0.547092263682E+00
 -0.542859878714E+00
 -0.554324490664E+00
 -0.551923320956E+00
 -0.544123989750E+00
 -0.548684218890E+00
 -0.518263177746E+00
 -0.522691590745E+00
 -0.492762895448E+00
 -0.498255399295E+00
 -0.461718573038E+00
 -0.468414103966E+00
 -0.435083361322E+00
 -0.429277846160E+00
 -0.403554648864E+00
 -0.396502059112E+00
 -0.368719832195E+00
 -0.362489334942E+00
 -0.336623564404E+00
 -0.329198129394E+00
 -0.301612445630E+00
 -0.294787238235E+00
 -0.270895551385E+00
 -0.264240203960E+00
 -0.242154619034E+00
 -0.235089932870E+00
 -0.214218085752E+00
 -0.207337582991E+00
 -0.189046393671E+00
 -0.181835742658E+00
 -0.164788654826E+00
 -0.156972972667E+00
 -0.140961969585E+00
 -0.132527106679E+00
 -0.117940526286E+00
 -0.108761894520E+00
 -0.956301145139E-01
 -0.853017708705E-01
 -0.733296996746E-01
 -0.613271467251E-01
 -0.503847311468E-01
 -0.359903333127E-01
 -0.260732932525E-01
 -0.813584476634E-02
  0.738857536775E-03
  0.243208318613E-01
  0.323362415929E-01
  0.657290933036E-01
  0.746094859736E-01
  0.123821182440E+00
  0.165731701809E+00
  0.226057346771E+00
  0.218473951634E+00
  0.201802854048E+00
  0.168920537650E+00
  0.162195231680E+00
  0.149503259019E+00
  0.140172537406E+00
  0.133170705478E+00
  0.124682893458E+00
  0.119919202878E+00
  0.113454304369E+00
  0.109402739524E+00
  0.104543457431E+00
  0.100794807912E+00
  0.970486648060E-01
  0.934610483408E-01
  0.904781328959E-01
  0.869006264585E-01
  0.844295099961E-01
  0.805942714730E-01
  0.784522394394E-01
  0.743239215235E-01
  0.724313446237E-01
  0.683935675024E-01
  0.667366960879E-01
  0.628301098708E-01
  0.613209113370E-01
  0.565826066121E-01
  0.550812537681E-01
  0.501962062494E-01
  0.488444163349E-01
  0.440758135111E-01
  0.427662655173E-01
  0.365369451805E-01
  0.352309690082E-01
  0.308093351280E-01
  0.300343372826E-01
  0.265912665655E-01
  0.259740967515E-01
  0.244313594131E-01
  0.244776343179E-01
  0.250080636958E-01
  0.245862550632E-01
  0.284448989497E-01
  0.270392652364E-01
  0.375033465588E-01
  0.349723404932E-01
  0.484364013281E-01
  0.446956786609E-01
  0.710683786462E-01
  0.644990990132E-01
  0.105066301693E+00
  0.969770408215E-01
  0.141708528657E+00
  0.132632819194E+00
  0.180148743703E+00
  0.170337009904E+00
  0.219266284654E+00
  0.208919979448E+00
  0.257517973849E+00
  0.246647091124E+00
  0.296382277498E+00
  0.284670771279E+00
  0.339558590703E+00
  0.326995051124E+00
  0.387196019475E+00
  0.374285612325E+00
  0.439797783858E+00
  0.427367233052E+00
  0.495823163246E+00
  0.484942367796E+00
  0.559829275662E+00
  0.552282799650E+00
  0.627707355134E+00
  0.624607775687E+00
  0.701172282109E+00
  0.701098853176E+00
  0.722497694092E+00
  0.709219975875E+00
  0.571948206274E+00
  0.508268112043E+00
  0.136137653942E+00
  0.212077111662E+00
 -0.140330201665E+00
 -0.353767115570E-01
 -0.399538327139E+00
 -0.279740526367E+00
 -0.506536442328E+00
 -0.394507134384E+00
 -0.488766595587E+00
 -0.405700521859E+00
 -0.497610481486E+00
 -0.434054172286E+00
 -0.497492809091E+00
 -0.449815042228E+00
 -0.505169467679E+00
 -0.469228568555E+00
 -0.510610268524E+00
 -0.483877319253E+00
 -0.514068845256E+00
 -0.494546602675E+00
 -0.515605594228E+00
 -0.501002895857E+00
 -0.522046482925E+00
 -0.510307433231E+00
 -0.533200325323E+00
 -0.523670331101E+00
 -0.544314744663E+00
 -0.536943974599E+00
 -0.552983437726E+00
 -0.547867640435E+00
 -0.557441602143E+00
 -0.555205448054E+00
 -0.542722147617E+00
 -0.545088520482E+00
 -0.515175629476E+00
 -0.518967252974E+00
 -0.488293381278E+00
 -0.493345961039E+00
 -0.456125540442E+00
 -0.462168739124E+00
 -0.429272621312E+00
 -0.423692417576E+00
 -0.396447675848E+00
 -0.390169628970E+00
 -0.362444399913E+00
 -0.356138091443E+00
 -0.329134187309E+00
 -0.322237010587E+00
 -0.294741536898E+00
 -0.287917658947E+00
 -0.264204716227E+00
 -0.257336680276E+00
 -0.235059964607E+00
 -0.227937198299E+00
 -0.207318500658E+00
 -0.200051456191E+00
 -0.181821642447E+00
 -0.174150253158E+00
 -0.156964037320E+00
 -0.148688138548E+00
 -0.132524687735E+00
 -0.123519968692E+00
 -0.108765502531E+00
 -0.987985964605E-01
 -0.853110880797E-01
 -0.739861942335E-01
 -0.613441190315E-01
 -0.481327812110E-01
 -0.360198230952E-01
 -0.202195902774E-01
 -0.818949733712E-02
  0.110607397312E-01
  0.242078925947E-01
  0.472737617929E-01
  0.654138059036E-01
  0.889954409099E-01
  0.122611814644E+00
  0.134857914517E+00
  0.220010588763E+00
  0.202911435245E+00
  0.226445391420E+00
  0.217357559053E+00
  0.173584989234E+00
  0.168602379766E+00
  0.153845832492E+00
  0.149335980487E+00
  0.138707657564E+00
  0.133095750406E+00
  0.125643432249E+00
  0.119884387160E+00
  0.114340808660E+00
  0.109384115985E+00
  0.104795695472E+00
  0.100783563717E+00
  0.966901540918E-01
  0.934536303869E-01
  0.895593165545E-01
  0.868955145730E-01
  0.828561763834E-01
  0.805911286371E-01
  0.763022237743E-01
  0.743228169630E-01
  0.701356679149E-01
  0.683939517658E-01
  0.643925576534E-01
  0.628313619551E-01
  0.580609553460E-01
  0.565856551991E-01
  0.515615593195E-01
  0.502005883616E-01
  0.453356740429E-01
  0.440808616213E-01
  0.377124074919E-01
  0.365426440729E-01
  0.316000920476E-01
  0.308055804540E-01
  0.270508003953E-01
  0.265777935457E-01
  0.243404460565E-01
  0.243922655741E-01
  0.245584496018E-01
  0.239525321337E-01
  0.270439497401E-01
  0.255702702423E-01
  0.350361112669E-01
  0.324450850747E-01
  0.448472795668E-01
  0.409716803988E-01
  0.648293823814E-01
  0.588790643583E-01
  0.973318880779E-01
  0.898173874205E-01
  0.132897978178E+00
  0.124527323631E+00
  0.170397820662E+00
  0.161511636741E+00
  0.208656778985E+00
  0.199500681602E+00
  0.245961773837E+00
  0.236657559338E+00
  0.283356580798E+00
  0.273940756321E+00
  0.324555427633E+00
  0.315208456982E+00
  0.370011794893E+00
  0.361189473960E+00
  0.420168520000E+00
  0.412596781735E+00
  0.473512881863E+00
  0.467904825699E+00
  0.534050647491E+00
  0.531252723849E+00
  0.597331816533E+00
  0.596989690643E+00
  0.661271037268E+00
  0.658890224438E+00
  0.661871997903E+00
  0.643711274202E+00
  0.468999831180E+00
  0.410327598761E+00
  0.158182671738E-01
  0.799430571092E-01
 -0.246070120824E+00
 -0.161559864341E+00
 -0.495945486078E+00
 -0.399119100533E+00
 -0.589269388134E+00
 -0.495383487885E+00
 -0.554998574797E+00
 -0.481278966476E+00
 -0.551938515039E+00
 -0.492291100477E+00
 -0.541189868792E+00
 -0.494351669147E+00
 -0.540313216041E+00
 -0.503453580096E+00
 -0.538414504534E+00
 -0.509902092856E+00
 -0.535885248081E+00
 -0.513998344054E+00
 -0.532861913276E+00
 -0.515833518841E+00
 -0.536012081595E+00
 -0.522383772757E+00
 -0.544557713097E+00
 -0.533644670540E+00
 -0.553261876240E+00
 -0.544905558009E+00
 -0.559451913699E+00
 -0.553768508852E+00
 -0.560750957998E+00
 -0.558549332606E+00
 -0.542532829541E+00
 -0.544053533520E+00
 -0.512910431320E+00
 -0.516319753430E+00
 -0.484442580509E+00
 -0.489312508091E+00
 -0.451138932636E+00
 -0.456966503785E+00
 -0.423653219616E+00
 -0.418226690891E+00
 -0.390076895238E+00
 -0.384059124555E+00
 -0.356040701421E+00
 -0.349691129704E+00
 -0.322134902754E+00
 -0.315344040573E+00
 -0.287838723854E+00
 -0.280948530302E+00
 -0.257272533369E+00
 -0.250202994274E+00
 -0.227887967767E+00
 -0.220561942950E+00
 -0.200016797923E+00
 -0.192399090686E+00
 -0.174124831367E+00
 -0.166014872786E+00
 -0.148673220376E+00
 -0.139906215449E+00
 -0.123516853933E+00
 -0.113924282816E+00
 -0.988069992283E-01
 -0.881222837359E-01
 -0.740079640507E-01
 -0.618800890717E-01
 -0.481750417412E-01
 -0.342488807250E-01
 -0.202995689651E-01
 -0.443588944559E-02
  0.108988701542E-01
  0.279027150250E-01
  0.469091760572E-01
  0.620591853864E-01
  0.881508259533E-01
  0.967611613990E-01
  0.133238320095E+00
  0.132232398855E+00
  0.200974766126E+00
  0.189031883576E+00
  0.216287175259E+00
  0.225147896240E+00
  0.172652584532E+00
  0.173159760271E+00
  0.155195951934E+00
  0.153618349466E+00
  0.141382820917E+00
  0.138576875162E+00
  0.129393769194E+00
  0.125572122607E+00
  0.118481686398E+00
  0.114302386454E+00
  0.108654388603E+00
  0.104773702948E+00
  0.100010013053E+00
  0.966765430450E-01
  0.923559060183E-01
  0.895504616351E-01
  0.852344169838E-01
  0.828507748742E-01
  0.783672456260E-01
  0.762999030954E-01
  0.719528169315E-01
  0.701356624848E-01
  0.660096109637E-01
  0.643940031759E-01
  0.595451591112E-01
  0.580645714431E-01
  0.529308262406E-01
  0.515672074096E-01
  0.465691888919E-01
  0.453419576407E-01
  0.388140577382E-01
  0.377188964521E-01
  0.323970611949E-01
  0.315982818204E-01
  0.274492078119E-01
  0.270349491305E-01
  0.242486809470E-01
  0.242986192464E-01
  0.239348808231E-01
  0.232557549597E-01
  0.255958034759E-01
  0.241181222293E-01
  0.325456742405E-01
  0.299960275592E-01
  0.411852229173E-01
  0.373799129140E-01
  0.592448379170E-01
  0.538194063788E-01
  0.901907759081E-01
  0.833069892930E-01
  0.124763537414E+00
  0.117096072532E+00
  0.161475366012E+00
  0.153444022530E+00
  0.199060820051E+00
  0.190956853598E+00
  0.235706890393E+00
  0.227721067144E+00
  0.272284931873E+00
  0.264590933949E+00
  0.312429309308E+00
  0.305293505211E+00
  0.356733886109E+00
  0.350534288717E+00
  0.405711371145E+00
  0.400954189044E+00
  0.457830570829E+00
  0.454927029818E+00
  0.516679746023E+00
  0.515850429126E+00
  0.577270962485E+00
  0.577512132640E+00
  0.633847863020E+00
  0.629857050783E+00
  0.617772838731E+00
  0.597607618069E+00
  0.391011514212E+00
  0.335551571320E+00
 -0.818171703478E-01
 -0.231239278868E-01
 -0.335171070917E+00
 -0.260972894458E+00
 -0.579539158819E+00
 -0.494994781466E+00
 -0.662351156936E+00
 -0.579415643782E+00
 -0.614565366140E+00
 -0.547466087977E+00
 -0.601860440498E+00
 -0.545896680635E+00
 -0.582393465473E+00
 -0.537054749405E+00
 -0.574335240572E+00
 -0.537576147773E+00
 -0.566176156492E+00
 -0.536795093477E+00
 -0.558403062195E+00
 -0.535054808491E+00
 -0.551123550001E+00
 -0.532532306565E+00
 -0.550952222867E+00
 -0.535995767975E+00
 -0.556745241496E+00
 -0.544802902546E+00
 -0.562864803797E+00
 -0.553785263510E+00
 -0.566339319661E+00
 -0.560309663880E+00
 -0.564384493466E+00
 -0.562064237240E+00
 -0.543110217474E+00
 -0.544080247428E+00
 -0.511228925899E+00
 -0.514348324005E+00
 -0.481050483387E+00
 -0.485767789891E+00
 -0.446550466890E+00
 -0.452266093512E+00
 -0.418192476545E+00
 -0.412892321556E+00
 -0.383957434603E+00
 -0.378070751745E+00
 -0.349565769683E+00
 -0.343191732211E+00
 -0.315216305541E+00
 -0.308445777741E+00
 -0.280843421820E+00
 -0.273852730836E+00
 -0.250114587205E+00
 -0.242853858653E+00
 -0.220493221766E+00
 -0.212924431680E+00
 -0.192348304914E+00
 -0.184379213710E+00
 -0.165977473184E+00
 -0.157445584246E+00
 -0.139884280495E+00
 -0.130639738023E+00
 -0.113919865097E+00
 -0.103787482761E+00
 -0.881369516817E-01
 -0.769052672997E-01
 -0.619200439604E-01
 -0.494397458139E-01
 -0.343307579228E-01
 -0.207515165764E-01
 -0.459675428598E-02
  0.918227556489E-02
  0.275883611025E-01
  0.395970042549E-01
  0.614838312154E-01
  0.696206338691E-01
  0.958713203724E-01
  0.997773252431E-01
  0.131183171145E+00
  0.133227954673E+00
  0.188406004225E+00
  0.197221367125E+00
  0.214043982966E+00
  0.216003756407E+00
  0.170642505159E+00
  0.172315739343E+00
  0.154534261552E+00
  0.154956489748E+00
  0.142049828371E+00
  0.141223953238E+00
  0.131247212048E+00
  0.129291990872E+00
  0.121248976441E+00
  0.118419768054E+00
  0.111837562776E+00
  0.108617628951E+00
  0.103124289824E+00
  0.999876837900E-01
  0.951573891593E-01
  0.923418918904E-01
  0.876802971231E-01
  0.852259688331E-01
  0.805028690685E-01
  0.783632187798E-01
  0.738338210405E-01
  0.719520476312E-01
  0.676786670822E-01
  0.660109787950E-01
  0.610507394141E-01
  0.595491283756E-01
  0.543027092172E-01
  0.529372741844E-01
  0.477912252085E-01
  0.465764107318E-01
  0.398723845321E-01
  0.388211232692E-01
  0.331859181469E-01
  0.323966782243E-01
  0.278331794545E-01
  0.274326561758E-01
  0.241607738887E-01
  0.242062356188E-01
  0.232447732238E-01
  0.225603654969E-01
  0.241559726479E-01
  0.227087286078E-01
  0.301144151330E-01
  0.276690954037E-01
  0.376174308938E-01
  0.339916325480E-01
  0.541819258487E-01
  0.492190726773E-01
  0.836600976274E-01
  0.774510983338E-01
  0.117286096037E+00
  0.110351793770E+00
  0.153324796300E+00
  0.146128086911E+00
  0.190395394949E+00
  0.183261685260E+00
  0.226614098716E+00
  0.219772311628E+00
  0.262774176512E+00
  0.256452913468E+00
  0.302439575898E+00
  0.296928717318E+00
  0.346239898469E+00
  0.341844017634E+00
  0.394713620465E+00
  0.391757364506E+00
  0.446316958971E+00
  0.444979003541E+00
  0.504190487119E+00
  0.504313141748E+00
  0.562801240659E+00
  0.563058078421E+00
  0.612948177341E+00
  0.607890127875E+00
  0.582180967936E+00
  0.561156031453E+00
  0.325455556034E+00
  0.272404834811E+00
 -0.167068287861E+00
 -0.111248758243E+00
 -0.414336554378E+00
 -0.346242210065E+00
 -0.655040646035E+00
 -0.578177089802E+00
 -0.729112662240E+00
 -0.653535065415E+00
 -0.669549428872E+00
 -0.607377939264E+00
 -0.648588224344E+00
 -0.595731284308E+00
 -0.621620857868E+00
 -0.577858096681E+00
 -0.607355351271E+00
 -0.571052000313E+00
 -0.593720724858E+00
 -0.563970426690E+00
 -0.581239513993E+00
 -0.557031294164E+00
 -0.569946951915E+00
 -0.550372697587E+00
 -0.566487857534E+00
 -0.550655396436E+00
 -0.569463837663E+00
 -0.556837453541E+00
 -0.572881216410E+00
 -0.563357642129E+00
 -0.573481132114E+00
 -0.567294696737E+00
 -0.568394802959E+00
 -0.565864268970E+00
 -0.544248349392E+00
 -0.544830668017E+00
 -0.510016603491E+00
 -0.512902763577E+00
 -0.478057136048E+00
 -0.482625408775E+00
 -0.442261639802E+00
 -0.447922191203E+00
 -0.412885943343E+00
 -0.407698432906E+00
 -0.377976196712E+00
 -0.372152982859E+00
 -0.343054887667E+00
 -0.336672318771E+00
 -0.308303137463E+00
 -0.301509098760E+00
 -0.273728763234E+00
 -0.266617259920E+00
 -0.242746831944E+00
 -0.235295966047E+00
 -0.212839299377E+00
 -0.205009132626E+00
 -0.184314459592E+00
 -0.176003010106E+00
 -0.157398056950E+00
 -0.148474315804E+00
 -0.130612575841E+00
 -0.120951900759E+00
 -0.103784339475E+00
 -0.932691648134E-01
 -0.769311010948E-01
 -0.655254510656E-01
 -0.495071683716E-01
 -0.374446771723E-01
 -0.208874566192E-01
 -0.892875900159E-02
  0.893310936176E-02
  0.194792962375E-01
  0.391849466396E-01
  0.471612873416E-01
  0.690267538691E-01
  0.743339030389E-01
  0.990261233302E-01
  0.102533283914E+00
  0.132301121076E+00
  0.134869416526E+00
  0.195326938492E+00
  0.196101447139E+00
  0.220730123118E+00
  0.213812895997E+00
  0.171454399180E+00
  0.170426266607E+00
  0.154198449055E+00
  0.154339059612E+00
  0.141934796468E+00
  0.141894066966E+00
  0.131857762222E+00
  0.131132221712E+00
  0.122724426822E+00
  0.121169349309E+00
  0.114036179574E+00
  0.111785455003E+00
  0.105698181539E+00
  0.103091267495E+00
  0.977517028613E-01
  0.951366210420E-01
  0.900895734570E-01
  0.876677607767E-01
  0.826648627585E-01
  0.804964748672E-01
  0.757571536839E-01
  0.738318299027E-01
  0.693901945618E-01
  0.676796226395E-01
  0.625827841937E-01
  0.610548312908E-01
  0.556815978961E-01
  0.543096673983E-01
  0.490104853675E-01
  0.477992600562E-01
  0.409083881821E-01
  0.398801766104E-01
  0.339657209663E-01
  0.331869862368E-01
  0.282286689721E-01
  0.278180895863E-01
  0.240915669486E-01
  0.241202417215E-01
  0.225538988315E-01
  0.219096506423E-01
  0.227544891368E-01
  0.213751559146E-01
  0.277952151823E-01
  0.255028470806E-01
  0.342336536667E-01
  0.308603173808E-01
  0.495646077259E-01
  0.450532622183E-01
  0.777694518246E-01
  0.722368896586E-01
  0.110494093707E+00
  0.104311728084E+00
  0.145945877381E+00
  0.139566058874E+00
  0.182626588414E+00
  0.176395647036E+00
  0.218591508368E+00
  0.212760815337E+00
  0.254594368430E+00
  0.249411006875E+00
  0.294144395318E+00
  0.289887555390E+00
  0.337850768583E+00
  0.334761998916E+00
  0.386224050915E+00
  0.384493999285E+00
  0.437685044054E+00
  0.437327453696E+00
  0.494918341534E+00
  0.495541260299E+00
  0.551838082974E+00
  0.551948541199E+00
  0.596052980016E+00
  0.590276012707E+00
  0.551757293938E+00
  0.530386634578E+00
  0.267315506785E+00
  0.216133935204E+00
 -0.244628520165E+00
 -0.190421415143E+00
 -0.487001505243E+00
 -0.422847119959E+00
 -0.725029871522E+00
 -0.653396667249E+00
 -0.791422629330E+00
 -0.721142681086E+00
 -0.721190625136E+00
 -0.662808902804E+00
 -0.692886239769E+00
 -0.642623905377E+00
 -0.659260227197E+00
 -0.616985186050E+00
 -0.639496203147E+00
 -0.603809486569E+00
 -0.620960160725E+00
 -0.591170631054E+00
 -0.604160356980E+00
 -0.579521535867E+00
 -0.589055003872E+00
 -0.568913826807E+00
 -0.582361971960E+00
 -0.565999451960E+00
 -0.582485397850E+00
 -0.569459835638E+00
 -0.583113226733E+00
 -0.573377908538E+00
 -0.580774843500E+00
 -0.574533815544E+00
 -0.572724893632E+00
 -0.569994846021E+00
 -0.545796121303E+00
 -0.546109402289E+00
 -0.509178350996E+00
 -0.511880829841E+00
 -0.475397541620E+00
 -0.479837498823E+00
 -0.438206945609E+00
 -0.443844769569E+00
 -0.407734176948E+00
 -0.402634657524E+00
 -0.372076084281E+00
 -0.366279474006E+00
 -0.336536938042E+00
 -0.330144021591E+00
 -0.301360440656E+00
 -0.294513407863E+00
 -0.266481178620E+00
 -0.259237701797E+00
 -0.235175605970E+00
 -0.227531201273E+00
 -0.204911006276E+00
 -0.196820352468E+00
 -0.175926995958E+00
 -0.167302845161E+00
 -0.148419104725E+00
 -0.139169982666E+00
 -0.120922199802E+00
 -0.110984887913E+00
 -0.932711778568E-01
 -0.826700680331E-01
 -0.655684223272E-01
 -0.545452481317E-01
 -0.375465204343E-01
 -0.267115127972E-01
 -0.911719579123E-02
  0.598288977717E-03