# vtk DataFile Version 3.0
TriPan results file. Generated by TriPan, USU AeroLab (c) 2021.
ASCII
DATASET POLYDATA
POINTS                  50 float
     19.580198288000      0.579897820950      0.000000000000
     98.975744966090      0.579897820950     14.715094793134
     19.000301361100      0.000000000000      0.000000000000
     98.956486712810      0.000000000000     14.819003029455
     20.321611404400      1.321311235430      0.000000000000
     99.000367137580      1.321311235430     14.582245443989
     21.262266159100      2.261965751650      0.000000000000
     99.031606081391      2.261965751650     14.413695186153
     22.444129943800      3.443829536440      0.000000000000
     99.070855525650      3.443829536440     14.201924135571
     23.911006927500      4.910706520080      0.000000000000
     99.119570197469      4.910706520080     13.939083287129
     25.704246521000      6.703944683070      0.000000000000
     99.179123301963      6.703944683070     13.617763489046
     27.856279373200      8.855978012080      0.000000000000
     99.250591854067      8.855978012080     13.232153688747
     30.382303237900     11.382001876800      0.000000000000
     99.334480567942     11.382001876800     12.779530692300
     33.271335601800     14.271034240700      0.000000000000
     99.430424716665     14.271034240700     12.261862390089
     36.479064941400     17.478763580300      0.000000000000
     99.536952723990     17.478763580300     11.687088697025
     39.925552368200     20.925249099700      0.000000000000
     99.651409836475     20.925249099700     11.069533380887
     43.500301361100     24.500000000000      0.000000000000
     99.770126488219     24.500000000000     10.428995647525
     47.075050354000     28.074750900300      0.000000000000
     99.888843139963     28.074750900300      9.788457914162
     50.521537780800     31.521236419700      0.000000000000
    100.003300252449     31.521236419700      9.170902598024
     53.729267120400     34.728965759300      0.000000000000
    100.109828259773     34.728965759300      8.596128904960
     56.618297576900     37.617996215800      0.000000000000
    100.205772345152     37.617996215800      8.078460944525
     59.144321441700     40.144020080600      0.000000000000
    100.289661059031     40.144020080600      7.625837948060
     61.296356201200     42.296054840100      0.000000000000
    100.361129674475     42.296054840100      7.240227806004
     63.089595794700     44.089294433600      0.000000000000
    100.420682778969     44.089294433600      6.918908007921
     64.556472778300     45.556171417200      0.000000000000
    100.469397450785     45.556171417200      6.656067159497
     65.738334655800     46.738033294700      0.000000000000
    100.508646831707     46.738033294700      6.444296450654
     66.678993225100     47.678688049300      0.000000000000
    100.539885902199     47.678688049300      6.275745509303
     67.420402526900     48.420101165800      0.000000000000
    100.564507947007     48.420101165800      6.142896843673
     68.000297546400     49.000000000000      0.000000000000
    100.583766136943     49.000000000000      6.038988949128
POLYGONS                  48                 192
3                   0                   1                   3
3                   0                   3                   2
3                   4                   5                   1
3                   4                   1                   0
3                   6                   7                   5
3                   6                   5                   4
3                   8                   9                   7
3                   8                   7                   6
3                  10                  11                   9
3                  10                   9                   8
3                  12                  13                  11
3                  12                  11                  10
3                  14                  15                  13
3                  14                  13                  12
3                  16                  17                  15
3                  16                  15                  14
3                  18                  19                  17
3                  18                  17                  16
3                  20                  21                  19
3                  20                  19                  18
3                  22                  23                  21
3                  22                  21                  20
3                  24                  25                  23
3                  24                  23                  22
3                  26                  27                  25
3                  26                  25                  24
3                  28                  29                  27
3                  28                  27                  26
3                  30                  31                  29
3                  30                  29                  28
3                  32                  33                  31
3                  32                  31                  30
3                  34                  35                  33
3                  34                  33                  32
3                  36                  37                  35
3                  36                  35                  34
3                  38                  39                  37
3                  38                  37                  36
3                  40                  41                  39
3                  40                  39                  38
3                  42                  43                  41
3                  42                  41                  40
3                  44                  45                  43
3                  44                  43                  42
3                  46                  47                  45
3                  46                  45                  44
3                  48                  49                  47
3                  48                  47                  46
POINT_DATA                  50
SCALARS mu float 1
LOOKUP_TABLE default
     -5.724174297691
     -5.724174297691
     -5.699788995861
     -5.699788995861
     -5.768193344574
     -5.768193344574
     -5.830180377323
     -5.830180377323
     -5.914491351474
     -5.914491351474
     -5.999206570741
     -5.999206570741
     -6.098232088413
     -6.098232088413
     -6.203379337353
     -6.203379337353
     -6.307158788521
     -6.307158788521
     -6.402458580843
     -6.402458580843
     -6.479058966647
     -6.479058966647
     -6.529550066888
     -6.529550066888
     -6.540865004587
     -6.540865004587
     -6.501563254416
     -6.501563254416
     -6.396979795447
     -6.396979795447
     -6.218580878169
     -6.218580878169
     -5.952511141192
     -5.952511141192
     -5.591797252486
     -5.591797252486
     -5.140367171797
     -5.140367171797
     -4.603605942881
     -4.603605942881
     -3.984988950920
     -3.984988950920
     -3.286327989757
     -3.286327989757
     -2.467010075171
     -2.467010075171
     -1.447703711546
     -1.447703711546
      0.000000000000
      0.000000000000
