# vtk DataFile Version 3.0
PyPan mesh file. Generated by PyPan, USU AeroLab (c) 2020.
ASCII
DATASET POLYDATA
POINTS 685 float
0.0                 0.0                 0.0                 
0.310944736004      0.0                 -0.368799388409     
0.310944736004      0.0                 0.368799388409      
0.995846629143      0.995846629143      0.0                 
1.2967416048        0.0                 -0.718345582485     
1.2967416048        0.0                 0.718345582485      
1.30679130554       0.995846629143      -0.368799388409     
1.30679130554       0.995846629143      0.368799388409      
2.29258823395       0.995846629143      -0.718345582485     
2.29258823395       0.995846629143      0.718345582485      
3.17612481117       3.17612481117       0.0                 
3.32168078423       0.0                 -1.04886639118      
3.32168078423       0.0                 1.04886639118       
3.48706960678       3.17612481117       -0.368799388409     
3.48706960678       3.17612481117       0.368799388409      
4.31752729416       0.995846629143      -1.04886639118      
4.31752729416       0.995846629143      1.04886639118       
4.47286653519       3.17612481117       -0.718345582485     
4.47286653519       3.17612481117       0.718345582485      
6.4978055954        3.17612481117       -1.04886639118      
6.4978055954        3.17612481117       1.04886639118       
6.70735931396       0.0                 -1.19628477097      
6.70735931396       0.0                 1.19628477097       
7.58029556274       7.58029556274       0.0                 
7.70320558548       0.995846629143      -1.19628477097      
7.70320558548       0.995846629143      1.19628477097       
7.89124011993       7.58029556274       -0.368799388409     
7.89124011993       7.58029556274       0.368799388409      
8.87703704834       7.58029556274       -0.718345582485     
8.87703704834       7.58029556274       0.718345582485      
9.88348388672       3.17612481117       -1.19628477097      
9.88348388672       3.17612481117       1.19628477097       
10.9019765854       7.58029556274       -1.04886639118      
10.9019765854       7.58029556274       1.04886639118       
10.9735889435       0.0                 -0.943109273911     
10.9735889435       0.0                 0.943109273911      
11.9694356918       0.995846629143      -0.943109273911     
11.9694356918       0.995846629143      0.943109273911      
14.1497135162       3.17612481117       -0.943109273911     
14.1497135162       3.17612481117       0.943109273911      
14.2876548767       7.58029556274       -1.19628477097      
14.2876548767       7.58029556274       1.19628477097       
14.8274240494       0.0                 -0.556277513504     
14.8274240494       0.0                 0.556277513504      
15.1882019043       15.1882019043       0.0                 
15.4991464615       15.1882019043       -0.368799388409     
15.4991464615       15.1882019043       0.368799388409      
15.8232707977       0.995846629143      -0.556277513504     
15.8232707977       0.995846629143      0.556277513504      
16.4849433899       15.1882019043       -0.718345582485     
16.4849433899       15.1882019043       0.718345582485      
17.4040641785       0.0                 -0.278276473284     
17.4040641785       0.0                 0.278276473284      
18.0035495758       3.17612481117       -0.556277513504     
18.0035495758       3.17612481117       0.556277513504      
18.3999118805       0.995846629143      -0.278276473284     
18.3999118805       0.995846629143      0.278276473284      
18.5098819733       15.1882019043       -1.04886639118      
18.5098819733       15.1882019043       1.04886639118       
18.5538845062       7.58029556274       -0.943109273911     
18.5538845062       7.58029556274       0.943109273911      
18.7977371216       0.0                 -0.128402337432     
18.7977371216       0.0                 0.128402337432      
19.4658946991       0.0                 -0.0569535270333    
19.4658946991       0.0                 0.0569535270333     
19.767660141        0.0                 -0.0247576590627    
19.767660141        0.0                 0.0247576590627     
19.7935848236       0.995846629143      -0.128402337432     
19.7935848236       0.995846629143      0.128402337432      
19.9002666473       0.0                 -0.0106241796166    
19.9002666473       0.0                 0.0106241796166     
19.9578342438       0.0                 -0.00449111964554   
19.9578342438       0.0                 0.00449111964554    
19.9826946259       0.0                 -0.00184311019257   
19.9826946259       0.0                 0.00184311019257    
19.9934062958       0.0                 -0.000702290737536  
19.9934062958       0.0                 0.000702290737536   
19.9980163574       0.0                 -0.000211262027733  
19.9980163574       0.0                 0.000211262027733   
20.0                0.0                 0.0                 
20.4617424011       0.995846629143      -0.0569535270333    
20.4617424011       0.995846629143      0.0569535270333     
20.5801887512       3.17612481117       -0.278276473284     
20.5801887512       3.17612481117       0.278276473284      
20.763507843        0.995846629143      -0.0247576590627    
20.763507843        0.995846629143      0.0247576590627     
20.896112442        0.995846629143      -0.0106241796166    
20.896112442        0.995846629143      0.0106241796166     
20.9536800385       0.995846629143      -0.00449111964554   
20.9536800385       0.995846629143      0.00449111964554    
20.9785404205       0.995846629143      -0.00184311019257   
20.9785404205       0.995846629143      0.00184311019257    
20.9892520905       0.995846629143      -0.000702290737536  
20.9892520905       0.995846629143      0.000702290737536   
20.9938621521       0.995846629143      -0.000211262027733  
20.9938621521       0.995846629143      0.000211262027733   
20.9958457947       0.995846629143      0.0                 
21.8955612183       15.1882019043       -1.19628477097      
21.8955612183       15.1882019043       1.19628477097       
21.9738616943       3.17612481117       -0.128402337432     
21.9738616943       3.17612481117       0.128402337432      
22.4077205658       7.58029556274       -0.556277513504     
22.4077205658       7.58029556274       0.556277513504      
22.6420192719       3.17612481117       -0.0569535270333    
22.6420192719       3.17612481117       0.0569535270333     
22.9437847137       3.17612481117       -0.0247576590627    
22.9437847137       3.17612481117       0.0247576590627     
23.0763912201       3.17612481117       -0.0106241796166    
23.0763912201       3.17612481117       0.0106241796166     
23.1339588165       3.17612481117       -0.00449111964554   
23.1339588165       3.17612481117       0.00449111964554    
23.1588191986       3.17612481117       -0.00184311019257   
23.1588191986       3.17612481117       0.00184311019257    
23.1695308685       3.17612481117       -0.000702290737536  
23.1695308685       3.17612481117       0.000702290737536   
23.1741409302       3.17612481117       -0.000211262027733  
23.1741409302       3.17612481117       0.000211262027733   
23.1761245728       3.17612481117       0.0                 
24.9843597412       7.58029556274       -0.278276473284     
24.9843597412       7.58029556274       0.278276473284      
25.3556423187       25.3556423187       0.0                 
25.6665878296       25.3556423187       -0.368799388409     
25.6665878296       25.3556423187       0.368799388409      
26.1617908478       15.1882019043       -0.943109273911     
26.1617908478       15.1882019043       0.943109273911      
26.3780326843       7.58029556274       -0.128402337432     
26.3780326843       7.58029556274       0.128402337432      
26.6523838043       25.3556423187       -0.718345582485     
26.6523838043       25.3556423187       0.718345582485      
27.0461902618       7.58029556274       -0.0569535270333    
27.0461902618       7.58029556274       0.0569535270333     
27.3479557037       7.58029556274       -0.0247576590627    
27.3479557037       7.58029556274       0.0247576590627     
27.4805622101       7.58029556274       -0.0106241796166    
27.4805622101       7.58029556274       0.0106241796166     
27.5381298065       7.58029556274       -0.00449111964554   
27.5381298065       7.58029556274       0.00449111964554    
27.5629901886       7.58029556274       -0.00184311019257   
27.5629901886       7.58029556274       0.00184311019257    
27.5737018585       7.58029556274       -0.000702290737536  
27.5737018585       7.58029556274       0.000702290737536   
27.5783119202       7.58029556274       -0.000211262027733  
27.5783119202       7.58029556274       0.000211262027733   
27.5802955627       7.58029556274       0.0                 
28.677324295        25.3556423187       -1.04886639118      
28.677324295        25.3556423187       1.04886639118       
30.0156269073       15.1882019043       -0.556277513504     
30.0156269073       15.1882019043       0.556277513504      
32.06300354         25.3556423187       -1.19628477097      
32.06300354         25.3556423187       1.19628477097       
32.5922660828       15.1882019043       -0.278276473284     
32.5922660828       15.1882019043       0.278276473284      
33.9859390259       15.1882019043       -0.128402337432     
33.9859390259       15.1882019043       0.128402337432      
34.6540985107       15.1882019043       -0.0569535270333    
34.6540985107       15.1882019043       0.0569535270333     
34.9558639526       15.1882019043       -0.0247576590627    
34.9558639526       15.1882019043       0.0247576590627     
35.0884666443       15.1882019043       -0.0106241796166    
35.0884666443       15.1882019043       0.0106241796166     
35.1242027283       35.1242027283       0.0                 
[...]
CELL_DATA 1336
SCALARS panel_area float 1
LOOKUP_TABLE default
0.000998842247428   
0.000998842247428   
0.00232135279575    
0.00232135279575    
0.00539374860861    
0.00539374860861    
0.0125182168963     
0.0125182168963     
0.0289877634953     
0.0289877634953     
0.0667727785897     
0.0667737191154     
0.151956807851      
0.151956807851      
0.336474023684      
0.336474023684      
0.701921568303      
0.701921568303      
1.29781862198       
1.29781813842       
1.938151563         
1.938151563         
2.13172310499       
2.13172333802       
1.6890013479        
1.68900123018       
1.0347784131        
1.03477835839       
0.549108185587      
0.549108208815      
0.302347544461      
0.302347535938      
0.302347535938      
0.302347544461      
0.549108208815      
0.549108185587      
1.03477835839       
1.0347784131        
1.68900123018       
1.6890013479        
2.13172333802       
2.13172310499       
1.938151563         
1.938151563         
1.29781813842       
1.29781862198       
0.701921568303      
0.701921568303      
0.336474023684      
0.336474023684      
0.151956807851      
0.151956807851      
0.0667737191154     
0.0667727785897     
0.0289877634953     
0.0289877634953     
0.0125182168963     
0.0125182168963     
0.00539374860861    
0.00539374860861    
0.00232135279575    
0.00232135279575    
0.000998842247428   
0.000998842247428   
0.00218683673014    
0.00218683673014    
0.00508230360744    
0.00508230360744    
0.0118089193773     
0.0118089193773     
0.0274070270608     
0.0274070270608     
0.0634649826837     
0.0634649826837     
0.146192473178      
0.146190415707      
0.332689891076      
0.332689891076      
0.736666608513      
0.736666608513      
1.53676701516       
1.53676701516       
2.84140493319       
2.84140701696       
4.24333474057       
4.24333369292       
4.66713422646       
4.66713371203       
3.69785107969       
3.69785107969       
2.26551420183       
2.26551420183       
1.20220185116       
1.20220185116       
0.661951077607      
0.661951130804      
0.661951130804      
0.661951077607      
1.20220185116       
1.20220185116       
2.26551420183       
2.26551420183       
3.69785107969       
3.69785107969       
4.66713371203       
4.66713422646       
4.24333369292       
4.24333474057       
2.84140701696       
2.84140493319       
1.53676701516       
1.53676701516       
0.736666608513      
0.736666608513      
0.332689891076      
0.332689891076      
0.146190415707      
0.146192473178      
0.0634649826837     
0.0634649826837     
0.0274070270608     
0.0274070270608     
0.0118089193773     
0.0118089193773     
0.00508230360744    
0.00508230360744    
0.00218683673014    
0.00218683673014    
0.00441741903456    
0.00441741903456    
0.0102662738308     
0.0102662738308     
0.0238540648763     
0.0238540648763     
0.055362305448      
0.055362305448      
0.12819952156       
0.12819952156       
0.29530938676       
0.29530938676       
0.672034931317      
0.672034931317      
1.48806954149       
1.48806954149       
3.10427561313       
3.10427561313       
5.73964950739       
5.73964950739       
8.57155333073       
8.57155333073       
9.42762898678       
9.42762898678       
7.46967414666       
7.46967414666       
4.57634785646       
4.57634886706       
2.42845257827       
2.42845257827       
1.33714393652       
1.33714369437       
1.33714369437       
1.33714393652       
2.42845257827       
2.42845257827       
4.57634886706       
4.57634785646       
7.46967414666       
7.46967414666       
9.42762898678       
9.42762898678       
8.57155333073       
8.57155333073       
5.73964950739       
5.73964950739       
3.10427561313       
3.10427561313       
1.48806954149       
1.48806954149       
0.672034931317      
0.672034931317      
0.29530938676       
0.29530938676       
0.12819952156       
0.12819952156       
0.055362305448      
0.055362305448      
0.0238540648763     
0.0238540648763     
0.0102662738308     
0.0102662738308     
0.00441741903456    
0.00441741903456    
0.00763079184752    
0.00763079184752    
0.0177414664712     
0.0177342918618     
0.0412062794718     
0.0412062794718     
0.0956346284091     
0.0956346284091     
0.221455979974      
0.221455979974      
0.510112591138      
0.51012694282       
1.16089477799       
1.16089477799       
2.57054641155       
2.57053923045       
5.36242562806       
5.36242562806       
9.91485533187       
9.91485533187       
14.8067771631       
14.8067771631       
16.2855898162       
16.2855898162       
12.9033555939       
12.9033592117       
7.905332347         
7.90532883729       
4.19498718669       
4.19498718669       
2.30982506488       
2.30982506488       
2.30982506488       
2.30982506488       
4.19498718669       
4.19498718669       
7.90532883729       
7.905332347         
12.9033592117       
12.9033555939       
16.2855898162       
16.2855898162       
14.8067771631       
14.8067771631       
9.91485533187       
9.91485533187       
5.36242562806       
5.36242562806       
2.57053923045       
2.57054641155       
1.16089477799       
1.16089477799       
0.51012694282       
0.510112591138      
0.221455979974      
0.221455979974      
0.0956346284091     
0.0956346284091     
0.0412062794718     
0.0412062794718     
0.0177342918618     
0.0177414664712     
0.00763079184752    
0.00763079184752    
0.0101980253309     
0.0101980253309     
0.0237102424093     
0.0237102424093     
0.0550693416108     
0.0550693416108     
0.127809064279      
0.127809064279      
0.295960595553      
0.295960595553      
0.681749361576      
0.681730182501      
1.55145553786       
1.55145553786       
3.4353382245        
3.43535741374       
7.16651082676       
7.16651082676       
13.2505277299       
13.2505181161       
19.7882331587       
19.7882331587       
21.7645639466       
21.7645542984       
17.2444467793       
17.2444467793       
10.5649250507       
10.5649344485       
5.60631011281       
5.6063058318        
3.08692148315       
3.08692385902       
3.08692385902       
3.08692148315       
5.6063058318        
5.60631011281       
10.5649344485       
10.5649250507       
17.2444467793       
17.2444467793       
21.7645542984       
21.7645639466       
19.7882331587       
19.7882331587       
13.2505181161       
13.2505277299       
7.16651082676       
7.16651082676       
3.43535741374       
3.4353382245        
1.55145553786       
1.55145553786       
0.681730182501      
0.681749361576      
0.295960595553      
0.295960595553      
0.127809064279      
0.127809064279      
0.0550693416108     
0.0550693416108     
0.0237102424093     
0.0237102424093     
0.0101980253309     
0.0101980253309     
0.00979794540406    
0.00979794540406    
0.022780063111      
0.022780063111      
0.0529089098168     
0.0529089098168     
0.122794971901      
0.122794971901      
0.284349730746      
0.284349730746      
0.655003572477      
0.655003572477      
1.49059021005       
1.49059021005       
3.30056608178       
3.30056608178       
6.88536060016       
6.88536060016       
12.7306947224       
12.7306947224       
19.0119187088       
19.0119187088       
20.9107065791       
20.9107065791       
16.5679279253       
16.567918633        
10.1504603102       
10.1504603102       
5.38636416285       
5.38637238485       
2.96582018635       
2.9658156294        
2.9658156294        
2.96582018635       
5.38637238485       
5.38636416285       
10.1504603102       
10.1504603102       
16.567918633        
16.5679279253       
20.9107065791       
20.9107065791       
19.0119187088       
19.0119187088       
12.7306947224       
12.7306947224       
6.88536060016       
6.88536060016       
3.30056608178       
3.30056608178       
1.49059021005       
1.49059021005       
0.655003572477      
0.655003572477      
0.284349730746      
0.284349730746      
0.122794971901      
0.122794971901      
0.0529089098168     
0.0529089098168     
0.022780063111      
0.022780063111      
0.00979794540406    
0.00979794540406    
0.00684292939668    
0.00684292939668    
0.015909699135      
0.015909699135      
0.0369518219791     
0.0369518219791     
0.0857605639072     
0.0857605639072     
0.198591138368      
0.198591138368      
0.457457458295      
0.457457458295      
1.04103494622       
1.04103494622       
2.30513028351       
2.30513028351       
4.80876699313       
4.80876699313       
8.89117478901       
8.89117478901       
13.2780100341       
13.2780100341       
14.6041320544       
14.6041320544       
11.5711093025       
11.5711093025       
7.08912738659       
7.08912738659       
3.76186690749       
3.76186690749       
2.07133904861       
2.07133904861       
2.07133904861       
2.07133904861       
3.76186690749       
3.76186690749       
7.08912738659       
7.08912738659       
11.5711093025       
11.5711093025       
14.6041320544       
14.6041320544       
13.2780100341       
13.2780100341       
8.89117478901       
8.89117478901       
4.80876699313       
4.80876699313       
2.30513028351       
2.30513028351       
1.04103494622       
1.04103494622       
0.457457458295      
0.457457458295      
0.198591138368      
0.198591138368      
0.0857605639072     
0.0857605639072     
0.0369518219791     
0.0369518219791     
0.015909699135      
0.015909699135      
0.00684292939668    
0.00684292939668    
0.0037858597864     
0.0037858597864     
0.00879494321142    
0.00880206229702    
0.0204436448666     
0.0204436448666     
0.0474542655272     
0.0474471460004     
0.109863692384      
0.109870812562      
0.253088949833      
0.253088949833      
0.575953974533      
0.575953974533      
1.2753235268        
1.27531639403       
2.66045673221       
2.66045673221       
4.91905427285       
4.91905427285       
7.34607670451       
7.34607670451       
8.07975547533       
8.07975547533       
6.4017316054        
6.4017316054        
3.92206915163       
3.92206915163       
2.08125786798       
2.08125786798       
1.14597108249       
1.14597108249       
1.14597108249       
1.14597108249       
2.08125786798       
2.08125786798       
3.92206915163       
3.92206915163       
6.4017316054        
6.4017316054        
8.07975547533       
8.07975547533       
7.34607670451       
7.34607670451       
4.91905427285       
4.91905427285       
2.66045673221       
2.66045673221       
1.27531639403       
1.2753235268        
0.575953974533      
0.575953974533      
0.253088949833      
0.253088949833      
0.109870812562      
0.109863692384      
0.0474471460004     
0.0474542655272     
0.0204436448666     
0.0204436448666     
0.00880206229702    
0.00879494321142    
0.0037858597864     
0.0037858597864     
0.0018290404675     
0.0018290404675     
0.00424904987259    
0.00424904987259    
0.0098768193897     
0.0098768193897     
0.022926303648      
0.022926303648      
0.0530778081112     
0.0530778081112     
0.122273394167      
0.122273394167      
0.278257298058      
0.278257298058      
0.616139647243      
0.616139647243      
1.28532758255       
1.28533105156       
2.3765176382        
2.37651414328       
3.54906740555       
3.54906740555       
3.90352537221       
3.90352537221       
3.09283143829       
3.09283143829       
1.89484650764       
1.89484650764       
1.00550603525       
1.00550603525       
0.553646358481      
0.553646358481      
0.553646358481      
0.553646358481      
1.00550603525       
1.00550603525       
1.89484650764       
1.89484650764       
3.09283143829       
3.09283143829       
3.90352537221       
3.90352537221       
3.54906740555       
3.54906740555       
2.37651414328       
2.3765176382        
1.28533105156       
1.28532758255       
0.616139647243      
0.616139647243      
0.278257298058      
0.278257298058      
0.122273394167      
0.122273394167      
0.0530778081112     
0.0530778081112     
0.022926303648      
0.022926303648      
0.0098768193897     
0.0098768193897     
0.00424904987259    
0.00424904987259    
0.0018290404675     
0.0018290404675     
0.000825745425594   
0.000825745425594   
0.00192139740626    
0.00191829169281    
0.00445902523051    
0.00445902523051    
0.0103472879326     
0.0103503944825     
0.0239658105236     
0.0239627025868     
0.0552019965192     
0.0552019965192     
0.125623063806      
0.125623063806      
0.278161567344      
0.278164701376      
0.580281885736      
0.580278720131      
1.0729082675        
1.0729114852        
1.60227518792       
1.60227518792       
1.76230004948       
1.76230158569       
1.39630113518       
1.39630113518       
0.855454421747      
0.855454421747      
0.453949478482      
0.453948286139      
0.24995166262       
0.249952039487      
0.249952039487      
0.24995166262       
0.453948286139      
0.453949478482      
0.855454421747      
0.855454421747      
1.39630113518       
1.39630113518       
1.76230158569       
1.76230004948       
1.60227518792       
1.60227518792       
1.0729114852        
1.0729082675        
0.580278720131      
0.580281885736      
0.278164701376      
0.278161567344      
0.125623063806      
0.125623063806      
0.0552019965192     
0.0552019965192     
0.0239627025868     
0.0239658105236     
0.0103503944825     
0.0103472879326     
0.00445902523051    
0.00445902523051    
0.00191829169281    
0.00192139740626    
0.000825745425594   
0.000825745425594   
0.000361355151696   
0.000361355151696   
0.000839465330799   
0.000840824535816   
0.00195131844841    
0.00195131844841    
0.00452944591743    
0.00452808585893    
0.0104863395539     
0.0104877010071     
0.024157000388      
0.024157000388      
0.0549740334315     
0.0549740334315     
0.121727918082      
0.121726530389      
0.253936285599      
0.253937705087      
0.469517131144      
0.469516395287      
0.701173081794      
0.701173081794      
0.771202412516      
0.771202412516      
0.611036619835      
0.611036619835      
0.374356193745      
0.374356193745      
0.198652633181      
0.198652633181      
0.109381741145      
0.109381741145      
0.109381741145      
0.109381741145      
0.198652633181      
0.198652633181      
0.374356193745      
0.374356193745      
0.611036619835      
0.611036619835      
0.771202412516      
0.771202412516      
0.701173081794      
0.701173081794      
0.469516395287      
0.469517131144      
0.253937705087      
0.253936285599      
0.121726530389      
0.121727918082      
0.0549740334315     
0.0549740334315     
0.024157000388      
0.024157000388      
0.0104877010071     
0.0104863395539     
0.00452808585893    
0.00452944591743    
0.00195131844841    
0.00195131844841    
0.000840824535816   
0.000839465330799   
0.000361355151696   
0.000361355151696   
0.000155973872929   
0.000155973872929   
0.000362343412567   
0.000362343412567   
0.000842258987597   
0.000842258987597   
0.00195448462544    
0.00195507228037    
0.00452687015131    
0.00452628109825    
0.0104270272723     
0.0104270272723     
0.0237287633483     
0.0237287633483     
0.052542132635      
0.052542132635      
0.109608028664      
0.109608028664      
0.202660421677      
0.202660421677      
0.302651480305      
0.302651480305      
0.332878706196      
0.332878439187      
0.26374541054       
0.263745694364      
0.161585514744      
0.161585326001      
0.0857456306091     
0.0857456844266     
0.0472126714407     
0.0472129467852     
0.0472129467852     
0.0472126714407     
0.0857456844266     
0.0857456306091     
0.161585326001      
0.161585514744      
0.263745694364      
0.26374541054       
0.332878439187      
0.332878706196      
0.302651480305      
0.302651480305      
0.202660421677      
0.202660421677      
0.109608028664      
0.109608028664      
0.052542132635      
0.052542132635      
0.0237287633483     
0.0237287633483     
0.0104270272723     
0.0104270272723     
0.00452628109825    
0.00452687015131    
0.00195507228037    
0.00195448462544    
0.000842258987597   
0.000842258987597   
0.000362343412567   
0.000362343412567   
0.000155973872929   
0.000155973872929   
6.69198390718e-05   
6.69198390718e-05   
0.000155713372287   
0.000155461499123   
0.000361366704305   
0.000361366704305   
0.000838561153058   
0.000838561153058   
0.00194222831826    
0.00194222831826    
0.0044736601664     
0.0044736601664     
0.0101806987432     
0.0101806987432     
0.0225426687898     
0.0225429492608     
0.0470270498747     
0.047026737468      
0.0869503683127     
0.0869503683127     
0.129850865616      
0.129851064936      
0.142819699878      
0.142819798131      
0.113158651003      
0.113158536207      
0.0693273994634     
0.0693274231928     
0.0367888069812     
0.0367888069812     
0.0202564562559     
0.0202564562559     
0.0202564562559     
0.0202564562559     
0.0367888069812     
0.0367888069812     
0.0693274231928     
0.0693273994634     
0.113158536207      
0.113158651003      
0.142819798131      
0.142819699878      
0.129851064936      
0.129850865616      
0.0869503683127     
0.0869503683127     
0.047026737468      
0.0470270498747     
0.0225429492608     
0.0225426687898     
0.0101806987432     
0.0101806987432     
0.0044736601664     
0.0044736601664     
0.00194222831826    
0.00194222831826    
0.000838561153058   
0.000838561153058   
0.000361366704305   
0.000361366704305   
0.000155461499123   
0.000155713372287   
6.69198390718e-05   
6.69198390718e-05   
2.86388575175e-05   
2.86388575175e-05   
6.6531023161e-05    
6.66389273803e-05   
0.000154650302457   
0.000154650302457   
0.000358977890871   
0.000358869120964   
0.000831084827879   
0.00083119499805    
0.0019145452281     
0.0019145452281     
0.00435692643849    
0.00435692643849    
0.00964745634829    
0.00964731983386    
0.0201254773258     
0.0201256457924     
0.0372112347646     
0.0372112347646     
0.0555709522428     
0.0555708249935     
0.061120994226      
0.061120994226      
0.0484271899396     
0.0484271899396     
0.0296692831674     
0.0296693303724     
0.01574430626       
0.01574430626       
0.00866935664561    
0.00866895728084    
0.00866895728084    
0.00866935664561    
0.01574430626       
0.01574430626       
0.0296693303724     
0.0296692831674     
0.0484271899396     
0.0484271899396     
0.061120994226      
0.061120994226      
0.0555708249935     
0.0555709522428     
0.0372112347646     
0.0372112347646     
0.0201256457924     
0.0201254773258     
0.00964731983386    
0.00964745634829    
0.00435692643849    
0.00435692643849    
0.0019145452281     
0.0019145452281     
0.00083119499805    
0.000831084827879   
0.000358869120964   
0.000358977890871   
0.000154650302457   
0.000154650302457   
6.66389273803e-05   
6.6531023161e-05    
2.86388575175e-05   
2.86388575175e-05   
1.22437514821e-05   
1.22437514821e-05   
2.84434989818e-05   
2.84434989818e-05   
6.61162637951e-05   
6.61162637951e-05   
0.000153470614378   
0.000153470614378   
0.000355307333695   
0.000355307333695   
0.000818508435247   
0.000818508435247   
0.00186267787183    
0.00186267787183    
0.0041244908755     
0.0041244908755     
0.00860409147498    
0.00860409147498    
0.0159085865409     
0.0159085865409     
0.0237577571841     
0.0237577571841     
0.0261305519737     
0.0261305519737     
0.0207036750577     
0.0207036750577     
0.0126842399903     
0.0126841624286     
0.00673073109483    
0.00673092157363    
0.00370616744137    
0.00370616744137    
0.00370616744137    
0.00370616744137    
0.00673092157363    
0.00673073109483    
0.0126841624286     
0.0126842399903     
0.0207036750577     
0.0207036750577     
0.0261305519737     
0.0261305519737     
0.0237577571841     
0.0237577571841     
0.0159085865409     
0.0159085865409     
0.00860409147498    
0.00860409147498    
0.0041244908755     
0.0041244908755     
0.00186267787183    
0.00186267787183    
0.000818508435247   