# vtk DataFile Version 3.0
MachLine results file. Generated by MachLine, USU AeroLab (c) 2022.
ASCII
DATASET POLYDATA
POINTS                 482 float
  0.000000000000E+00  0.000000000000E+00  0.000000000000E+00
  0.473465979099E+00  0.000000000000E+00 -0.436293870211E+00
  0.473465979099E+00  0.000000000000E+00  0.436293870211E+00
  0.757896304131E+00  0.757896304131E+00  0.000000000000E+00
  0.123136246204E+01  0.757896304131E+00 -0.436293989420E+00
  0.123136246204E+01  0.757896304131E+00  0.436293989420E+00
  0.157641971111E+01  0.000000000000E+00 -0.760520398617E+00
  0.157641971111E+01  0.000000000000E+00  0.760520398617E+00
  0.178897356987E+01  0.178897356987E+01  0.000000000000E+00
  0.226243972778E+01  0.178897356987E+01 -0.436294138432E+00
  0.226243972778E+01  0.178897356987E+01  0.436294138432E+00
  0.233431649208E+01  0.757896304131E+00 -0.760520577431E+00
  0.233431649208E+01  0.757896304131E+00  0.760520577431E+00
  0.317279767990E+01  0.317279767990E+01  0.000000000000E+00
  0.336539411545E+01  0.178897356987E+01 -0.760520815849E+00
  0.336539411545E+01  0.178897356987E+01  0.760520815849E+00
  0.342464399338E+01  0.000000000000E+00 -0.102348911762E+01
  0.342464399338E+01  0.000000000000E+00  0.102348911762E+01
  0.364626431465E+01  0.317279767990E+01 -0.436294317245E+00
  0.364626431465E+01  0.317279767990E+01  0.436294317245E+00
  0.418254137039E+01  0.757896304131E+00 -0.102348935604E+01
  0.418254137039E+01  0.757896304131E+00  0.102348935604E+01
  0.474921894073E+01  0.317279767990E+01 -0.760521173477E+00
  0.474921894073E+01  0.317279767990E+01  0.760521173477E+00
  0.499661636353E+01  0.499661636353E+01  0.000000000000E+00
  0.521361970901E+01  0.178897356987E+01 -0.102348971367E+01
  0.521361970901E+01  0.178897356987E+01  0.102348971367E+01
  0.547008323669E+01  0.499661636353E+01 -0.436294585466E+00
  0.547008323669E+01  0.499661636353E+01  0.436294585466E+00
  0.611307668686E+01  0.000000000000E+00 -0.114008128643E+01
  0.611307668686E+01  0.000000000000E+00  0.114008128643E+01
  0.657303857803E+01  0.499661636353E+01 -0.760521650314E+00
  0.657303857803E+01  0.499661636353E+01  0.760521650314E+00
  0.659744548798E+01  0.317279767990E+01 -0.102349019051E+01
  0.659744548798E+01  0.317279767990E+01  0.102349019051E+01
  0.687097454071E+01  0.757896304131E+00 -0.114008152485E+01
  0.687097454071E+01  0.757896304131E+00  0.114008152485E+01
  0.734362459183E+01  0.734362459183E+01  0.000000000000E+00
  0.781709194183E+01  0.734362459183E+01 -0.436294913292E+00
  0.781709194183E+01  0.734362459183E+01  0.436294913292E+00
  0.790205335617E+01  0.178897356987E+01 -0.114008200169E+01
  0.790205335617E+01  0.178897356987E+01  0.114008200169E+01
  0.842126560211E+01  0.499661636353E+01 -0.102349078655E+01
  0.842126560211E+01  0.499661636353E+01  0.102349078655E+01
  0.892004776001E+01  0.734362459183E+01 -0.760522186756E+00
  0.892004776001E+01  0.734362459183E+01  0.760522186756E+00
  0.928588008881E+01  0.317279767990E+01 -0.114008247852E+01
  0.928588008881E+01  0.317279767990E+01  0.114008247852E+01
  0.939508819580E+01  0.000000000000E+00 -0.980745851994E+00
  0.939508819580E+01  0.000000000000E+00  0.980745851994E+00
  0.101529865265E+02  0.757896304131E+00 -0.980746090412E+00
  0.101529865265E+02  0.757896304131E+00  0.980746090412E+00
  0.102728376389E+02  0.102728376389E+02  0.000000000000E+00
  0.107463054657E+02  0.102728376389E+02 -0.436295330524E+00
  0.107463054657E+02  0.102728376389E+02  0.436295330524E+00
  0.107682771683E+02  0.734362459183E+01 -0.102349150181E+01
  0.107682771683E+02  0.734362459183E+01  0.102349150181E+01
  0.111097030640E+02  0.499661636353E+01 -0.114008307457E+01
  0.111097030640E+02  0.499661636353E+01  0.114008307457E+01
  0.111840667725E+02  0.178897356987E+01 -0.980746388435E+00
  0.111840667725E+02  0.178897356987E+01  0.980746388435E+00
  0.118492631912E+02  0.102728376389E+02 -0.760522902012E+00
  0.118492631912E+02  0.102728376389E+02  0.760522902012E+00
  0.125678949356E+02  0.317279767990E+01 -0.980746865273E+00
  0.125678949356E+02  0.317279767990E+01  0.980746865273E+00
  0.126670312881E+02  0.000000000000E+00 -0.678052663803E+00
  0.126670312881E+02  0.000000000000E+00  0.678052663803E+00
  0.134249305725E+02  0.757896304131E+00 -0.678052842617E+00
  0.134249305725E+02  0.757896304131E+00  0.678052842617E+00
  0.134567155838E+02  0.734362459183E+01 -0.114008402824E+01
  0.134567155838E+02  0.734362459183E+01  0.114008402824E+01
  0.136974935532E+02  0.102728376389E+02 -0.102349245548E+01
  0.136974935532E+02  0.102728376389E+02  0.102349245548E+01
  0.137921218872E+02  0.137921218872E+02  0.000000000000E+00
  0.142655897141E+02  0.137921218872E+02 -0.436295837164E+00
  0.142655897141E+02  0.137921218872E+02  0.436295837164E+00
  0.143917188644E+02  0.499661636353E+01 -0.980747401714E+00
  0.143917188644E+02  0.499661636353E+01  0.980747401714E+00
  0.144560117722E+02  0.178897356987E+01 -0.678053081036E+00
  0.144560117722E+02  0.178897356987E+01  0.678053081036E+00
  0.153437566757E+02  0.000000000000E+00 -0.393031150103E+00
  0.153437566757E+02  0.000000000000E+00  0.393031150103E+00
  0.153685483932E+02  0.137921218872E+02 -0.760523796082E+00
  0.153685483932E+02  0.137921218872E+02  0.760523796082E+00
  0.158398418427E+02  0.317279767990E+01 -0.678053379059E+00
  0.158398418427E+02  0.317279767990E+01  0.678053379059E+00
  0.161016559601E+02  0.757896304131E+00 -0.393031239510E+00
  0.161016559601E+02  0.757896304131E+00  0.393031239510E+00
  0.163859348297E+02  0.102728376389E+02 -0.114008510113E+01
  0.163859348297E+02  0.102728376389E+02  0.114008510113E+01
  0.167387351990E+02  0.734362459183E+01 -0.980748176575E+00
  0.167387351990E+02  0.734362459183E+01  0.980748176575E+00
  0.171327381134E+02  0.178897356987E+01 -0.393031388521E+00
  0.171327381134E+02  0.178897356987E+01  0.393031388521E+00
  0.172004318237E+02  0.000000000000E+00 -0.192506864667E+00
  0.172004318237E+02  0.000000000000E+00  0.192506864667E+00
  0.172167816162E+02  0.137921218872E+02 -0.102349364758E+01
  0.172167816162E+02  0.137921218872E+02  0.102349364758E+01
  0.176636676788E+02  0.499661636353E+01 -0.678053736687E+00
  0.176636676788E+02  0.499661636353E+01  0.678053736687E+00
  0.178320064545E+02  0.178320064545E+02  0.000000000000E+00
  0.179583320618E+02  0.757896304131E+00 -0.192506924272E+00
  0.179583320618E+02  0.757896304131E+00  0.192506924272E+00
  0.183054752350E+02  0.178320064545E+02 -0.436296403408E+00
  0.183054752350E+02  0.178320064545E+02  0.436296403408E+00
  0.183450412750E+02  0.000000000000E+00 -0.698660761118E-01
  0.183450412750E+02  0.000000000000E+00  0.698660761118E-01
  0.185165691376E+02  0.317279767990E+01 -0.393031567335E+00
  0.185165691376E+02  0.317279767990E+01  0.393031567335E+00
  0.189894161224E+02  0.178897356987E+01 -0.192506983876E+00
  0.189894161224E+02  0.178897356987E+01  0.192506983876E+00
  0.190000000000E+02  0.000000000000E+00  0.000000000000E+00
  0.191029415131E+02  0.757896304131E+00 -0.698660910130E-01
  0.191029415131E+02  0.757896304131E+00  0.698660910130E-01
  0.194084339142E+02  0.178320064545E+02 -0.760524809361E+00
  0.194084339142E+02  0.178320064545E+02  0.760524809361E+00
  0.196679573059E+02  0.102728376389E+02 -0.980749070644E+00
  0.196679573059E+02  0.102728376389E+02  0.980749070644E+00
  0.197579002380E+02  0.757896304131E+00  0.000000000000E+00
  0.199052257538E+02  0.137921218872E+02 -0.114008641243E+01
  0.199052257538E+02  0.137921218872E+02  0.114008641243E+01
  0.200106849670E+02  0.734362459183E+01 -0.678054273129E+00
  0.200106849670E+02  0.734362459183E+01  0.678054273129E+00
  0.201340255737E+02  0.178897356987E+01 -0.698661133647E-01
  0.201340255737E+02  0.178897356987E+01  0.698661133647E-01
  0.203403968811E+02  0.499661636353E+01 -0.393031775951E+00
  0.203403968811E+02  0.499661636353E+01  0.393031775951E+00
  0.203732471466E+02  0.317279767990E+01 -0.192507073283E+00
  0.203732471466E+02  0.317279767990E+01  0.192507073283E+00
  0.207889842987E+02  0.178897356987E+01  0.000000000000E+00
  0.212566699982E+02  0.178320064545E+02 -0.102349495888E+01
  0.212566699982E+02  0.178320064545E+02  0.102349495888E+01
  0.215178565979E+02  0.317279767990E+01 -0.698661431670E-01
  0.215178565979E+02  0.317279767990E+01  0.698661431670E-01
  0.221728172302E+02  0.317279767990E+01  0.000000000000E+00
  0.221970767975E+02  0.499661636353E+01 -0.192507177591E+00
  0.221970767975E+02  0.499661636353E+01  0.192507177591E+00
  0.222339305878E+02  0.222339305878E+02  0.000000000000E+00
  0.226874179840E+02  0.734362459183E+01 -0.393032073975E+00
  0.226874179840E+02  0.734362459183E+01  0.393032073975E+00
  0.227074012756E+02  0.222339305878E+02 -0.436297029257E+00
  0.227074012756E+02  0.222339305878E+02  0.436297029257E+00
  0.229399108887E+02  0.102728376389E+02 -0.678054928780E+00
  0.229399108887E+02  0.102728376389E+02  0.678054928780E+00
  0.231872520447E+02  0.137921218872E+02 -0.980750203133E+00
  0.231872520447E+02  0.137921218872E+02  0.980750203133E+00
  0.233416862488E+02  0.499661636353E+01 -0.698661878705E-01
  0.233416862488E+02  0.499661636353E+01  0.698661878705E-01
  0.238103618622E+02  0.222339305878E+02 -0.760525882244E+00
  0.238103618622E+02  0.222339305878E+02  0.760525882244E+00
  0.239451179504E+02  0.178320064545E+02 -0.114008784294E+01
  0.239451179504E+02  0.178320064545E+02  0.114008784294E+01
  0.239966468811E+02  0.499661636353E+01  0.000000000000E+00
  0.245440979004E+02  0.734362459183E+01 -0.192507326603E+00
  0.245440979004E+02  0.734362459183E+01  0.192507326603E+00
  0.256166458130E+02  0.102728376389E+02 -0.393032461405E+00
  0.256166458130E+02  0.102728376389E+02  0.393032461405E+00
  0.256585998535E+02  0.222339305878E+02 -0.102349650860E+01
  0.256585998535E+02  0.222339305878E+02  0.102349650860E+01
  0.256887092590E+02  0.734362459183E+01 -0.698662400246E-01
  0.256887092590E+02  0.734362459183E+01  0.698662400246E-01
[...]
CELL_DATA                 904
SCALARS C_p_inc float 1
LOOKUP_TABLE default
  0.181478368336E+00
  0.166767300736E+00
  0.136587106676E+00
  0.124416118982E+00
  0.112657224224E+00
  0.107097707369E+00
  0.952517281395E-01
  0.912745157804E-01
  0.831431625593E-01
  0.811929959281E-01
  0.104081668194E+00
  0.958576851276E-01
  0.210484823078E+00
  0.178800399422E+00
  0.363832870664E+00
  0.324817479113E+00
  0.563392376772E+00
  0.536350353147E+00
  0.716819859171E+00
  0.668389524692E+00
 -0.564729517413E+00
 -0.620899821295E-02
 -0.799111608275E+00
 -0.506119951522E+00
 -0.666740093745E+00
 -0.585059055773E+00
 -0.620577348175E+00
 -0.599243764993E+00
 -0.534840482654E+00
 -0.559379157722E+00
 -0.423125908894E+00
 -0.391676540695E+00
 -0.283241740918E+00
 -0.249857708834E+00
 -0.167353076819E+00
 -0.127130414174E+00
 -0.682319476626E-01
 -0.728495937674E-02
  0.562035411636E-01
  0.133357477713E+00
  0.173413350259E+00
  0.180383553581E+00
  0.135897635236E+00
  0.136423208817E+00
  0.117603430952E+00
  0.112638604322E+00
  0.982101213353E-01
  0.952719756034E-01
  0.826774322093E-01
  0.830925309069E-01
  0.960553859949E-01
  0.873419506410E-01
  0.179315040632E+00
  0.159949494089E+00
  0.317184979986E+00
  0.304170854467E+00
  0.492405741869E+00
  0.495343776562E+00
  0.552842812255E+00
  0.456339732053E+00
 -0.888361550571E+00
 -0.558230104221E+00
 -0.999818820922E+00
 -0.767266069112E+00
 -0.771904570884E+00
 -0.668494829805E+00
 -0.660654232531E+00
 -0.628453970839E+00
 -0.526367837263E+00
 -0.542998178781E+00
 -0.391199531532E+00
 -0.363659196834E+00
 -0.249233531442E+00
 -0.212776028324E+00
 -0.126925594938E+00
 -0.819835079796E-01
 -0.792446954338E-02
  0.294384055605E-01
  0.128509889342E+00
  0.140414969900E+00
  0.169444759337E+00
  0.172914323909E+00
  0.131500581411E+00
  0.135669848956E+00
  0.117325796410E+00
  0.117511453769E+00
  0.100445151813E+00
  0.982136043565E-01
  0.827835112310E-01
  0.826894544862E-01
  0.878030357976E-01
  0.829310454320E-01
  0.159493485624E+00
  0.151161827184E+00
  0.296369535228E+00
  0.294367770610E+00
  0.476774337449E+00
  0.481812338454E+00
  0.449014861116E+00
  0.350343417100E+00
 -0.117351146772E+01
 -0.884724188700E+00
 -0.118055623503E+01
 -0.974213537976E+00
 -0.867188925569E+00
 -0.766393426335E+00
 -0.698441249051E+00
 -0.667438825805E+00
 -0.521848430041E+00
 -0.537722167811E+00
 -0.363769630750E+00
 -0.335768246279E+00
 -0.212153032169E+00
 -0.175132922998E+00
 -0.819173548259E-01
 -0.491895260561E-01
  0.283987872764E-01
  0.448421342062E-01
  0.138047314476E+00
  0.142588220742E+00
  0.167683267685E+00
  0.168985434389E+00
  0.128294696938E+00
  0.131274748949E+00
  0.114465225191E+00
  0.117184621848E+00
  0.100312776530E+00
  0.100404389324E+00
  0.836499312395E-01
  0.828265767068E-01
  0.831441790588E-01
  0.825843803306E-01
  0.150412643771E+00
  0.150184528381E+00
  0.289741671951E+00
  0.295040004056E+00
  0.474475117333E+00
  0.479873060787E+00
  0.358827378417E+00
  0.261676970165E+00
 -0.142982942832E+01
 -0.116821978757E+01
 -0.134084146936E+01
 -0.116351056205E+01
 -0.950071136346E+00
 -0.864607479748E+00
 -0.731856775981E+00
 -0.706967791651E+00
 -0.517411239293E+00
 -0.534579929424E+00
 -0.336528725035E+00
 -0.309585815952E+00
 -0.174714544827E+00
 -0.146123852669E+00
 -0.492636611519E-01
 -0.310505304326E-01
  0.443466280374E-01
  0.529354480799E-01
  0.141805922705E+00
  0.144666214629E+00
  0.166458168704E+00
  0.167186582214E+00
  0.126242008507E+00
  0.128036271106E+00
  0.111954219039E+00
  0.114287782769E+00
  0.987009984005E-01
  0.100211870845E+00
  0.842139084249E-01
  0.836569974252E-01
  0.826295032777E-01
  0.851269435286E-01
  0.149673507367E+00
  0.154943135471E+00
  0.293247494374E+00
  0.302769302833E+00
  0.479341814360E+00
  0.484366783973E+00
  0.276659988962E+00
  0.183869934657E+00
 -0.165464771616E+01
 -0.142527947807E+01
 -0.147632106909E+01
 -0.133233544617E+01
 -0.101737771169E+01
 -0.951819617509E+00
 -0.757658168864E+00
 -0.741722204707E+00
 -0.513096720032E+00
 -0.529704399716E+00
 -0.310703630860E+00
 -0.290224771567E+00
 -0.146072486408E+00
 -0.129251928501E+00
 -0.310637238729E-01
 -0.213207530316E-01
  0.529589805153E-01
  0.581742107853E-01
  0.144862462549E+00
  0.147745866624E+00
  0.166176181881E+00
  0.165931220103E+00
  0.125146915429E+00
  0.125941255047E+00
  0.110381023500E+00
  0.111731917327E+00
  0.973161671971E-01
  0.985454525931E-01
  0.843982045920E-01
  0.841447364449E-01
  0.850928974364E-01
  0.886030811086E-01
  0.154708381064E+00
  0.162396917073E+00
  0.302695234864E+00
  0.313626121477E+00
  0.487331264670E+00
  0.491372723716E+00
  0.200653966496E+00
  0.116840732452E+00
 -0.184146005925E+01
 -0.165174140980E+01
 -0.158373823038E+01
 -0.147407420720E+01
 -0.106849148705E+01
 -0.102191080160E+01
 -0.776791658590E+00
 -0.767103862961E+00
 -0.511794041965E+00
 -0.522770262073E+00
 -0.291529079636E+00
 -0.280079264974E+00
 -0.129489924914E+00
 -0.120997252085E+00
 -0.212703828204E-01
 -0.160617711642E-01
  0.584820344632E-01
  0.616968379377E-01
  0.148414545613E+00
  0.150523132248E+00
  0.166067313019E+00
  0.165586138360E+00
  0.124477788193E+00
  0.124795428878E+00
  0.109414988269E+00
  0.110111558894E+00
  0.964961710722E-01
  0.971120699685E-01
  0.847149966739E-01
  0.842602150230E-01
  0.885134669300E-01
  0.918278490141E-01
  0.162274721901E+00
  0.169716315041E+00
  0.314176131083E+00
  0.324168626560E+00
  0.495211440571E+00
  0.497982414727E+00
  0.131757623581E+00
  0.615007171028E-01
 -0.198779833332E+01
 -0.183994658125E+01
 -0.166458017341E+01
 -0.158447778682E+01
 -0.110639246059E+01
 -0.107323863023E+01
 -0.792330460907E+00
 -0.783883323624E+00
 -0.514258759701E+00
 -0.518052990707E+00
 -0.281470320650E+00
 -0.276550094883E+00
 -0.121398976443E+00
 -0.117367118757E+00
 -0.160087831017E-01
 -0.130643512498E-01
  0.621156387151E-01
  0.643777581261E-01
  0.151428851149E+00
  0.153421292629E+00
  0.165772104380E+00
  0.165398373208E+00
  0.123620609494E+00
  0.124064569514E+00
  0.108348480581E+00
  0.109094532607E+00
  0.956541045206E-01
  0.962489574711E-01
  0.848852888605E-01
  0.845292182144E-01
  0.916941750766E-01
  0.942753008229E-01
  0.169570647982E+00
  0.175414102446E+00
  0.324638256723E+00
  0.332389702183E+00
  0.501081641748E+00
  0.502701474920E+00
  0.724957985865E-01
  0.180947483368E-01
 -0.209684306053E+01
 -0.198697139330E+01
 -0.172359101014E+01
 -0.166571975649E+01
 -0.113446307544E+01
 -0.110976388384E+01
 -0.805173392136E+00
 -0.796763756532E+00
 -0.518212459101E+00
 -0.518027116271E+00
 -0.277923783970E+00
 -0.275941307397E+00
 -0.117857587857E+00
 -0.115457909840E+00
 -0.130473997607E-01
 -0.106865143446E-01
  0.648146279318E-01
  0.670579333792E-01
  0.154415650458E+00
  0.156631115738E+00
  0.164733046333E+00
  0.164963869514E+00
  0.121816314349E+00
  0.123111535920E+00
  0.106276941297E+00
  0.107957982113E+00
  0.938138745089E-01
  0.953597002175E-01
  0.839912022823E-01
  0.846650360624E-01
  0.940927379124E-01
  0.951996714650E-01
  0.175178193748E+00
  0.178778225793E+00
  0.332519126634E+00
  0.337638011026E+00
  0.504567417699E+00
  0.505366520025E+00
  0.250985272747E-01
 -0.133240458486E-01
 -0.217275803774E+01
 -0.209626558457E+01
 -0.176417235399E+01
 -0.172432869012E+01
 -0.115379946725E+01
 -0.113660194996E+01
 -0.814179052878E+00
 -0.808022709410E+00
 -0.520994742323E+00
 -0.520829516609E+00
 -0.277250549709E+00
 -0.275266765622E+00
 -0.116009210752E+00
 -0.113061634370E+00
 -0.107220407466E-01
 -0.741848803210E-02
  0.674880007850E-01
  0.708041133692E-01
  0.157702448433E+00
  0.160882557279E+00
  0.162272083993E+00
  0.163645999485E+00
  0.118141057982E+00
  0.121124197813E+00
  0.102100544687E+00
  0.105759348427E+00
  0.897685907547E-01
  0.934437980097E-01
  0.808252436779E-01
  0.837324590241E-01
  0.949213626313E-01
  0.935627489995E-01
  0.178366291656E+00
  0.179100609133E+00
  0.337314679437E+00
  0.339636420156E+00
  0.506013618724E+00
  0.506306144083E+00
 -0.950363376121E-02
 -0.321499385095E-01
 -0.221731105183E+01
 -0.217237095387E+01
 -0.178720757977E+01
 -0.176483737555E+01
 -0.116386753867E+01
 -0.115556165381E+01
 -0.817657634146E+00
 -0.816642072725E+00
 -0.520282753644E+00
 -0.523485887515E+00
 -0.276531101482E+00
 -0.272135455985E+00
 -0.113693118071E+00
 -0.108165562183E+00
 -0.752385738344E-02
 -0.155883340937E-02
  0.712434669254E-01
  0.770913910939E-01
  0.162119265564E+00
  0.167452572700E+00
  0.157969823537E+00
  0.160623316772E+00
  0.111700626175E+00
  0.117077181637E+00
  0.946060876658E-01
  0.101324458362E+00
  0.821052020235E-01
  0.892474701893E-01
  0.739463683143E-01
  0.804972291633E-01
  0.930868151927E-01
  0.880945515920E-01
  0.178361331380E+00
  0.175472688265E+00
  0.338675567370E+00
  0.337960573459E+00
  0.505663449422E+00
  0.505689827668E+00
 -0.310183300315E-01
 -0.375652975938E-01
 -0.223037645733E+01
 -0.221718984621E+01
 -0.179218009505E+01
 -0.178832477818E+01
 -0.116351594071E+01
 -0.116604361662E+01
 -0.813835997083E+00
 -0.820674424812E+00
 -0.513910984745E+00
 -0.523467779077E+00
 -0.273425630937E+00
 -0.264313927839E+00
 -0.108951812170E+00
 -0.985847952799E-01
 -0.178205619264E-02
  0.897909000249E-02
  0.775634441093E-01
  0.878556956038E-01
  0.169019877627E+00
  0.178043400523E+00
  0.151787841012E+00
  0.155214354474E+00
  0.102016100215E+00
  0.109882215167E+00
  0.828400924572E-01
  0.932942170476E-01
  0.694110830097E-01
  0.812661966028E-01
  0.616878344043E-01
  0.734737118801E-01
  0.872300845059E-01
  0.772408307121E-01
  0.174154987674E+00
  0.166723788566E+00
  0.336025093966E+00
  0.331944062527E+00
  0.503403712099E+00
  0.503349140862E+00
 -0.392704525405E-01
 -0.292718321969E-01
 -0.221176563714E+01
 -0.223060253663E+01
 -0.177845016868E+01
 -0.179419490623E+01
 -0.115160659065E+01
 -0.116676536531E+01
 -0.800991047596E+00
 -0.818266769086E+00
 -0.499675126814E+00
 -0.518691900312E+00
 -0.265729750014E+00
 -0.249460307954E+00
 -0.996733640647E-01
 -0.818762149610E-01
  0.851170460750E-02
  0.266100739878E-01
  0.883301176485E-01
  0.105475582997E+00
  0.180132087295E+00
  0.195061288686E+00
  0.144080061765E+00
  0.146954234213E+00
  0.894548921036E-01
  0.987126755814E-01
  0.668420294876E-01
  0.804336782576E-01
  0.510547601823E-01
  0.678962991060E-01
  0.425578655403E-01
  0.609038116720E-01
  0.756153730806E-01
  0.591751076701E-01
  0.164401862151E+00
  0.151319538429E+00
  0.328467805334E+00
  0.320628361827E+00
  0.498713677459E+00
  0.498741094437E+00
 -0.346071468816E-01
 -0.803415752738E-02
 -0.216272713477E+01
 -0.221239849900E+01
 -0.174614202738E+01
 -0.178174640540E+01
 -0.112739916394E+01
 -0.115658354287E+01
 -0.777527860069E+00
 -0.807858598181E+00
 -0.475281337613E+00
 -0.507330764983E+00
 -0.251108900083E+00
 -0.225330027406E+00
 -0.835283817102E-01
 -0.560953917528E-01
  0.255951625301E-01
  0.530201500222E-01
  0.105706428075E+00
  0.131817752393E+00
  0.197663115533E+00
  0.220928205376E+00
  0.133710407129E+00
  0.135329732870E+00
  0.734954296313E-01
  0.832430502974E-01
  0.465391493778E-01
  0.622474637548E-01
  0.274990332538E-01
  0.481257001963E-01
  0.165116800815E-01
  0.410821033490E-01
  0.560237835273E-01
  0.324613076547E-01
  0.147222144517E+00
  0.127258498355E+00
  0.314658154227E+00
  0.302596030068E+00
  0.490572978959E+00
  0.490891619801E+00
 -0.184863842945E-01
  0.241712667378E-01
 -0.208650356554E+01
 -0.216379725382E+01
 -0.169644451962E+01
 -0.175108700478E+01
 -0.109059575163E+01
 -0.113489360415E+01
 -0.741900823462E+00
 -0.788320903708E+00
 -0.438534351900E+00
 -0.487894378569E+00
 -0.227350364937E+00
 -0.191210985611E+00
 -0.587787443048E-01
 -0.223794012961E-01
  0.508079025311E-01
  0.866789552663E-01
  0.131036687822E+00
  0.166650222321E+00
  0.223339896706E+00
  0.257194000359E+00
  0.116570310631E+00
  0.116213438449E+00
  0.479785628165E-01
  0.607620659554E-01
  0.153694880708E-01
  0.374134793007E-01
 -0.403132321251E-02
  0.218091468305E-01
 -0.148890121833E-01
  0.135415456393E-01
  0.262998082465E-01
 -0.146672569143E-02
  0.119890198664E+00
  0.924806247315E-01
  0.292395953540E+00
  0.275535954521E+00
  0.477189818088E+00
  0.478205128396E+00
  0.616659918782E-02
  0.645152200849E-01
 -0.198768715243E+01
 -0.208800683261E+01
 -0.163109150910E+01
 -0.170346361393E+01
 -0.104067861387E+01
 -0.110182663361E+01
 -0.691950372505E+00
 -0.759290195104E+00
 -0.388554222146E+00
 -0.459761728213E+00
 -0.194002731982E+00
 -0.151656626051E+00
 -0.268964683867E-01
  0.114651916776E-01
  0.822848505223E-01
  0.120341344386E+00
  0.163579091861E+00
  0.207800839477E+00
  0.257710802678E+00
  0.306543818912E+00
  0.796207202319E-01
  0.689405942386E-01
 -0.167465720577E-01
  0.142856644556E-01
 -0.583639735244E-01
 -0.453348638814E-02
 -0.589074434765E-01
 -0.145047194267E-01
 -0.535871702160E-01
 -0.205569919825E-01
 -0.130294601121E-01
 -0.369397733585E-01
  0.790953097414E-01
  0.479441350885E-01
  0.257535429227E+00
  0.235498137682E+00
  0.455148091548E+00
  0.457814479211E+00
  0.347476374400E-01
  0.110063728027E+00
 -0.187045516321E+01
 -0.198957631242E+01
 -0.155075992123E+01
 -0.164088992195E+01
 -0.974853655641E+00
 -0.105823460027E+01
 -0.624341226597E+00
 -0.721660401100E+00
 -0.331063847161E+00
 -0.424185221988E+00
 -0.156432286442E+00
 -0.118165097947E+00
  0.371892928904E-02
  0.301386208763E-01
  0.113507097084E+00
  0.134130719437E+00
  0.203368424385E+00
  0.251236743310E+00
  0.304775292372E+00
  0.395579241237E+00
 -0.710802086144E-01
 -0.219084782876E+00
 -0.414382084884E+00
 -0.162327013145E+00
 -0.325691273967E+00
 -0.105946456970E+00
 -0.178933598606E+00
 -0.753989694015E-01
 -0.108579159764E+00
 -0.629365771323E-01
 -0.574886678482E-01
 -0.717205809847E-01
  0.246689473714E-01
  0.199415075266E-02
  0.202100885497E+00
  0.177822575063E+00
  0.416480816171E+00
  0.423422681026E+00
  0.598305685888E-01
  0.158627950524E+00
 -0.173566104099E+01
 -0.187260885575E+01
 -0.145121647203E+01
 -0.156513905238E+01
 -0.883421247387E+00
 -0.100603599616E+01
 -0.542913438938E+00
 -0.677125439923E+00
 -0.281156427125E+00
 -0.388468018892E+00
 -0.128085634000E+00
 -0.102774306676E+00
  0.145901440557E-01
  0.102895793208E-01
  0.126961599971E+00
  0.462487091882E-01
  0.255830765806E+00
  0.150233051068E+00
  0.383427714603E+00
  0.659327992829E+00
 -0.920978485919E+02
  0.260886461861E+00
 -0.804374486910E+00
 -0.200973378779E+01
 -0.228658380110E+01
 -0.412198659953E+00
 -0.461767630973E+00
 -0.192938631844E+00
 -0.195525485521E+00
 -0.122164379027E+00
 -0.108250306570E+00
 -0.112137349228E+00
 -0.365830170784E-01
 -0.424932068058E-01
  0.116607982693E+00
  0.105516216152E+00
  0.337643222321E+00
  0.358092600786E+00
  0.632284112696E-01
  0.209713591579E+00
 -0.157339779063E+01
 -0.173778968531E+01
 -0.130937050617E+01
 -0.147747845578E+01
 -0.754309012298E+00
 -0.948107040675E+00
 -0.474272058158E+00
 -0.633230288837E+00
 -0.251955224297E+00
 -0.373310073924E+00
 -0.127178771727E+00
 -0.117544411076E+00
 -0.356695150663E-01
 -0.775970093896E-01
  0.271772011714E-01
 -0.985829825517E+00
 -0.253084145407E+00
 -0.310129096662E+00
 -0.718426494938E+00
 -0.894951180135E+02
 -0.151471908161E+09
 -0.917723508316E+05
 -0.540034009826E+05
 -0.702783383122E+00
 -0.543160012232E-01
 -0.185018288650E+01
 -0.138375875437E+01
 -0.446603525332E+00
 -0.378026259026E+00
 -0.227843402483E+00
 -0.196651929112E+00
 -0.183376102978E+00
 -0.118006397932E+00
 -0.115253765237E+00
 -0.142736087701E-01
 -0.575527748173E-02
  0.143294355948E+00
  0.204895497428E+00
 -0.763465189691E-01
  0.245899826778E+00
 -0.127327425850E+01
 -0.157523076838E+01
 -0.100734492647E+01
 -0.139952001677E+01
 -0.642884958192E+00
 -0.901795609452E+00
 -0.459143171792E+00
 -0.644864232290E+00
 -0.268725957744E+00
 -0.440862197506E+00
 -0.204171361739E+00
 -0.219111085997E+00
 -0.274647471971E+00
 -0.299830696367E+00
 -0.123067654733E+01
 -0.239384224236E+01
 -0.176905897418E+00
 -0.535140628920E+05
 -0.909410287133E+05
 -0.151489713201E+09
 -0.345265708809E+09
 -0.207874996774E+07
 -0.898332258295E+05
 -0.103706309970E+03
 -0.464515333016E+01
 -0.374239167020E+01
 -0.102307941557E+01
 -0.814553074818E+00
 -0.455231933419E+00
 -0.413250568713E+00
 -0.335403404073E+00
 -0.286885696426E+00
 -0.287655806361E+00
 -0.234069314271E+00
 -0.262307392883E+00
 -0.206880642361E+00
 -0.201831534560E+00
 -0.370941098902E+00
 -0.127646600590E+01
 -0.915715533425E+00
 -0.120927799970E+01
 -0.722257728633E+00
 -0.899321699762E+00
 -0.588052517807E+00
 -0.760545081797E+00
 -0.429679657902E+00
 -0.685873005048E+00
 -0.469892362981E+00
 -0.609015706051E+00
 -0.114263617479E+01
 -0.540059676348E+00
  0.641395035246E+00
 -0.168704588201E+03
 -0.907937596431E+05
 -0.206759284722E+07
 -0.345190071509E+09
 -0.362581289825E+09
 -0.795844466376E+07
 -0.129430381936E+06
 -0.779310586148E+03
 -0.897247534276E+01
 -0.539740207342E+01
 -0.147263534107E+01
 -0.125614456982E+01
 -0.720430827741E+00
 -0.686229831060E+00
 -0.537432100279E+00
 -0.501271368846E+00
 -0.491325237010E+00
 -0.455362080111E+00
 -0.502771549725E+00
 -0.462312019810E+00
 -0.528327825071E+00
 -0.529746994992E+00
 -0.122323351417E+01
 -0.970278152531E+00
 -0.115194092239E+01
 -0.847556856122E+00
 -0.952467997545E+00
 -0.748860519139E+00
 -0.884755498757E+00
 -0.629532751611E+00
 -0.927034421185E+00
 -0.785678584725E+00
 -0.102531230908E+01
 -0.185900911779E+01
 -0.949036333831E+00
  0.727818267021E+00
 -0.995853323032E+03
 -0.131014200155E+06
 -0.792978817269E+07
 -0.362463945942E+09
 -0.289508122820E+09
 -0.613270010191E+07
 -0.173905499692E+06
 -0.594697128205E+03
 -0.150922389523E+02
 -0.574949929465E+01
 -0.196398910065E+01
 -0.161709105543E+01
 -0.967894625381E+00
 -0.931282599615E+00
 -0.732897236587E+00
 -0.702311123963E+00
 -0.678052545874E+00
 -0.648557076751E+00
 -0.699887077356E+00
 -0.666142435953E+00
 -0.771237950340E+00
 -0.664771417287E+00
 -0.110628612975E+01
 -0.101411504478E+01
 -0.106552750304E+01
 -0.919395173161E+00
 -0.951793802625E+00
 -0.849099029874E+00
 -0.949752798405E+00
 -0.786140521095E+00
 -0.109596378790E+01
 -0.104242432080E+01
 -0.138750009416E+01
 -0.243798878257E+01
 -0.169167663377E+01
 -0.184187171821E+01
 -0.817380167880E+03
 -0.175637882330E+06
 -0.610355481418E+07
 -0.289399803762E+09
 -0.208202387159E+09
 -0.119362065307E+07
 -0.194379346399E+06
 -0.835866232978E+02
 -0.146626734904E+02
 -0.472339075961E+01
 -0.241271856692E+01
 -0.179284690119E+01
 -0.112573678769E+01
 -0.108890546988E+01
 -0.871754617690E+00
 -0.855519784667E+00
 -0.819156854580E+00
 -0.802974093453E+00
 -0.843017312479E+00
 -0.834495550634E+00
 -0.930439206055E+00
 -0.808480877413E+00
 -0.959853354968E+00
 -0.102221174413E+01
 -0.955263439514E+00
 -0.924439353159E+00
 -0.899730483216E+00
 -0.873204689452E+00
 -0.945272492783E+00
 -0.867300551407E+00
 -0.117038972161E+01
 -0.118717034299E+01
 -0.165089802422E+01
 -0.268465892148E+01
 -0.293826403341E+01
 -0.762130378559E+01
 -0.181386986726E+03
 -0.195203582196E+06
 -0.118093957380E+07
 -0.208157669219E+09
SCALARS sigma float 1
LOOKUP_TABLE default
  0.000000000000E+00
  0.000000000000E+00
  0.000000000000E+00
  0.000000000000E+00
  0.000000000000E+00
  0.000000000000E+00
  0.000000000000E+00
  0.000000000000E+00
  0.000000000000E+00
  0.000000000000E+00
  0.000000000000E+00
  0.000000000000E+00
  0.000000000000E+00
  0.000000000000E+00
  0.000000000000E+00
  0.000000000000E+00
  0.000000000000E+00
  0.000000000000E+00
  0.000000000000E+00
  0.000000000000E+00
  0.000000000000E+00
  0.000000000000E+00
  0.000000000000E+00
  0.000000000000E+00
  0.000000000000E+00
  0.000000000000E+00
  0.000000000000E+00
  0.000000000000E+00
  0.000000000000E+00
  0.000000000000E+00
  0.000000000000E+00
  0.000000000000E+00
  0.000000000000E+00
  0.000000000000E+00
  0.000000000000E+00
  0.000000000000E+00
  0.000000000000E+00
  0.000000000000E+00
  0.000000000000E+00
  0.000000000000E+00
  0.000000000000E+00
  0.000000000000E+00