# vtk DataFile Version 3.0
TriPan results file. Generated by TriPan, USU AeroLab (c) 2021.
ASCII
DATASET POLYDATA
POINTS                 144 float
  0.000000000000E+00  0.000000000000E+00  0.000000000000E+00
  0.113538098335E+01  0.000000000000E+00 -0.658124566078E+00
  0.113538098335E+01  0.000000000000E+00  0.658124566078E+00
  0.192375373840E+01  0.192375373840E+01  0.000000000000E+00
  0.305913543701E+01  0.192375373840E+01 -0.658124983311E+00
  0.305913543701E+01  0.192375373840E+01  0.658124983311E+00
  0.423028087616E+01  0.000000000000E+00 -0.108747220039E+01
  0.423028087616E+01  0.000000000000E+00  0.108747220039E+01
  0.547033166885E+01  0.547033166885E+01  0.000000000000E+00
  0.615403699875E+01  0.192375373840E+01 -0.108747279644E+01
  0.615403699875E+01  0.192375373840E+01  0.108747279644E+01
  0.660571479797E+01  0.547033166885E+01 -0.658125698566E+00
  0.660571479797E+01  0.547033166885E+01  0.658125698566E+00
  0.939508819580E+01  0.000000000000E+00 -0.980745851994E+00
  0.939508819580E+01  0.000000000000E+00  0.980745851994E+00
  0.970061969757E+01  0.547033166885E+01 -0.108747410774E+01
  0.970061969757E+01  0.547033166885E+01  0.108747410774E+01
  0.113188476562E+02  0.192375373840E+01 -0.980746448040E+00
  0.113188476562E+02  0.192375373840E+01  0.980746448040E+00
  0.113820018768E+02  0.113820018768E+02  0.000000000000E+00
  0.125173873901E+02  0.113820018768E+02 -0.658127009869E+00
  0.125173873901E+02  0.113820018768E+02  0.658127009869E+00
  0.145402030945E+02  0.000000000000E+00 -0.479613035917E+00
  0.145402030945E+02  0.000000000000E+00  0.479613035917E+00
  0.148654365540E+02  0.547033166885E+01 -0.980747580528E+00
  0.148654365540E+02  0.547033166885E+01  0.980747580528E+00
  0.156122989655E+02  0.113820018768E+02 -0.108747613430E+01
  0.156122989655E+02  0.113820018768E+02  0.108747613430E+01
  0.164639663696E+02  0.192375373840E+01 -0.479613333941E+00
  0.164639663696E+02  0.192375373840E+01  0.479613333941E+00
  0.176505107880E+02  0.000000000000E+00 -0.144198849797E+00
  0.176505107880E+02  0.000000000000E+00  0.144198849797E+00
  0.190000000000E+02  0.000000000000E+00  0.000000000000E+00
  0.195742740631E+02  0.192375373840E+01 -0.144198939204E+00
  0.195742740631E+02  0.192375373840E+01  0.144198939204E+00
  0.197561950684E+02  0.197561950684E+02  0.000000000000E+00
  0.200105609894E+02  0.547033166885E+01 -0.479613870382E+00
  0.200105609894E+02  0.547033166885E+01  0.479613870382E+00
  0.207771244049E+02  0.113820018768E+02 -0.980749428272E+00
  0.207771244049E+02  0.113820018768E+02  0.980749428272E+00
  0.208915824890E+02  0.197561950684E+02 -0.658128738403E+00
  0.208915824890E+02  0.197561950684E+02  0.658128738403E+00
  0.209237651825E+02  0.192375373840E+01  0.000000000000E+00
  0.231208724976E+02  0.547033166885E+01 -0.144199103117E+00
  0.231208724976E+02  0.547033166885E+01  0.144199103117E+00
  0.239865016937E+02  0.197561950684E+02 -0.108747911453E+01
  0.239865016937E+02  0.197561950684E+02  0.108747911453E+01
  0.244703655243E+02  0.547033166885E+01  0.000000000000E+00
  0.259222583771E+02  0.113820018768E+02 -0.479614794254E+00
  0.259222583771E+02  0.113820018768E+02  0.479614794254E+00
  0.290325775146E+02  0.113820018768E+02 -0.144199386239E+00
  0.290325775146E+02  0.113820018768E+02  0.144199386239E+00
  0.291513423920E+02  0.197561950684E+02 -0.980752110481E+00
  0.291513423920E+02  0.197561950684E+02  0.980752110481E+00
  0.292438049316E+02  0.292438049316E+02  0.000000000000E+00
  0.303791980743E+02  0.292438049316E+02 -0.658130764961E+00
  0.303791980743E+02  0.292438049316E+02  0.658130764961E+00
  0.303820724487E+02  0.113820018768E+02  0.000000000000E+00
  0.334741249084E+02  0.292438049316E+02 -0.108748245239E+01
  0.334741249084E+02  0.292438049316E+02  0.108748245239E+01
  0.342964897156E+02  0.197561950684E+02 -0.479616105556E+00
  0.342964897156E+02  0.197561950684E+02  0.479616105556E+00
  0.374068183899E+02  0.197561950684E+02 -0.144199773669E+00
  0.374068183899E+02  0.197561950684E+02  0.144199773669E+00
  0.376179962158E+02  0.376179962158E+02  0.000000000000E+00
  0.386389808655E+02  0.292438049316E+02 -0.980755090714E+00
  0.386389808655E+02  0.292438049316E+02  0.980755090714E+00
  0.387533912659E+02  0.376179962158E+02 -0.658132553101E+00
  0.387533912659E+02  0.376179962158E+02  0.658132553101E+00
  0.387563171387E+02  0.197561950684E+02  0.000000000000E+00
  0.418483314514E+02  0.376179962158E+02 -0.108748543262E+01
  0.418483314514E+02  0.376179962158E+02  0.108748543262E+01
  0.435296669006E+02  0.435296669006E+02  0.000000000000E+00
  0.437841453552E+02  0.292438049316E+02 -0.479617565870E+00
  0.437841453552E+02  0.292438049316E+02  0.479617565870E+00
  0.446650657654E+02  0.435296669006E+02 -0.658133804798E+00
  0.446650657654E+02  0.435296669006E+02  0.658133804798E+00
  0.468944816589E+02  0.292438049316E+02 -0.144200220704E+00
  0.468944816589E+02  0.292438049316E+02  0.144200220704E+00
  0.470131988525E+02  0.376179962158E+02 -0.980757772923E+00
  0.470131988525E+02  0.376179962158E+02  0.980757772923E+00
  0.470762481689E+02  0.470762481689E+02  0.000000000000E+00
  0.477600097656E+02  0.435296669006E+02 -0.108748745918E+01
  0.477600097656E+02  0.435296669006E+02  0.108748745918E+01
  0.482116432190E+02  0.470762481689E+02 -0.658134579659E+00
  0.482116432190E+02  0.470762481689E+02  0.658134579659E+00
  0.482439842224E+02  0.292438049316E+02  0.000000000000E+00
  0.490000000000E+02  0.490000000000E+02  0.000000000000E+00
  0.501353988647E+02  0.490000000000E+02 -0.658134996891E+00
  0.501353988647E+02  0.490000000000E+02  0.658134996891E+00
  0.506007728577E+02  0.494653701782E+02 -0.465371757746E+00
  0.506007728577E+02  0.494653701782E+02  0.465371757746E+00
  0.507935333252E+02  0.496581344604E+02 -0.771266485397E-15
  0.513065910339E+02  0.470762481689E+02 -0.108748877048E+01
  0.513065910339E+02  0.470762481689E+02  0.108748877048E+01
  0.521583786011E+02  0.376179962158E+02 -0.479618877172E+00
  0.521583786011E+02  0.376179962158E+02  0.479618877172E+00
  0.529248886108E+02  0.435296669006E+02 -0.980759620667E+00
  0.529248886108E+02  0.435296669006E+02  0.980759620667E+00
  0.532303466797E+02  0.490000000000E+02 -0.108748936653E+01
  0.532303466797E+02  0.490000000000E+02  0.108748936653E+01
  0.539993209839E+02  0.497689704895E+02 -0.768971264362E+00
  0.539993209839E+02  0.497689704895E+02  0.768971264362E+00
  0.543178405762E+02  0.500874900818E+02 -0.157378642191E-15
  0.552687225342E+02  0.376179962158E+02 -0.144200608134E+00
  0.552687225342E+02  0.376179962158E+02  0.144200608134E+00
  0.564714775085E+02  0.470762481689E+02 -0.980760753155E+00
  0.564714775085E+02  0.470762481689E+02  0.980760753155E+00
  0.566182289124E+02  0.376179962158E+02  0.000000000000E+00
  0.580700759888E+02  0.435296669006E+02 -0.479619771242E+00
  0.580700759888E+02  0.435296669006E+02  0.479619771242E+00
  0.583952369690E+02  0.490000000000E+02 -0.980761349201E+00
  0.583952369690E+02  0.490000000000E+02  0.980761349201E+00
  0.590887413025E+02  0.496935043335E+02 -0.693503141403E+00
  0.590887413025E+02  0.496935043335E+02  0.693503141403E+00
  0.593759994507E+02  0.499807624817E+02  0.000000000000E+00
  0.611804275513E+02  0.435296669006E+02 -0.144200876355E+00
  0.611804275513E+02  0.435296669006E+02  0.144200876355E+00
  0.616166725159E+02  0.470762481689E+02 -0.479620337486E+00
  0.616166725159E+02  0.470762481689E+02  0.479620337486E+00
  0.625299339294E+02  0.435296669006E+02  0.000000000000E+00
  0.635404319763E+02  0.490000000000E+02 -0.479620635509E+00
  0.635404319763E+02  0.490000000000E+02  0.479620635509E+00
  0.638795776367E+02  0.493391418457E+02 -0.339143037796E+00
  0.638795776367E+02  0.493391418457E+02  0.339143037796E+00
  0.640200576782E+02  0.494796218872E+02  0.296956834055E-15
  0.647270278931E+02  0.470762481689E+02 -0.144201040268E+00
  0.647270278931E+02  0.470762481689E+02  0.144201040268E+00
  0.660765380859E+02  0.470762481689E+02  0.000000000000E+00
  0.666507873535E+02  0.490000000000E+02 -0.144201144576E+00
  0.666507873535E+02  0.490000000000E+02  0.144201144576E+00
  0.667527542114E+02  0.491019668579E+02 -0.101965606213E+00
  0.667527542114E+02  0.491019668579E+02  0.101965606213E+00
  0.667949905396E+02  0.491441993713E+02 -0.260488604752E-16
  0.680002975464E+02  0.490000000000E+02  0.000000000000E+00
  0.209237651825E+02  0.192375373840E+01  0.000000000000E+00
  0.190000000000E+02  0.000000000000E+00  0.000000000000E+00
  0.244703655243E+02  0.547033166885E+01  0.000000000000E+00
  0.303820724487E+02  0.113820018768E+02  0.000000000000E+00
  0.387563171387E+02  0.197561950684E+02  0.000000000000E+00
  0.482439842224E+02  0.292438049316E+02  0.000000000000E+00
  0.566182289124E+02  0.376179962158E+02  0.000000000000E+00
  0.625299339294E+02  0.435296669006E+02  0.000000000000E+00
  0.660765380859E+02  0.470762481689E+02  0.000000000000E+00
POLYGONS                 256                1024
3                  32                  33                  42
3                  32                  30                  33
3                  30                  28                  33
3                  30                  22                  28
3                  22                  17                  28
3                  22                  13                  17
3                  13                   6                  17
3                  17                   6                   9
3                   6                   1                   9
3                   9                   1                   4
3                   1                   0                   4
3                   4                   0                   3
3                   0                   5                   3
3                   0                   2                   5
3                   2                  10                   5
3                   2                   7                  10
[...]
CELL_DATA                 256
SCALARS sigma float 1
LOOKUP_TABLE default
  0.797646011077E-01
  0.797645178216E-01
  0.787909976636E-01
  0.787910630303E-01
  0.891189278215E-01
  0.891189139925E-01
  0.165291191365E+00
  0.165291204694E+00
  0.315958698823E+00
  0.315958684995E+00
  0.584073526556E+00
  0.584073527101E+00
  0.296898318038E+00
  0.296898316895E+00
 -0.484280327775E-01
 -0.484280159580E-01
 -0.205883563289E+00
 -0.205883576139E+00
 -0.278740914798E+00
 -0.278740900630E+00
 -0.288297668902E+00
 -0.288297733275E+00
 -0.287400119491E+00
 -0.287400040428E+00
  0.797646299900E-01
  0.797646008717E-01
  0.787910092679E-01
  0.787909970188E-01
  0.891189206065E-01
  0.891189279684E-01
  0.165291204531E+00
  0.165291194771E+00
  0.315958685751E+00
  0.315958721975E+00
  0.584073520596E+00
  0.584073491482E+00
  0.296898262436E+00
  0.296898314732E+00
 -0.484279906605E-01
 -0.484280328934E-01
 -0.205883572586E+00
 -0.205883563086E+00
 -0.278740901090E+00
 -0.278740908306E+00
 -0.288297730915E+00
 -0.288297719209E+00
 -0.287400039578E+00
 -0.287400012295E+00
  0.797645720083E-01
  0.797646299746E-01
  0.787910669674E-01
  0.787910094139E-01
  0.891189216178E-01
  0.891189206607E-01
  0.165291194850E+00
  0.165291194571E+00
  0.315958721320E+00
  0.315958662882E+00
  0.584073489060E+00
  0.584073469383E+00
  0.296898227941E+00
  0.296898261205E+00
 -0.484280573666E-01
 -0.484279905601E-01
 -0.205883572959E+00
 -0.205883572685E+00
 -0.278740908475E+00
 -0.278740907557E+00
 -0.288297719743E+00
 -0.288297665526E+00
 -0.287400012240E+00
 -0.287400066213E+00
  0.797645868460E-01
  0.797645720829E-01
  0.787911003718E-01
  0.787910672584E-01
  0.891189080819E-01
  0.891189215786E-01
  0.165291194547E+00
  0.165291197865E+00
  0.315958664234E+00
  0.315958718212E+00
  0.584073484447E+00
  0.584073664132E+00
  0.296898531941E+00
  0.296898235598E+00
 -0.484279963923E-01
 -0.484280575738E-01
 -0.205883569678E+00
 -0.205883572929E+00
 -0.278740907434E+00
 -0.278740920264E+00
 -0.288297666591E+00
 -0.288297635596E+00
 -0.287400066481E+00
 -0.287400052773E+00
  0.797645580857E-01
  0.797645869170E-01
  0.787910399023E-01
  0.787911002563E-01
  0.891189371519E-01
  0.891189080175E-01
  0.165291197875E+00
  0.165291189756E+00
  0.315958717442E+00
  0.315958788209E+00
  0.584073636594E+00
  0.584073260778E+00
  0.296897902309E+00
  0.296898517943E+00
 -0.484279162549E-01
 -0.484279962744E-01
 -0.205883577650E+00
 -0.205883569691E+00
 -0.278740920062E+00
 -0.278740892443E+00
 -0.288297635173E+00
 -0.288297691564E+00
 -0.287400053029E+00
 -0.287400079779E+00
  0.797645725606E-01
  0.797645577974E-01
  0.787910075265E-01
  0.787910395469E-01
  0.891189591714E-01
  0.891189370922E-01
  0.165291189738E+00
  0.165291177929E+00
  0.315958787077E+00
  0.315958602749E+00
  0.584073277281E+00
  0.584073474141E+00
  0.296898235367E+00
  0.296897910698E+00
 -0.484281250110E-01
 -0.484279160813E-01
 -0.205883589198E+00
 -0.205883577627E+00
 -0.278740892256E+00
 -0.278740871268E+00
 -0.288297690264E+00
 -0.288297720236E+00
 -0.287400078740E+00
 -0.287400065032E+00
  0.797643766411E-01
  0.797645726899E-01
  0.787910701815E-01
  0.787910079129E-01
  0.891189190911E-01
  0.891189593233E-01
  0.165291177978E+00
  0.165291189054E+00
  0.315958601982E+00
  0.315958670063E+00
  0.584073441276E+00
  0.584073174191E+00
  0.296897767148E+00
  0.296898218661E+00
 -0.484280470623E-01
 -0.484281248935E-01
 -0.205883578428E+00
 -0.205883589258E+00
 -0.278740871743E+00
 -0.278740910350E+00
 -0.288297721649E+00
 -0.288297662991E+00
 -0.287400065498E+00
 -0.287400248039E+00
  0.797645545313E-01
  0.797643766384E-01
  0.787910734321E-01
  0.787910705803E-01
  0.891189532427E-01
  0.891189196222E-01
  0.165291189073E+00
  0.165291185001E+00
  0.315958680511E+00
  0.315958682481E+00
  0.584073344676E+00
  0.584074107668E+00
  0.296899224298E+00
  0.296897853809E+00
 -0.484280463659E-01
 -0.484280486636E-01
 -0.205883582416E+00
 -0.205883578453E+00
 -0.278740912011E+00
 -0.278740879054E+00
 -0.288297664450E+00
 -0.288297661724E+00
 -0.287400248030E+00
 -0.287400081355E+00
  0.797644803693E-01
  0.797645562946E-01
  0.787910130976E-01
  0.787910737940E-01
  0.891188961906E-01
  0.891189522426E-01
  0.165291184926E+00
  0.165291200160E+00
  0.315958668429E+00
  0.315958715335E+00
  0.584073918846E+00
  0.584073546871E+00
  0.296898348899E+00
  0.296899128315E+00
 -0.484279871568E-01
 -0.484280442120E-01
 -0.205883567636E+00
 -0.205883582322E+00
 -0.278740875926E+00
 -0.278740933352E+00
 -0.288297663049E+00
 -0.288297722822E+00
 -0.287400087708E+00
 -0.287400159784E+00
  0.767109998335E-01
  0.758044599913E-01
  0.758038319546E-01
  0.853919258041E-01
  0.853921057498E-01
  0.153846043595E+00
  0.153846108649E+00
  0.279721165683E+00
  0.279721260959E+00
  0.495435928737E+00
  0.251841758654E+00
 -0.428733639775E-01
 -0.428737438206E-01
 -0.191627498243E+00
 -0.191627698822E+00
 -0.267084493582E+00
 -0.267084562477E+00
 -0.277367573718E+00
 -0.277367416154E+00
 -0.276398134950E+00
 -0.283700607765E-01
 -0.293727822455E-01
 -0.293651547674E-01
 -0.188392561133E-01
 -0.188411882286E-01
  0.532199359050E-01
  0.532199848443E-01
  0.174823607997E+00
  0.174823616046E+00
  0.373066410783E+00
  0.284304393329E+00
  0.487106094898E-01
  0.487110629434E-01
 -0.914036713105E-01
 -0.914030855516E-01
 -0.172980525425E+00
 -0.172980822731E+00
 -0.184807396995E+00
 -0.184805042279E+00
 -0.183679392800E+00
SCALARS inclination float 1
LOOKUP_TABLE default
  0.100000000000E+01
  0.100000000000E+01
  0.100000000000E+01
  0.100000000000E+01
  0.100000000000E+01
  0.100000000000E+01
  0.100000000000E+01
  0.100000000000E+01
  0.100000000000E+01
  0.100000000000E+01
  0.100000000000E+01
  0.100000000000E+01
  0.100000000000E+01
  0.100000000000E+01
  0.100000000000E+01
  0.100000000000E+01
  0.100000000000E+01
  0.100000000000E+01
  0.100000000000E+01
  0.100000000000E+01
  0.100000000000E+01
  0.100000000000E+01
  0.100000000000E+01
  0.100000000000E+01
  0.100000000000E+01
  0.100000000000E+01
  0.100000000000E+01
  0.100000000000E+01
  0.100000000000E+01
  0.100000000000E+01
  0.100000000000E+01
  0.100000000000E+01
  0.100000000000E+01
  0.100000000000E+01
  0.100000000000E+01
  0.100000000000E+01
  0.100000000000E+01
  0.100000000000E+01
  0.100000000000E+01
  0.100000000000E+01
  0.100000000000E+01
  0.100000000000E+01
  0.100000000000E+01
  0.100000000000E+01
  0.100000000000E+01
  0.100000000000E+01
  0.100000000000E+01
  0.100000000000E+01
  0.100000000000E+01
  0.100000000000E+01
  0.100000000000E+01
  0.100000000000E+01
  0.100000000000E+01
  0.100000000000E+01
  0.100000000000E+01
  0.100000000000E+01
  0.100000000000E+01
  0.100000000000E+01
  0.100000000000E+01
  0.100000000000E+01
  0.100000000000E+01
  0.100000000000E+01
  0.100000000000E+01
  0.100000000000E+01
  0.100000000000E+01
  0.100000000000E+01
  0.100000000000E+01
  0.100000000000E+01
  0.100000000000E+01
  0.100000000000E+01
  0.100000000000E+01
  0.100000000000E+01
  0.100000000000E+01
  0.100000000000E+01
  0.100000000000E+01
  0.100000000000E+01
  0.100000000000E+01
  0.100000000000E+01
  0.100000000000E+01
  0.100000000000E+01
  0.100000000000E+01
  0.100000000000E+01
  0.100000000000E+01
  0.100000000000E+01
  0.100000000000E+01
  0.100000000000E+01
  0.100000000000E+01
  0.100000000000E+01
  0.100000000000E+01
  0.100000000000E+01
  0.100000000000E+01
  0.100000000000E+01
  0.100000000000E+01
  0.100000000000E+01
  0.100000000000E+01
  0.100000000000E+01
  0.100000000000E+01
  0.100000000000E+01
  0.100000000000E+01
  0.100000000000E+01
  0.100000000000E+01
  0.100000000000E+01
  0.100000000000E+01
  0.100000000000E+01
  0.100000000000E+01
  0.100000000000E+01
  0.100000000000E+01
  0.100000000000E+01
  0.100000000000E+01
  0.100000000000E+01
  0.100000000000E+01
  0.100000000000E+01
  0.100000000000E+01
  0.100000000000E+01
  0.100000000000E+01
  0.100000000000E+01
  0.100000000000E+01
  0.100000000000E+01
  0.100000000000E+01
  0.100000000000E+01
  0.100000000000E+01
  0.100000000000E+01
  0.100000000000E+01
  0.100000000000E+01
  0.100000000000E+01
  0.100000000000E+01
  0.100000000000E+01
  0.100000000000E+01
  0.100000000000E+01
  0.100000000000E+01
  0.100000000000E+01
  0.100000000000E+01
  0.100000000000E+01
  0.100000000000E+01
  0.100000000000E+01
  0.100000000000E+01
  0.100000000000E+01
  0.100000000000E+01
  0.100000000000E+01
  0.100000000000E+01
  0.100000000000E+01
  0.100000000000E+01
  0.100000000000E+01
  0.100000000000E+01
  0.100000000000E+01
  0.100000000000E+01
  0.100000000000E+01
  0.100000000000E+01
  0.100000000000E+01
  0.100000000000E+01
  0.100000000000E+01
  0.100000000000E+01
  0.100000000000E+01
  0.100000000000E+01
  0.100000000000E+01
  0.100000000000E+01
  0.100000000000E+01
  0.100000000000E+01
  0.100000000000E+01
  0.100000000000E+01
  0.100000000000E+01
  0.100000000000E+01
  0.100000000000E+01
  0.100000000000E+01
  0.100000000000E+01
  0.100000000000E+01
  0.100000000000E+01
  0.100000000000E+01
  0.100000000000E+01
  0.100000000000E+01
  0.100000000000E+01
  0.100000000000E+01
  0.100000000000E+01
  0.100000000000E+01
  0.100000000000E+01
  0.100000000000E+01
  0.100000000000E+01
  0.100000000000E+01
  0.100000000000E+01
  0.100000000000E+01
  0.100000000000E+01
  0.100000000000E+01
  0.100000000000E+01
  0.100000000000E+01
  0.100000000000E+01
  0.100000000000E+01
  0.100000000000E+01
  0.100000000000E+01
  0.100000000000E+01
  0.100000000000E+01
  0.100000000000E+01
  0.100000000000E+01
  0.100000000000E+01
  0.100000000000E+01
  0.100000000000E+01
  0.100000000000E+01
  0.100000000000E+01
  0.100000000000E+01
  0.100000000000E+01
  0.100000000000E+01
  0.100000000000E+01
  0.100000000000E+01
  0.100000000000E+01
  0.100000000000E+01
  0.100000000000E+01
  0.100000000000E+01
  0.100000000000E+01
  0.100000000000E+01
  0.100000000000E+01
  0.100000000000E+01
  0.100000000000E+01
  0.100000000000E+01
  0.100000000000E+01
  0.100000000000E+01
  0.100000000000E+01
  0.100000000000E+01
  0.100000000000E+01
  0.100000000000E+01
  0.100000000000E+01
  0.100000000000E+01
  0.100000000000E+01
  0.100000000000E+01
  0.100000000000E+01
  0.100000000000E+01
  0.100000000000E+01
  0.100000000000E+01
  0.100000000000E+01
  0.100000000000E+01
  0.100000000000E+01
  0.100000000000E+01
  0.100000000000E+01
  0.100000000000E+01
  0.100000000000E+01
  0.100000000000E+01
  0.100000000000E+01
  0.100000000000E+01
  0.100000000000E+01
  0.100000000000E+01
  0.100000000000E+01
  0.100000000000E+01
  0.100000000000E+01
  0.100000000000E+01
  0.100000000000E+01
  0.100000000000E+01
  0.100000000000E+01
  0.100000000000E+01
  0.100000000000E+01
  0.100000000000E+01
  0.100000000000E+01
  0.100000000000E+01
  0.100000000000E+01
  0.100000000000E+01
  0.100000000000E+01
  0.100000000000E+01
  0.100000000000E+01
  0.100000000000E+01
VECTORS v float
  0.149428856721E+03  0.289642992695E+01  0.156576191680E+02
  0.150416672257E+03  0.261174280692E+01  0.157936044251E+02
  0.153224365283E+03 -0.195964103303E+00  0.165447898879E+02
  0.154188596020E+03  0.405577457399E+00  0.165838914421E+02
  0.156282337946E+03 -0.168817503395E+01  0.153862845650E+02
  0.156922068932E+03 -0.627612685775E+00  0.153452972600E+02
  0.152532348218E+03  0.376211728316E+01  0.307420883307E+01
  0.154671044347E+03 -0.412995951164E+01  0.328148688178E+01
  0.131081476854E+03  0.194596314024E+02 -0.154850189820E+02
  0.137265059175E+03  0.261501954332E+01 -0.186796575717E+02
  0.734972443701E+02  0.663828612139E+02 -0.412385842232E+01
  0.709578270484E+02  0.720479909181E+02  0.631914429681E+00
  0.177589859830E+03 -0.345840418630E+02  0.122986785573E+03
  0.151761111161E+03  0.230367396936E+02  0.746151929562E+02
  0.211215031936E+03 -0.364171944542E+02  0.343533822025E+02
  0.201145500163E+03 -0.898692131518E+01  0.291511381121E+02
  0.200830928420E+03 -0.867233880863E+01 -0.432920685716E+01
  0.201777440880E+03 -0.121650975098E+02 -0.442094502363E+01
  0.189847941074E+03 -0.235557853951E+00 -0.185140821361E+02
  0.184830161034E+03 -0.855415786061E+01 -0.188355836693E+02
  0.174939210316E+03  0.133684187182E+01 -0.187212005986E+02
  0.168271200378E+03 -0.282304935333E+01 -0.184507402399E+02
  0.161134428819E+03  0.431375750682E+01 -0.167569750631E+02
  0.153312945050E+03  0.656790516000E+01 -0.156803354593E+02
  0.150098110494E+03  0.581194159001E+01  0.154175904881E+02
  0.149466139736E+03  0.619902073155E+01  0.153087046900E+02
  0.153558482341E+03  0.210665451522E+01  0.163325040145E+02
  0.153251230107E+03  0.214096815057E+01  0.162956715737E+02
  0.156109025222E+03 -0.716840566904E+00  0.152747967916E+02
  0.156292255127E+03 -0.632888197261E+00  0.152844651709E+02
  0.154673228059E+03  0.986140010904E+00  0.317581046811E+01
  0.155131791464E+03 -0.141207781842E+00  0.320858391109E+01
  0.137545086962E+03  0.174455130196E+02 -0.166611112804E+02
  0.136418624650E+03  0.196102509734E+02 -0.162045361287E+02
  0.735748850030E+02  0.824540202749E+02  0.514680108673E+01
  0.660329035272E+02  0.945195036391E+02  0.165122795271E+02
  0.196197231615E+03 -0.356448244491E+02  0.134387424994E+03
  0.182738137289E+03 -0.141132869581E+02  0.114105098727E+03
  0.218607543576E+03 -0.499826922148E+02  0.372608437596E+02
  0.211226707829E+03 -0.357988346053E+02  0.342692179431E+02
  0.200497556184E+03 -0.250696541411E+02 -0.466116362904E+01
  0.200823587393E+03 -0.258711801857E+02 -0.468446135888E+01
  0.184817838713E+03 -0.986537745139E+01 -0.189620965638E+02
  0.180333979800E+03 -0.119197979958E+02 -0.187254725424E+02
  0.168304910278E+03  0.109328043257E+00 -0.181381473308E+02
  0.164313116083E+03  0.555125277622E+00 -0.176595968194E+02
  0.153368620014E+03  0.114996845055E+02 -0.151592992411E+02
  0.151817300889E+03  0.124498596311E+02 -0.148919989144E+02
  0.150335543286E+03  0.720360285348E+01  0.152942637934E+02
  0.150115724620E+03  0.737223079842E+01  0.152527479888E+02
  0.153991773617E+03  0.349615902526E+01  0.162293765738E+02
  0.153576674255E+03  0.368914363619E+01  0.161638098254E+02
  0.156241322280E+03  0.102448319705E+01  0.151180768243E+02
  0.156125520556E+03  0.103842789467E+01  0.151054397020E+02
  0.155132718731E+03  0.203122895064E+01  0.316371070716E+01
  0.154327360376E+03  0.354106648029E+01  0.311586863906E+01
  0.136452715627E+03  0.214157320837E+02 -0.159587955405E+02
  0.133492020595E+03  0.260024725923E+02 -0.149117529029E+02
  0.658203175196E+02  0.936742098485E+02  0.161455310973E+02
  0.589050987432E+02  0.102963222920E+03  0.255383226093E+02
  0.205406843248E+03 -0.435385215848E+02  0.144301355494E+03
  0.197038908574E+03 -0.322981186632E+02  0.132935383506E+03
  0.222651841096E+03 -0.579110406610E+02  0.389217575259E+02
  0.218577037455E+03 -0.515983133426E+02  0.374807433618E+02
  0.199845639661E+03 -0.328668723454E+02 -0.480881759070E+01
  0.200493709506E+03 -0.340818348099E+02 -0.484731594243E+01
  0.180315338689E+03 -0.139033993751E+02 -0.189168602549E+02
  0.178262962111E+03 -0.136562550153E+02 -0.186928872213E+02
  0.164310144443E+03  0.296626645170E+00 -0.176871529279E+02
  0.163020058496E+03  0.896400786771E+00 -0.174833412558E+02
  0.151813386751E+03  0.121031383964E+02 -0.149286295310E+02
  0.151105184738E+03  0.126464172885E+02 -0.147949113812E+02
  0.150638460489E+03  0.864087270130E+01  0.151730502723E+02
  0.150354447391E+03  0.887815977086E+01  0.151173490782E+02
  0.154426429763E+03  0.480615425941E+01  0.161349745861E+02
  0.154009809967E+03  0.506511831191E+01  0.160621248524E+02
  0.156486361331E+03  0.258855549836E+01  0.149896045218E+02
  0.156256835243E+03  0.267521752874E+01  0.149588057032E+02
  0.154327814173E+03  0.460424051026E+01  0.309390800283E+01
  0.153862431645E+03  0.535697221541E+01  0.306873593942E+01
  0.133486922849E+03  0.257324978039E+02 -0.149484993933E+02
  0.131306014247E+03  0.287564432769E+02 -0.142264497112E+02
  0.585422034223E+02  0.101520278753E+03  0.249122639853E+02
  0.542388738895E+02  0.106845699829E+03  0.304936124522E+02
  0.209627284078E+03 -0.485427103597E+02  0.149648560174E+03
  0.205448784510E+03 -0.433717588205E+02  0.144228999397E+03
  0.224417919874E+03 -0.623408769455E+02  0.397813175079E+02
  0.222615389289E+03 -0.598415714218E+02  0.391845159917E+02
  0.199767781683E+03 -0.369939221105E+02 -0.489249161581E+01
  0.199843825598E+03 -0.371169191443E+02 -0.489660554295E+01
  0.178245461572E+03 -0.155184866898E+02 -0.188725647229E+02
  0.177600597317E+03 -0.152750051658E+02 -0.187860424538E+02
  0.163001978883E+03 -0.676320409278E+00 -0.176509941508E+02
  0.162265785575E+03 -0.218715263049E+00 -0.175222497092E+02
  0.151086157742E+03  0.109609761107E+02 -0.149729761802E+02
  0.150350905303E+03  0.115752641843E+02 -0.148287694176E+02
  0.151687248334E+03  0.100921600483E+02  0.151300447711E+02
  0.150664710913E+03  0.109661793498E+02  0.149273847439E+02
  0.155697444173E+03  0.593341781770E+01  0.161504850744E+02
  0.154448944685E+03  0.676469755637E+01  0.159261928402E+02
  0.157502557114E+03  0.371107024793E+01  0.149792437759E+02
  0.156501147447E+03  0.416194540553E+01  0.148377959439E+02
  0.153863047597E+03  0.680004950490E+01  0.303892818558E+01
  0.154431602934E+03  0.592164740167E+01  0.306882984131E+01
  0.131311403776E+03  0.290418730248E+02 -0.141875999548E+02
  0.131075895012E+03  0.293576673245E+02 -0.141111266426E+02
  0.541080659130E+02  0.106325552323E+03  0.302679457668E+02
  0.529555333426E+02  0.107718349361E+03  0.317432725655E+02
  0.210645480759E+03 -0.499715980552E+02  0.151066719528E+03
  0.209589006173E+03 -0.486949006789E+02  0.149714596270E+03
  0.224505189364E+03 -0.636110694246E+02  0.399696609767E+02
  0.224396683330E+03 -0.634655721016E+02  0.399343985128E+02
  0.199054187778E+03 -0.381230251120E+02 -0.490108018294E+01
  0.199766829801E+03 -0.392240370765E+02 -0.493855608849E+01
  0.177583999888E+03 -0.170411358671E+02 -0.189564477264E+02
  0.176345916533E+03 -0.164837012221E+02 -0.187815589690E+02
  0.162240955262E+03 -0.237867205454E+01 -0.177525021698E+02
  0.160585009909E+03 -0.127610468478E+01 -0.174550346451E+02
  0.150321689416E+03  0.898727346976E+01 -0.151021873438E+02
  0.148567470915E+03  0.104867012366E+02 -0.147545242826E+02
  0.153899778726E+03  0.125761636755E+02  0.151010324944E+02
  0.151735701374E+03  0.143842036976E+02  0.146765953866E+02
  0.158554978463E+03  0.756488629988E+01  0.162827070992E+02
  0.155736339896E+03  0.931689953324E+01  0.157898037302E+02
  0.160212468641E+03  0.484074825622E+01  0.151331537737E+02
  0.157522717231E+03  0.585630817669E+01  0.147722604357E+02
  0.154432893886E+03  0.894613760545E+01  0.300635679711E+01
  0.156841190295E+03  0.505083545749E+01  0.313661858323E+01
  0.131102924141E+03  0.307891424409E+02 -0.139162906197E+02
  0.133194020580E+03  0.278897213316E+02 -0.146085924450E+02
  0.530378991626E+02  0.108045870934E+03  0.318853683194E+02
  0.549280478441E+02  0.105706791315E+03  0.294339349825E+02
  0.208649021119E+03 -0.480141819596E+02  0.148775009293E+03
  0.210547047309E+03 -0.503630002906E+02  0.151236534813E+03
  0.222365790426E+03 -0.621817222350E+02  0.394745137502E+02
  0.224476907060E+03 -0.651089068979E+02  0.401735303505E+02
  0.196473946705E+03 -0.371058795032E+02 -0.482674610740E+01
  0.199052841504E+03 -0.412771161761E+02 -0.496623039620E+01
  0.176326491767E+03 -0.185506894830E+02 -0.189809924776E+02
  0.172934590004E+03 -0.172700216443E+02 -0.185258807246E+02
  0.160543592318E+03 -0.487896197646E+01 -0.178391013546E+02
  0.156363412079E+03 -0.228063929931E+01 -0.171081138000E+02
  0.148511975696E+03  0.557084349410E+01 -0.152738781412E+02
  0.144191190949E+03  0.918076598927E+01 -0.144264430722E+02
  0.157222996510E+03  0.182649190400E+02  0.148482894019E+02
  0.153991979969E+03  0.207435007177E+02  0.142381639758E+02
  0.162383749749E+03  0.123516822897E+02  0.161793814783E+02
  0.158630067615E+03  0.140967886473E+02  0.155864030807E+02
  0.164145118559E+03  0.858171272595E+01  0.151518282901E+02