# vtk DataFile Version 3.0
MachLine results file. Generated by MachLine, USU AeroLab (c) 2022.
ASCII
DATASET POLYDATA
POINTS                 144 float
  0.000000000000E+00  0.000000000000E+00  0.000000000000E+00
  0.113538098335E+01  0.000000000000E+00 -0.658124566078E+00
  0.113538098335E+01  0.000000000000E+00  0.658124566078E+00
  0.192375373840E+01  0.192375373840E+01  0.000000000000E+00
  0.305913543701E+01  0.192375373840E+01 -0.658124983311E+00
  0.305913543701E+01  0.192375373840E+01  0.658124983311E+00
  0.423028087616E+01  0.000000000000E+00 -0.108747220039E+01
  0.423028087616E+01  0.000000000000E+00  0.108747220039E+01
  0.547033166885E+01  0.547033166885E+01  0.000000000000E+00
  0.615403699875E+01  0.192375373840E+01 -0.108747279644E+01
  0.615403699875E+01  0.192375373840E+01  0.108747279644E+01
  0.660571479797E+01  0.547033166885E+01 -0.658125698566E+00
  0.660571479797E+01  0.547033166885E+01  0.658125698566E+00
  0.939508819580E+01  0.000000000000E+00 -0.980745851994E+00
  0.939508819580E+01  0.000000000000E+00  0.980745851994E+00
  0.970061969757E+01  0.547033166885E+01 -0.108747410774E+01
  0.970061969757E+01  0.547033166885E+01  0.108747410774E+01
  0.113188476562E+02  0.192375373840E+01 -0.980746448040E+00
  0.113188476562E+02  0.192375373840E+01  0.980746448040E+00
  0.113820018768E+02  0.113820018768E+02  0.000000000000E+00
  0.125173873901E+02  0.113820018768E+02 -0.658127009869E+00
  0.125173873901E+02  0.113820018768E+02  0.658127009869E+00
  0.145402030945E+02  0.000000000000E+00 -0.479613035917E+00
  0.145402030945E+02  0.000000000000E+00  0.479613035917E+00
  0.148654365540E+02  0.547033166885E+01 -0.980747580528E+00
  0.148654365540E+02  0.547033166885E+01  0.980747580528E+00
  0.156122989655E+02  0.113820018768E+02 -0.108747613430E+01
  0.156122989655E+02  0.113820018768E+02  0.108747613430E+01
  0.164639663696E+02  0.192375373840E+01 -0.479613333941E+00
  0.164639663696E+02  0.192375373840E+01  0.479613333941E+00
  0.176505107880E+02  0.000000000000E+00 -0.144198849797E+00
  0.176505107880E+02  0.000000000000E+00  0.144198849797E+00
  0.190000000000E+02  0.000000000000E+00  0.000000000000E+00
  0.195742740631E+02  0.192375373840E+01 -0.144198939204E+00
  0.195742740631E+02  0.192375373840E+01  0.144198939204E+00
  0.197561950684E+02  0.197561950684E+02  0.000000000000E+00
  0.200105609894E+02  0.547033166885E+01 -0.479613870382E+00
  0.200105609894E+02  0.547033166885E+01  0.479613870382E+00
  0.207771244049E+02  0.113820018768E+02 -0.980749428272E+00
  0.207771244049E+02  0.113820018768E+02  0.980749428272E+00
  0.208915824890E+02  0.197561950684E+02 -0.658128738403E+00
  0.208915824890E+02  0.197561950684E+02  0.658128738403E+00
  0.209237651825E+02  0.192375373840E+01  0.000000000000E+00
  0.231208724976E+02  0.547033166885E+01 -0.144199103117E+00
  0.231208724976E+02  0.547033166885E+01  0.144199103117E+00
  0.239865016937E+02  0.197561950684E+02 -0.108747911453E+01
  0.239865016937E+02  0.197561950684E+02  0.108747911453E+01
  0.244703655243E+02  0.547033166885E+01  0.000000000000E+00
  0.259222583771E+02  0.113820018768E+02 -0.479614794254E+00
  0.259222583771E+02  0.113820018768E+02  0.479614794254E+00
  0.290325775146E+02  0.113820018768E+02 -0.144199386239E+00
  0.290325775146E+02  0.113820018768E+02  0.144199386239E+00
  0.291513423920E+02  0.197561950684E+02 -0.980752110481E+00
  0.291513423920E+02  0.197561950684E+02  0.980752110481E+00
  0.292438049316E+02  0.292438049316E+02  0.000000000000E+00
  0.303791980743E+02  0.292438049316E+02 -0.658130764961E+00
  0.303791980743E+02  0.292438049316E+02  0.658130764961E+00
  0.303820724487E+02  0.113820018768E+02  0.000000000000E+00
  0.334741249084E+02  0.292438049316E+02 -0.108748245239E+01
  0.334741249084E+02  0.292438049316E+02  0.108748245239E+01
  0.342964897156E+02  0.197561950684E+02 -0.479616105556E+00
  0.342964897156E+02  0.197561950684E+02  0.479616105556E+00
  0.374068183899E+02  0.197561950684E+02 -0.144199773669E+00
  0.374068183899E+02  0.197561950684E+02  0.144199773669E+00
  0.376179962158E+02  0.376179962158E+02  0.000000000000E+00
  0.386389808655E+02  0.292438049316E+02 -0.980755090714E+00
  0.386389808655E+02  0.292438049316E+02  0.980755090714E+00
  0.387533912659E+02  0.376179962158E+02 -0.658132553101E+00
  0.387533912659E+02  0.376179962158E+02  0.658132553101E+00
  0.387563171387E+02  0.197561950684E+02  0.000000000000E+00
  0.418483314514E+02  0.376179962158E+02 -0.108748543262E+01
  0.418483314514E+02  0.376179962158E+02  0.108748543262E+01
  0.435296669006E+02  0.435296669006E+02  0.000000000000E+00
  0.437841453552E+02  0.292438049316E+02 -0.479617565870E+00
  0.437841453552E+02  0.292438049316E+02  0.479617565870E+00
  0.446650657654E+02  0.435296669006E+02 -0.658133804798E+00
  0.446650657654E+02  0.435296669006E+02  0.658133804798E+00
  0.468944816589E+02  0.292438049316E+02 -0.144200220704E+00
  0.468944816589E+02  0.292438049316E+02  0.144200220704E+00
  0.470131988525E+02  0.376179962158E+02 -0.980757772923E+00
  0.470131988525E+02  0.376179962158E+02  0.980757772923E+00
  0.470762481689E+02  0.470762481689E+02  0.000000000000E+00
  0.477600097656E+02  0.435296669006E+02 -0.108748745918E+01
  0.477600097656E+02  0.435296669006E+02  0.108748745918E+01
  0.482116432190E+02  0.470762481689E+02 -0.658134579659E+00
  0.482116432190E+02  0.470762481689E+02  0.658134579659E+00
  0.482439842224E+02  0.292438049316E+02  0.000000000000E+00
  0.490000000000E+02  0.490000000000E+02  0.000000000000E+00
  0.501353988647E+02  0.490000000000E+02 -0.658134996891E+00
  0.501353988647E+02  0.490000000000E+02  0.658134996891E+00
  0.506007728577E+02  0.494653701782E+02 -0.465371757746E+00
  0.506007728577E+02  0.494653701782E+02  0.465371757746E+00
  0.507935333252E+02  0.496581344604E+02 -0.771266485397E-15
  0.513065910339E+02  0.470762481689E+02 -0.108748877048E+01
  0.513065910339E+02  0.470762481689E+02  0.108748877048E+01
  0.521583786011E+02  0.376179962158E+02 -0.479618877172E+00
  0.521583786011E+02  0.376179962158E+02  0.479618877172E+00
  0.529248886108E+02  0.435296669006E+02 -0.980759620667E+00
  0.529248886108E+02  0.435296669006E+02  0.980759620667E+00
  0.532303466797E+02  0.490000000000E+02 -0.108748936653E+01
  0.532303466797E+02  0.490000000000E+02  0.108748936653E+01
  0.539993209839E+02  0.497689704895E+02 -0.768971264362E+00
  0.539993209839E+02  0.497689704895E+02  0.768971264362E+00
  0.543178405762E+02  0.500874900818E+02 -0.157378642191E-15
  0.552687225342E+02  0.376179962158E+02 -0.144200608134E+00
  0.552687225342E+02  0.376179962158E+02  0.144200608134E+00
  0.564714775085E+02  0.470762481689E+02 -0.980760753155E+00
  0.564714775085E+02  0.470762481689E+02  0.980760753155E+00
  0.566182289124E+02  0.376179962158E+02  0.000000000000E+00
  0.580700759888E+02  0.435296669006E+02 -0.479619771242E+00
  0.580700759888E+02  0.435296669006E+02  0.479619771242E+00
  0.583952369690E+02  0.490000000000E+02 -0.980761349201E+00
  0.583952369690E+02  0.490000000000E+02  0.980761349201E+00
  0.590887413025E+02  0.496935043335E+02 -0.693503141403E+00
  0.590887413025E+02  0.496935043335E+02  0.693503141403E+00
  0.593759994507E+02  0.499807624817E+02  0.000000000000E+00
  0.611804275513E+02  0.435296669006E+02 -0.144200876355E+00
  0.611804275513E+02  0.435296669006E+02  0.144200876355E+00
  0.616166725159E+02  0.470762481689E+02 -0.479620337486E+00
  0.616166725159E+02  0.470762481689E+02  0.479620337486E+00
  0.625299339294E+02  0.435296669006E+02  0.000000000000E+00
  0.635404319763E+02  0.490000000000E+02 -0.479620635509E+00
  0.635404319763E+02  0.490000000000E+02  0.479620635509E+00
  0.638795776367E+02  0.493391418457E+02 -0.339143037796E+00
  0.638795776367E+02  0.493391418457E+02  0.339143037796E+00
  0.640200576782E+02  0.494796218872E+02  0.296956834055E-15
  0.647270278931E+02  0.470762481689E+02 -0.144201040268E+00
  0.647270278931E+02  0.470762481689E+02  0.144201040268E+00
  0.660765380859E+02  0.470762481689E+02  0.000000000000E+00
  0.666507873535E+02  0.490000000000E+02 -0.144201144576E+00
  0.666507873535E+02  0.490000000000E+02  0.144201144576E+00
  0.667527542114E+02  0.491019668579E+02 -0.101965606213E+00
  0.667527542114E+02  0.491019668579E+02  0.101965606213E+00
  0.667949905396E+02  0.491441993713E+02 -0.260488604752E-16
  0.680002975464E+02  0.490000000000E+02  0.000000000000E+00
  0.660765380859E+02  0.470762481689E+02  0.000000000000E+00
  0.625299339294E+02  0.435296669006E+02  0.000000000000E+00
  0.566182289124E+02  0.376179962158E+02  0.000000000000E+00
  0.209237651825E+02  0.192375373840E+01  0.000000000000E+00
  0.190000000000E+02  0.000000000000E+00  0.000000000000E+00
  0.244703655243E+02  0.547033166885E+01  0.000000000000E+00
  0.387563171387E+02  0.197561950684E+02  0.000000000000E+00
  0.303820724487E+02  0.113820018768E+02  0.000000000000E+00
  0.482439842224E+02  0.292438049316E+02  0.000000000000E+00
POLYGONS                 256                1024
3                  32                  33                  42
3                  32                  30                  33
3                  30                  28                  33
3                  30                  22                  28
3                  22                  17                  28
3                  22                  13                  17
3                  13                   6                  17
3                  17                   6                   9
3                   6                   1                   9
3                   9                   1                   4
3                   1                   0                   4
3                   4                   0                   3
3                   0                   5                   3
3                   0                   2                   5
3                   2                  10                   5
3                   2                   7                  10
[...]
CELL_DATA                 256
SCALARS C_p_inc float 1
LOOKUP_TABLE default
  0.150450186535E+00
  0.139119483707E+00
  0.106415078188E+00
  0.951658310816E-01
  0.719988693859E-01
  0.645579797510E-01
  0.123563357762E+00
  0.987166814900E-01
  0.330075676690E+00
  0.277536652193E+00
  0.630203469621E+00
  0.615110502685E+00
 -0.801272466926E+00
 -0.963429860833E-01
 -0.773276217562E+00
 -0.557746677147E+00
 -0.521353939462E+00
 -0.538522537980E+00
 -0.369155258663E+00
 -0.301558148705E+00
 -0.164739133419E+00
 -0.784306859349E-01
  0.119104914233E-01
  0.104830458911E+00
  0.142318103365E+00
  0.149303936592E+00
  0.102746315891E+00
  0.106240571354E+00
  0.743333001676E-01
  0.720925548294E-01
  0.993196470213E-01
  0.940671269684E-01
  0.266123766327E+00
  0.275319267217E+00
  0.539371662075E+00
  0.489346051654E+00
 -0.117622053154E+01
 -0.754318564756E+00
 -0.944705439389E+00
 -0.771568852055E+00
 -0.537146325585E+00
 -0.543725005471E+00
 -0.302466660866E+00
 -0.242112560591E+00
 -0.781281291852E-01
 -0.274495840258E-01
  0.101436404468E+00
  0.118770553861E+00
  0.139218961647E+00
  0.141527419927E+00
  0.977115648688E-01
  0.102391672953E+00
  0.730686547082E-01
  0.743092894782E-01
  0.939098501976E-01
  0.103079908133E+00
  0.272470976653E+00
  0.295627055316E+00
  0.496793620424E+00
  0.445730576332E+00
 -0.144281247266E+01
 -0.116549561657E+01
 -0.104863067029E+01
 -0.950982745680E+00
 -0.544198782524E+00
 -0.557207256548E+00
 -0.244038656948E+00
 -0.215620266338E+00
 -0.274413291482E-01
 -0.111436798825E-01
  0.119086289268E+00
  0.126953906562E+00
  0.135366566401E+00
  0.138171908157E+00
  0.926621408800E-01
  0.971833939900E-01
  0.703118423357E-01
  0.728253979011E-01
  0.102744136468E+00
  0.107968453074E+00
  0.296120074665E+00
  0.312482489439E+00
  0.459448023523E+00
  0.424269277878E+00
 -0.158507207839E+01
 -0.144205182231E+01
 -0.110065834936E+01
 -0.105724405781E+01
 -0.553653428097E+00
 -0.555331802184E+00
 -0.217636903575E+00
 -0.208353849250E+00
 -0.111252962988E-01
 -0.159846055737E-02
  0.128449931310E+00
  0.136749126131E+00
  0.123681586579E+00
  0.133555029568E+00
  0.783345568003E-01
  0.917360962968E-01
  0.583644965482E-01
  0.698659102774E-01
  0.107254533475E+00
  0.101028301221E+00
  0.311667166084E+00
  0.313293291690E+00
  0.428867139355E+00
  0.418914722652E+00
 -0.162254697633E+01
 -0.158548225435E+01
 -0.110859454225E+01
 -0.110568545463E+01
 -0.545975265509E+00
 -0.559783401708E+00
 -0.210379186157E+00
 -0.192531930873E+00
 -0.178217522080E-02
  0.199587683512E-01
  0.138739913955E+00
  0.158995856434E+00
  0.103788652373E+00
  0.119231979580E+00
  0.480265543007E-01
  0.759654347244E-01
  0.246259953092E-01
  0.573640481393E-01
  0.990279777004E-01
  0.712256655731E-01
  0.309285062765E+00
  0.293232442636E+00
  0.413578935607E+00
  0.431037198482E+00
 -0.155949673255E+01
 -0.162346454053E+01
 -0.106626044740E+01
 -0.111452835899E+01
 -0.506653632690E+00
 -0.554167236576E+00
 -0.194701247296E+00
 -0.148539739087E+00
  0.193343018376E-01
  0.755614439398E-01
  0.161947019542E+00
  0.215896675718E+00
  0.175114363435E+00
  0.862560893427E-01
 -0.646466211412E-02
  0.378143098112E-01
 -0.475428823992E-01
  0.207686426260E-01
  0.641544387557E-01
  0.146835434791E-02
  0.281393333270E+00
  0.242131026091E+00
  0.409858913879E+00
  0.452961658545E+00
 -0.141899076412E+01
 -0.156094600522E+01
 -0.982571238284E+00
 -0.107591558110E+01
 -0.438108248122E+00
 -0.521155430736E+00
 -0.150280580205E+00
 -0.820304573324E-01
  0.744975469459E-01
  0.164638153141E+00
  0.219645910082E+00
  0.417807261811E+00
 -0.220824324047E+02
 -0.594157610299E-01
  0.662482190280E+00
 -0.166604061440E+00
 -0.460138405303E+00
 -0.652629823253E-01
 -0.259366530176E-01
 -0.103423439487E+00
  0.207476031314E+00
  0.139897365671E+00
  0.396246160873E+00
  0.468177296309E+00
 -0.123053627662E+01
 -0.142047894615E+01
 -0.862532419647E+00
 -0.100087437971E+01
 -0.356845759991E+00
 -0.465674110012E+00
 -0.837460654577E-01
 -0.276711066613E+00
  0.145076965496E+00
  0.779064320218E+00
 -0.260386839669E+00
 -0.211500898228E+02
 -0.397042206130E+08
 -0.207700489628E+05
 -0.116826090518E+05
  0.838645543282E+00
  0.174579815950E+00
 -0.463949301509E+00
 -0.236037594084E+00
 -0.248907914963E+00
  0.334205956117E-01
  0.125682281669E-01
  0.244704013362E+00
  0.427268357313E+00
 -0.926367255849E+00
 -0.123187774120E+01
 -0.595586961083E+00
 -0.951675964183E+00
 -0.367216995799E+00
 -0.414898633267E+00
 -0.348795425677E+00
 -0.751682598515E+00
  0.806333004018E+00
 -0.115585598083E+05
 -0.205804494817E+05
 -0.397079836341E+08
 -0.827048674606E+08
 -0.469989680596E+06
 -0.175078755888E+05
 -0.219579842938E+02
 -0.801197280361E+00
 -0.801917748403E+00
 -0.503179839276E+00
 -0.331898647993E+00
 -0.345969730530E+00
 -0.231041149399E+00
 -0.937649912711E+00
 -0.588802664104E+00
 -0.834465489393E+00
 -0.624213797183E+00
 -0.569907277187E+00
  0.652743195356E+00
 -0.407386146948E+02
 -0.177668560899E+05
 -0.466739998218E+06
 -0.826802777375E+08
 -0.565263042456E+08
 -0.562532071116E+06
 -0.209479588019E+05
 -0.325647913097E+02
 -0.828123735341E+00
 -0.117545881606E+01
 -0.854172734013E+00
 -0.674673286371E+00
 -0.716502178440E+00
 -0.576736256391E+00
 -0.816818844363E+00
 -0.797046272928E+00
 -0.819378200219E+00
 -0.913648828997E+00
 -0.911884693483E+00
  0.887798684117E+00
 -0.648352708885E+02
 -0.212011596105E+05
 -0.557584317435E+06
 -0.565056444653E+08
SCALARS sigma float 1
LOOKUP_TABLE default
  0.000000000000E+00
  0.000000000000E+00
  0.000000000000E+00
  0.000000000000E+00
  0.000000000000E+00
  0.000000000000E+00
  0.000000000000E+00
  0.000000000000E+00
  0.000000000000E+00
  0.000000000000E+00
  0.000000000000E+00
  0.000000000000E+00
  0.000000000000E+00
  0.000000000000E+00
  0.000000000000E+00
  0.000000000000E+00
  0.000000000000E+00
  0.000000000000E+00
  0.000000000000E+00
  0.000000000000E+00
  0.000000000000E+00
  0.000000000000E+00
  0.000000000000E+00
  0.000000000000E+00
  0.000000000000E+00
  0.000000000000E+00
  0.000000000000E+00
  0.000000000000E+00
  0.000000000000E+00
  0.000000000000E+00
  0.000000000000E+00
  0.000000000000E+00
  0.000000000000E+00
  0.000000000000E+00
  0.000000000000E+00
  0.000000000000E+00
  0.000000000000E+00
  0.000000000000E+00
  0.000000000000E+00
  0.000000000000E+00
  0.000000000000E+00
  0.000000000000E+00
  0.000000000000E+00
  0.000000000000E+00
  0.000000000000E+00
  0.000000000000E+00
  0.000000000000E+00
  0.000000000000E+00
  0.000000000000E+00
  0.000000000000E+00
  0.000000000000E+00
  0.000000000000E+00
  0.000000000000E+00
  0.000000000000E+00
  0.000000000000E+00
  0.000000000000E+00
  0.000000000000E+00
  0.000000000000E+00
  0.000000000000E+00
  0.000000000000E+00
  0.000000000000E+00
  0.000000000000E+00
  0.000000000000E+00
  0.000000000000E+00
  0.000000000000E+00
  0.000000000000E+00
  0.000000000000E+00
  0.000000000000E+00
  0.000000000000E+00
  0.000000000000E+00
  0.000000000000E+00
  0.000000000000E+00
  0.000000000000E+00
  0.000000000000E+00
  0.000000000000E+00
  0.000000000000E+00
  0.000000000000E+00
  0.000000000000E+00
  0.000000000000E+00
  0.000000000000E+00
  0.000000000000E+00
  0.000000000000E+00
  0.000000000000E+00
  0.000000000000E+00
  0.000000000000E+00
  0.000000000000E+00
  0.000000000000E+00
  0.000000000000E+00
  0.000000000000E+00
  0.000000000000E+00
  0.000000000000E+00
  0.000000000000E+00
  0.000000000000E+00
  0.000000000000E+00
  0.000000000000E+00
  0.000000000000E+00
  0.000000000000E+00
  0.000000000000E+00
  0.000000000000E+00
  0.000000000000E+00
  0.000000000000E+00
  0.000000000000E+00
  0.000000000000E+00
  0.000000000000E+00
  0.000000000000E+00
  0.000000000000E+00
  0.000000000000E+00
  0.000000000000E+00
  0.000000000000E+00
  0.000000000000E+00
  0.000000000000E+00
  0.000000000000E+00
  0.000000000000E+00
  0.000000000000E+00
  0.000000000000E+00
  0.000000000000E+00
  0.000000000000E+00
  0.000000000000E+00
  0.000000000000E+00
  0.000000000000E+00
  0.000000000000E+00
  0.000000000000E+00
  0.000000000000E+00
  0.000000000000E+00
  0.000000000000E+00
  0.000000000000E+00
  0.000000000000E+00
  0.000000000000E+00
  0.000000000000E+00
  0.000000000000E+00
  0.000000000000E+00
  0.000000000000E+00
  0.000000000000E+00
  0.000000000000E+00
  0.000000000000E+00
  0.000000000000E+00
  0.000000000000E+00
  0.000000000000E+00
  0.000000000000E+00
  0.000000000000E+00
  0.000000000000E+00
  0.000000000000E+00
  0.000000000000E+00
  0.000000000000E+00
  0.000000000000E+00
  0.000000000000E+00
  0.000000000000E+00
  0.000000000000E+00
  0.000000000000E+00
  0.000000000000E+00
  0.000000000000E+00
  0.000000000000E+00
  0.000000000000E+00
  0.000000000000E+00
  0.000000000000E+00
  0.000000000000E+00
  0.000000000000E+00
  0.000000000000E+00
  0.000000000000E+00
  0.000000000000E+00
  0.000000000000E+00
  0.000000000000E+00
  0.000000000000E+00
  0.000000000000E+00
  0.000000000000E+00
  0.000000000000E+00
  0.000000000000E+00
  0.000000000000E+00
  0.000000000000E+00
  0.000000000000E+00
  0.000000000000E+00
  0.000000000000E+00
  0.000000000000E+00
  0.000000000000E+00
  0.000000000000E+00
  0.000000000000E+00
  0.000000000000E+00
  0.000000000000E+00
  0.000000000000E+00
  0.000000000000E+00
  0.000000000000E+00
  0.000000000000E+00
  0.000000000000E+00
  0.000000000000E+00
  0.000000000000E+00
  0.000000000000E+00
  0.000000000000E+00
  0.000000000000E+00
  0.000000000000E+00
  0.000000000000E+00
  0.000000000000E+00
  0.000000000000E+00
  0.000000000000E+00
  0.000000000000E+00
  0.000000000000E+00
  0.000000000000E+00
  0.000000000000E+00
  0.000000000000E+00
  0.000000000000E+00
  0.000000000000E+00
  0.000000000000E+00
  0.000000000000E+00
  0.000000000000E+00
  0.000000000000E+00
  0.000000000000E+00
  0.000000000000E+00
  0.000000000000E+00
  0.000000000000E+00
  0.000000000000E+00
  0.000000000000E+00
  0.000000000000E+00
  0.000000000000E+00
  0.000000000000E+00
  0.000000000000E+00
  0.000000000000E+00
  0.000000000000E+00
  0.000000000000E+00
  0.000000000000E+00
  0.000000000000E+00
  0.000000000000E+00
  0.000000000000E+00
  0.000000000000E+00
  0.000000000000E+00
  0.000000000000E+00
  0.000000000000E+00
  0.000000000000E+00
  0.000000000000E+00
  0.000000000000E+00
  0.000000000000E+00
  0.000000000000E+00
  0.000000000000E+00
  0.000000000000E+00
  0.000000000000E+00
  0.000000000000E+00
  0.000000000000E+00
  0.000000000000E+00
  0.000000000000E+00
  0.000000000000E+00
  0.000000000000E+00
  0.000000000000E+00
  0.000000000000E+00
  0.000000000000E+00
  0.000000000000E+00
  0.000000000000E+00
  0.000000000000E+00
  0.000000000000E+00
  0.000000000000E+00
  0.000000000000E+00
  0.000000000000E+00
  0.000000000000E+00
  0.000000000000E+00
  0.000000000000E+00
  0.000000000000E+00
  0.000000000000E+00
  0.000000000000E+00
  0.000000000000E+00
SCALARS inclination float 1
LOOKUP_TABLE default
  0.100000000000E+01
  0.100000000000E+01
  0.100000000000E+01
  0.100000000000E+01
  0.100000000000E+01
  0.100000000000E+01
  0.100000000000E+01
  0.100000000000E+01
  0.100000000000E+01
  0.100000000000E+01
  0.100000000000E+01
  0.100000000000E+01
  0.100000000000E+01
  0.100000000000E+01
  0.100000000000E+01
  0.100000000000E+01
  0.100000000000E+01
  0.100000000000E+01
  0.100000000000E+01
  0.100000000000E+01
  0.100000000000E+01
  0.100000000000E+01
  0.100000000000E+01
  0.100000000000E+01
  0.100000000000E+01
  0.100000000000E+01
  0.100000000000E+01
  0.100000000000E+01
  0.100000000000E+01
  0.100000000000E+01
  0.100000000000E+01
  0.100000000000E+01
  0.100000000000E+01
  0.100000000000E+01
  0.100000000000E+01
  0.100000000000E+01
  0.100000000000E+01
  0.100000000000E+01
  0.100000000000E+01
  0.100000000000E+01
  0.100000000000E+01
  0.100000000000E+01
  0.100000000000E+01
  0.100000000000E+01
  0.100000000000E+01
  0.100000000000E+01
  0.100000000000E+01
  0.100000000000E+01
  0.100000000000E+01
  0.100000000000E+01
  0.100000000000E+01
  0.100000000000E+01
  0.100000000000E+01
  0.100000000000E+01
  0.100000000000E+01
  0.100000000000E+01
  0.100000000000E+01
  0.100000000000E+01
  0.100000000000E+01
  0.100000000000E+01
  0.100000000000E+01
  0.100000000000E+01
  0.100000000000E+01
  0.100000000000E+01
  0.100000000000E+01
  0.100000000000E+01
  0.100000000000E+01
  0.100000000000E+01
  0.100000000000E+01
  0.100000000000E+01
  0.100000000000E+01
  0.100000000000E+01
  0.100000000000E+01
  0.100000000000E+01
  0.100000000000E+01
  0.100000000000E+01
  0.100000000000E+01
  0.100000000000E+01
  0.100000000000E+01
  0.100000000000E+01
  0.100000000000E+01
  0.100000000000E+01
  0.100000000000E+01
  0.100000000000E+01
  0.100000000000E+01
  0.100000000000E+01
  0.100000000000E+01
  0.100000000000E+01
  0.100000000000E+01
  0.100000000000E+01
  0.100000000000E+01
  0.100000000000E+01
  0.100000000000E+01
  0.100000000000E+01
  0.100000000000E+01
  0.100000000000E+01
  0.100000000000E+01
  0.100000000000E+01
  0.100000000000E+01
  0.100000000000E+01
  0.100000000000E+01
  0.100000000000E+01
  0.100000000000E+01
  0.100000000000E+01
  0.100000000000E+01
  0.100000000000E+01
  0.100000000000E+01
  0.100000000000E+01
  0.100000000000E+01
  0.100000000000E+01
  0.100000000000E+01
  0.100000000000E+01
  0.100000000000E+01
  0.100000000000E+01
  0.100000000000E+01
  0.100000000000E+01
  0.100000000000E+01
  0.100000000000E+01
  0.100000000000E+01
  0.100000000000E+01
  0.100000000000E+01
  0.100000000000E+01
  0.100000000000E+01
  0.100000000000E+01
  0.100000000000E+01
  0.100000000000E+01
  0.100000000000E+01
  0.100000000000E+01
  0.100000000000E+01
  0.100000000000E+01
  0.100000000000E+01
  0.100000000000E+01
  0.100000000000E+01
  0.100000000000E+01
  0.100000000000E+01
  0.100000000000E+01
  0.100000000000E+01
  0.100000000000E+01
  0.100000000000E+01
  0.100000000000E+01
  0.100000000000E+01
  0.100000000000E+01
  0.100000000000E+01
  0.100000000000E+01
  0.100000000000E+01
  0.100000000000E+01
  0.100000000000E+01
  0.100000000000E+01
  0.100000000000E+01
  0.100000000000E+01
  0.100000000000E+01
  0.100000000000E+01
  0.100000000000E+01
  0.100000000000E+01
  0.100000000000E+01
  0.100000000000E+01
  0.100000000000E+01
  0.100000000000E+01
  0.100000000000E+01
  0.100000000000E+01
  0.100000000000E+01
  0.100000000000E+01
  0.100000000000E+01
  0.100000000000E+01
  0.100000000000E+01
  0.100000000000E+01
  0.100000000000E+01
  0.100000000000E+01
  0.100000000000E+01
  0.100000000000E+01
  0.100000000000E+01
  0.100000000000E+01
  0.100000000000E+01
  0.100000000000E+01
  0.100000000000E+01
  0.100000000000E+01
  0.100000000000E+01
  0.100000000000E+01
  0.100000000000E+01
  0.100000000000E+01
  0.100000000000E+01
  0.100000000000E+01
  0.100000000000E+01
  0.100000000000E+01
  0.100000000000E+01
  0.100000000000E+01
  0.100000000000E+01
  0.100000000000E+01
  0.100000000000E+01
  0.100000000000E+01
  0.100000000000E+01
  0.100000000000E+01
  0.100000000000E+01
  0.100000000000E+01
  0.100000000000E+01
  0.100000000000E+01
  0.100000000000E+01
  0.100000000000E+01
  0.100000000000E+01
  0.100000000000E+01
  0.100000000000E+01
  0.100000000000E+01
  0.100000000000E+01
  0.100000000000E+01
  0.100000000000E+01
  0.100000000000E+01
  0.100000000000E+01
  0.100000000000E+01
  0.100000000000E+01
  0.100000000000E+01
  0.100000000000E+01
  0.100000000000E+01
  0.100000000000E+01
  0.100000000000E+01
  0.100000000000E+01
  0.100000000000E+01
  0.100000000000E+01
  0.100000000000E+01
  0.100000000000E+01
  0.100000000000E+01
  0.100000000000E+01
  0.100000000000E+01
  0.100000000000E+01
  0.100000000000E+01
  0.100000000000E+01
  0.100000000000E+01
  0.100000000000E+01
  0.100000000000E+01
  0.100000000000E+01
  0.100000000000E+01
  0.100000000000E+01
  0.100000000000E+01
  0.100000000000E+01
  0.100000000000E+01
  0.100000000000E+01
  0.100000000000E+01
  0.100000000000E+01
  0.100000000000E+01
  0.100000000000E+01
  0.100000000000E+01
  0.100000000000E+01
  0.100000000000E+01
  0.100000000000E+01
  0.100000000000E+01
  0.100000000000E+01
  0.100000000000E+01
  0.100000000000E+01
  0.100000000000E+01
  0.100000000000E+01
  0.100000000000E+01
  0.100000000000E+01
  0.100000000000E+01
  0.100000000000E+01
  0.100000000000E+01
  0.100000000000E+01
  0.100000000000E+01
VECTORS v float
  0.149392968513E+03  0.289629993027E+01  0.156537982491E+02
  0.150388084312E+03  0.260950887686E+01  0.157907883841E+02
  0.153192707329E+03 -0.195128008431E+00  0.165412857415E+02
  0.154160494379E+03  0.408632188413E+00  0.165805315508E+02
  0.156257938518E+03 -0.168882253350E+01  0.153839711342E+02
  0.156901151165E+03 -0.622488200815E+00  0.153427607485E+02
  0.152520394597E+03  0.375827759647E+01  0.307404116695E+01
  0.154655879341E+03 -0.412194875421E+01  0.328100797197E+01
  0.131075655378E+03  0.194582986180E+02 -0.154843962771E+02
  0.137256707454E+03  0.262057936446E+01 -0.186777276598E+02
  0.734949715702E+02  0.663823421120E+02 -0.412284188972E+01
  0.709544572291E+02  0.720499191324E+02  0.634985439445E+00
  0.177586673392E+03 -0.345822970308E+02  0.122983927158E+03
  0.151758959391E+03  0.230361763101E+02  0.746142722464E+02
  0.211206857090E+03 -0.364117347592E+02  0.343514907182E+02
  0.201139823713E+03 -0.898826746758E+01  0.291505373807E+02
  0.200815944233E+03 -0.866437721292E+01 -0.432873269973E+01
  0.201765653819E+03 -0.121689337374E+02 -0.442078072784E+01
  0.189827171916E+03 -0.230411958882E+00 -0.185115580138E+02
  0.184805901773E+03 -0.855479794336E+01 -0.188332831684E+02
  0.174910842399E+03  0.134031046618E+01 -0.187177673610E+02
  0.168239606508E+03 -0.282159329640E+01 -0.184471761475E+02
  0.161100115489E+03  0.431793303718E+01 -0.167528623569E+02
  0.153280209095E+03  0.657162609153E+01 -0.156764398816E+02
  0.150054398452E+03  0.582285860453E+01  0.154117531323E+02
  0.149430321655E+03  0.620510273385E+01  0.153042274816E+02
  0.153518978429E+03  0.211642236928E+01  0.163271905601E+02
  0.153219664638E+03  0.214984945152E+01  0.162913098036E+02
  0.156077975576E+03 -0.708475090741E+00  0.152709577643E+02
  0.156267969523E+03 -0.621423562372E+00  0.152809831006E+02
  0.154658060635E+03  0.988486439215E+00  0.317544855859E+01
  0.155111007836E+03 -0.125054286126E+00  0.320782063055E+01
  0.137536701175E+03  0.174492686577E+02 -0.166594269322E+02
  0.136405714776E+03  0.196227006153E+02 -0.162010180682E+02
  0.735717123947E+02  0.824567326462E+02  0.515021232034E+01
  0.660278139848E+02  0.945252826763E+02  0.165185795076E+02
  0.196192423758E+03 -0.356393270970E+02  0.134381451572E+03
  0.182735158637E+03 -0.141107159248E+02  0.114101881847E+03
  0.218594879805E+03 -0.499704360587E+02  0.372573866823E+02
  0.211218499640E+03 -0.357951408033E+02  0.342675668108E+02
  0.200477022833E+03 -0.250536351620E+02 -0.466040830000E+01
  0.200808600825E+03 -0.258687976048E+02 -0.468410243952E+01
  0.184793693924E+03 -0.985383662212E+01 -0.189586207875E+02
  0.180303386650E+03 -0.119112116854E+02 -0.187216564685E+02
  0.168273408818E+03  0.118822668538E+00 -0.181337263223E+02
  0.164275106745E+03  0.565346692715E+00 -0.176543956272E+02
  0.153335897758E+03  0.115046188083E+02 -0.151552754723E+02
  0.151777943898E+03  0.124588576761E+02 -0.148868319659E+02
  0.150280124235E+03  0.723496544038E+01  0.152849907782E+02
  0.150072140894E+03  0.739451422502E+01  0.152457097866E+02
  0.153939466729E+03  0.352716566487E+01  0.162203920595E+02
  0.153537345140E+03  0.371411677085E+01  0.161568754798E+02
  0.156199171953E+03  0.105227755624E+01  0.151112642143E+02
  0.156094640741E+03  0.106486507433E+01  0.150998570264E+02
  0.155111935182E+03  0.204756983490E+01  0.316294355636E+01
  0.154297751753E+03  0.357395208399E+01  0.311457723693E+01
  0.136439875010E+03  0.214318496580E+02 -0.159547782452E+02
  0.133471995525E+03  0.260297203954E+02 -0.149051948633E+02
  0.658165408640E+02  0.936852092317E+02  0.161540960396E+02
  0.588983225916E+02  0.102978251439E+03  0.255509617022E+02