# vtk DataFile Version 3.0
MachLine results file. Generated by MachLine, USU AeroLab (c) 2022.
ASCII
DATASET POLYDATA
POINTS                 144 float
  0.000000000000E+00  0.000000000000E+00  0.000000000000E+00
  0.113538098335E+01  0.000000000000E+00 -0.658124566078E+00
  0.113538098335E+01  0.000000000000E+00  0.658124566078E+00
  0.192375373840E+01  0.192375373840E+01  0.000000000000E+00
  0.305913543701E+01  0.192375373840E+01 -0.658124983311E+00
  0.305913543701E+01  0.192375373840E+01  0.658124983311E+00
  0.423028087616E+01  0.000000000000E+00 -0.108747220039E+01
  0.423028087616E+01  0.000000000000E+00  0.108747220039E+01
  0.547033166885E+01  0.547033166885E+01  0.000000000000E+00
  0.615403699875E+01  0.192375373840E+01 -0.108747279644E+01
  0.615403699875E+01  0.192375373840E+01  0.108747279644E+01
  0.660571479797E+01  0.547033166885E+01 -0.658125698566E+00
  0.660571479797E+01  0.547033166885E+01  0.658125698566E+00
  0.939508819580E+01  0.000000000000E+00 -0.980745851994E+00
  0.939508819580E+01  0.000000000000E+00  0.980745851994E+00
  0.970061969757E+01  0.547033166885E+01 -0.108747410774E+01
  0.970061969757E+01  0.547033166885E+01  0.108747410774E+01
  0.113188476562E+02  0.192375373840E+01 -0.980746448040E+00
  0.113188476562E+02  0.192375373840E+01  0.980746448040E+00
  0.113820018768E+02  0.113820018768E+02  0.000000000000E+00
  0.125173873901E+02  0.113820018768E+02 -0.658127009869E+00
  0.125173873901E+02  0.113820018768E+02  0.658127009869E+00
  0.145402030945E+02  0.000000000000E+00 -0.479613035917E+00
  0.145402030945E+02  0.000000000000E+00  0.479613035917E+00
  0.148654365540E+02  0.547033166885E+01 -0.980747580528E+00
  0.148654365540E+02  0.547033166885E+01  0.980747580528E+00
  0.156122989655E+02  0.113820018768E+02 -0.108747613430E+01
  0.156122989655E+02  0.113820018768E+02  0.108747613430E+01
  0.164639663696E+02  0.192375373840E+01 -0.479613333941E+00
  0.164639663696E+02  0.192375373840E+01  0.479613333941E+00
  0.176505107880E+02  0.000000000000E+00 -0.144198849797E+00
  0.176505107880E+02  0.000000000000E+00  0.144198849797E+00
  0.190000000000E+02  0.000000000000E+00  0.000000000000E+00
  0.195742740631E+02  0.192375373840E+01 -0.144198939204E+00
  0.195742740631E+02  0.192375373840E+01  0.144198939204E+00
  0.197561950684E+02  0.197561950684E+02  0.000000000000E+00
  0.200105609894E+02  0.547033166885E+01 -0.479613870382E+00
  0.200105609894E+02  0.547033166885E+01  0.479613870382E+00
  0.207771244049E+02  0.113820018768E+02 -0.980749428272E+00
  0.207771244049E+02  0.113820018768E+02  0.980749428272E+00
  0.208915824890E+02  0.197561950684E+02 -0.658128738403E+00
  0.208915824890E+02  0.197561950684E+02  0.658128738403E+00
  0.209237651825E+02  0.192375373840E+01  0.000000000000E+00
  0.231208724976E+02  0.547033166885E+01 -0.144199103117E+00
  0.231208724976E+02  0.547033166885E+01  0.144199103117E+00
  0.239865016937E+02  0.197561950684E+02 -0.108747911453E+01
  0.239865016937E+02  0.197561950684E+02  0.108747911453E+01
  0.244703655243E+02  0.547033166885E+01  0.000000000000E+00
  0.259222583771E+02  0.113820018768E+02 -0.479614794254E+00
  0.259222583771E+02  0.113820018768E+02  0.479614794254E+00
  0.290325775146E+02  0.113820018768E+02 -0.144199386239E+00
  0.290325775146E+02  0.113820018768E+02  0.144199386239E+00
  0.291513423920E+02  0.197561950684E+02 -0.980752110481E+00
  0.291513423920E+02  0.197561950684E+02  0.980752110481E+00
  0.292438049316E+02  0.292438049316E+02  0.000000000000E+00
  0.303791980743E+02  0.292438049316E+02 -0.658130764961E+00
  0.303791980743E+02  0.292438049316E+02  0.658130764961E+00
  0.303820724487E+02  0.113820018768E+02  0.000000000000E+00
  0.334741249084E+02  0.292438049316E+02 -0.108748245239E+01
  0.334741249084E+02  0.292438049316E+02  0.108748245239E+01
  0.342964897156E+02  0.197561950684E+02 -0.479616105556E+00
  0.342964897156E+02  0.197561950684E+02  0.479616105556E+00
  0.374068183899E+02  0.197561950684E+02 -0.144199773669E+00
  0.374068183899E+02  0.197561950684E+02  0.144199773669E+00
  0.376179962158E+02  0.376179962158E+02  0.000000000000E+00
  0.386389808655E+02  0.292438049316E+02 -0.980755090714E+00
  0.386389808655E+02  0.292438049316E+02  0.980755090714E+00
  0.387533912659E+02  0.376179962158E+02 -0.658132553101E+00
  0.387533912659E+02  0.376179962158E+02  0.658132553101E+00
  0.387563171387E+02  0.197561950684E+02  0.000000000000E+00
  0.418483314514E+02  0.376179962158E+02 -0.108748543262E+01
  0.418483314514E+02  0.376179962158E+02  0.108748543262E+01
  0.435296669006E+02  0.435296669006E+02  0.000000000000E+00
  0.437841453552E+02  0.292438049316E+02 -0.479617565870E+00
  0.437841453552E+02  0.292438049316E+02  0.479617565870E+00
  0.446650657654E+02  0.435296669006E+02 -0.658133804798E+00
  0.446650657654E+02  0.435296669006E+02  0.658133804798E+00
  0.468944816589E+02  0.292438049316E+02 -0.144200220704E+00
  0.468944816589E+02  0.292438049316E+02  0.144200220704E+00
  0.470131988525E+02  0.376179962158E+02 -0.980757772923E+00
  0.470131988525E+02  0.376179962158E+02  0.980757772923E+00
  0.470762481689E+02  0.470762481689E+02  0.000000000000E+00
  0.477600097656E+02  0.435296669006E+02 -0.108748745918E+01
  0.477600097656E+02  0.435296669006E+02  0.108748745918E+01
  0.482116432190E+02  0.470762481689E+02 -0.658134579659E+00
  0.482116432190E+02  0.470762481689E+02  0.658134579659E+00
  0.482439842224E+02  0.292438049316E+02  0.000000000000E+00
  0.490000000000E+02  0.490000000000E+02  0.000000000000E+00
  0.501353988647E+02  0.490000000000E+02 -0.658134996891E+00
  0.501353988647E+02  0.490000000000E+02  0.658134996891E+00
  0.506007728577E+02  0.494653701782E+02 -0.465371757746E+00
  0.506007728577E+02  0.494653701782E+02  0.465371757746E+00
  0.507935333252E+02  0.496581344604E+02 -0.771266485397E-15
  0.513065910339E+02  0.470762481689E+02 -0.108748877048E+01
  0.513065910339E+02  0.470762481689E+02  0.108748877048E+01
  0.521583786011E+02  0.376179962158E+02 -0.479618877172E+00
  0.521583786011E+02  0.376179962158E+02  0.479618877172E+00
  0.529248886108E+02  0.435296669006E+02 -0.980759620667E+00
  0.529248886108E+02  0.435296669006E+02  0.980759620667E+00
  0.532303466797E+02  0.490000000000E+02 -0.108748936653E+01
  0.532303466797E+02  0.490000000000E+02  0.108748936653E+01
  0.539993209839E+02  0.497689704895E+02 -0.768971264362E+00
  0.539993209839E+02  0.497689704895E+02  0.768971264362E+00
  0.543178405762E+02  0.500874900818E+02 -0.157378642191E-15
  0.552687225342E+02  0.376179962158E+02 -0.144200608134E+00
  0.552687225342E+02  0.376179962158E+02  0.144200608134E+00
  0.564714775085E+02  0.470762481689E+02 -0.980760753155E+00
  0.564714775085E+02  0.470762481689E+02  0.980760753155E+00
  0.566182289124E+02  0.376179962158E+02  0.000000000000E+00
  0.580700759888E+02  0.435296669006E+02 -0.479619771242E+00
  0.580700759888E+02  0.435296669006E+02  0.479619771242E+00
  0.583952369690E+02  0.490000000000E+02 -0.980761349201E+00
  0.583952369690E+02  0.490000000000E+02  0.980761349201E+00
  0.590887413025E+02  0.496935043335E+02 -0.693503141403E+00
  0.590887413025E+02  0.496935043335E+02  0.693503141403E+00
  0.593759994507E+02  0.499807624817E+02  0.000000000000E+00
  0.611804275513E+02  0.435296669006E+02 -0.144200876355E+00
  0.611804275513E+02  0.435296669006E+02  0.144200876355E+00
  0.616166725159E+02  0.470762481689E+02 -0.479620337486E+00
  0.616166725159E+02  0.470762481689E+02  0.479620337486E+00
  0.625299339294E+02  0.435296669006E+02  0.000000000000E+00
  0.635404319763E+02  0.490000000000E+02 -0.479620635509E+00
  0.635404319763E+02  0.490000000000E+02  0.479620635509E+00
  0.638795776367E+02  0.493391418457E+02 -0.339143037796E+00
  0.638795776367E+02  0.493391418457E+02  0.339143037796E+00
  0.640200576782E+02  0.494796218872E+02  0.296956834055E-15
  0.647270278931E+02  0.470762481689E+02 -0.144201040268E+00
  0.647270278931E+02  0.470762481689E+02  0.144201040268E+00
  0.660765380859E+02  0.470762481689E+02  0.000000000000E+00
  0.666507873535E+02  0.490000000000E+02 -0.144201144576E+00
  0.666507873535E+02  0.490000000000E+02  0.144201144576E+00
  0.667527542114E+02  0.491019668579E+02 -0.101965606213E+00
  0.667527542114E+02  0.491019668579E+02  0.101965606213E+00
  0.667949905396E+02  0.491441993713E+02 -0.260488604752E-16
  0.680002975464E+02  0.490000000000E+02  0.000000000000E+00
  0.244703655243E+02  0.547033166885E+01  0.000000000000E+00
  0.209237651825E+02  0.192375373840E+01  0.000000000000E+00
  0.303820724487E+02  0.113820018768E+02  0.000000000000E+00
  0.660765380859E+02  0.470762481689E+02  0.000000000000E+00
  0.625299339294E+02  0.435296669006E+02  0.000000000000E+00
  0.482439842224E+02  0.292438049316E+02  0.000000000000E+00
  0.387563171387E+02  0.197561950684E+02  0.000000000000E+00
  0.566182289124E+02  0.376179962158E+02  0.000000000000E+00
  0.190000000000E+02  0.000000000000E+00  0.000000000000E+00
POLYGONS                 256                1024
3                  32                  33                  42
3                  32                  30                  33
3                  30                  28                  33
3                  30                  22                  28
3                  22                  17                  28
3                  22                  13                  17
3                  13                   6                  17
3                  17                   6                   9
3                   6                   1                   9
3                   9                   1                   4
3                   1                   0                   4
3                   4                   0                   3
3                   0                   5                   3
3                   0                   2                   5
3                   2                  10                   5
3                   2                   7                  10
[...]
CELL_DATA                 256
SCALARS C_p_inc float 1
LOOKUP_TABLE default
  0.150072718252E+00
  0.138840903580E+00
  0.106062793615E+00
  0.948493098686E-01
  0.717174984243E-01
  0.643144996589E-01
  0.123428980646E+00
  0.985422886609E-01
  0.330018138518E+00
  0.277452164168E+00
  0.630188813286E+00
  0.615103039180E+00
 -0.801354765474E+00
 -0.963769596653E-01
 -0.773432168172E+00
 -0.557837225920E+00
 -0.521592324939E+00
 -0.538703561550E+00
 -0.369464161954E+00
 -0.301908574780E+00
 -0.165133053720E+00
 -0.788554292317E-01
  0.114382109783E-01
  0.104418583944E+00
  0.141849861435E+00
  0.148928758025E+00
  0.102299018707E+00
  0.105889579000E+00
  0.739726838354E-01
  0.718105791628E-01
  0.991478633745E-01
  0.938299447196E-01
  0.266043047875E+00
  0.275204945150E+00
  0.539372427327E+00
  0.489367912340E+00
 -0.117638123797E+01
 -0.754397876375E+00
 -0.944978865767E+00
 -0.771719517912E+00
 -0.537495188855E+00
 -0.543962872320E+00
 -0.302826461117E+00
 -0.242552106542E+00
 -0.785524214844E-01
 -0.279421541255E-01
  0.101027890585E+00
  0.118295786802E+00
  0.138611801501E+00
  0.141066378991E+00
  0.971114181878E-01
  0.101949659349E+00
  0.725745486493E-01
  0.739511711635E-01
  0.936752794851E-01
  0.102750395453E+00
  0.272364401735E+00
  0.295476557742E+00
  0.496861557321E+00
  0.445837545894E+00
 -0.144311134671E+01
 -0.116567029580E+01
 -0.104910827639E+01
 -0.951272426478E+00
 -0.544728088100E+00
 -0.557568262806E+00
 -0.244498528998E+00
 -0.216223590410E+00
 -0.279337857017E-01
 -0.117905390794E-01
  0.118620175195E+00
  0.126353536543E+00
  0.134455399020E+00
  0.137586671811E+00
  0.917671429376E-01
  0.965999350310E-01
  0.696204071765E-01
  0.723424365415E-01
  0.102424220067E+00
  0.107544789205E+00
  0.296012077186E+00
  0.312338330441E+00
  0.459736055296E+00
  0.424598390948E+00
 -0.158554363032E+01
 -0.144242862609E+01
 -0.110142111741E+01
 -0.105782623874E+01
 -0.554437407643E+00
 -0.555928383016E+00
 -0.218287862286E+00
 -0.209242402466E+00
 -0.117774848137E-01
 -0.257371539428E-02
  0.127867623150E+00
  0.135857153794E+00
  0.121542180520E+00
  0.132719885051E+00
  0.764532106432E-01
  0.909043089053E-01
  0.573539790868E-01
  0.692168383032E-01
  0.106884078439E+00
  0.100698712762E+00
  0.311705490527E+00
  0.313417533862E+00
  0.429821061788E+00
  0.419802477466E+00
 -0.162299381327E+01
 -0.158624086762E+01
 -0.110947896389E+01
 -0.110684775025E+01
 -0.546917987241E+00
 -0.560838281418E+00
 -0.211410769921E+00
 -0.193962672036E+00
 -0.278741361752E-02
  0.178832642716E-01
  0.137882445392E+00
  0.156913440845E+00
  0.939883488510E-01
  0.117543092705E+00
  0.416564819647E-01
  0.744886548439E-01
  0.244066557030E-01
  0.565741849497E-01
  0.990053362747E-01
  0.728104489327E-01
  0.310115534184E+00
  0.294973217091E+00
  0.416473444742E+00
  0.433270864540E+00
 -0.155839730720E+01
 -0.162484387072E+01
 -0.106524333245E+01
 -0.111687320310E+01
 -0.505595242834E+00
 -0.556348528791E+00
 -0.196713852369E+00
 -0.149751529074E+00
  0.170388651479E-01
  0.685701696531E-01
  0.159917893942E+00
  0.206482683949E+00
  0.487406951230E-01
  0.836311244044E-01
 -0.806006328133E-02
  0.362700565388E-01
 -0.255173192085E-01
  0.221850253551E-01
  0.679267298591E-01
  0.172409964717E-01
  0.285660980699E+00
  0.250671288008E+00
  0.417585296319E+00
  0.458193343169E+00
 -0.141111187577E+01
 -0.156231749889E+01
 -0.970822590813E+00
 -0.107979594375E+01
 -0.419636578433E+00
 -0.526561271930E+00
 -0.154241830824E+00
 -0.644149600793E-01
  0.651012238249E-01
  0.157448117286E+00
  0.209576677833E+00
  0.298541873813E+00
 -0.672624859525E-01
  0.211719159658E-01
 -0.830352372612E-01
 -0.224843937661E-01
 -0.751100411555E-01
 -0.333160668922E-01
  0.358252464590E-02
 -0.392408416449E-01
  0.223391786719E+00
  0.164857231642E+00
  0.412329659145E+00
  0.479156458326E+00
 -0.120909749459E+01
 -0.141701223604E+01
 -0.826707888381E+00
 -0.100125892356E+01
 -0.281821236280E+00
 -0.474972571211E+00
 -0.756875414798E-01
  0.224059386741E-01
  0.141860887167E+00
  0.255348353384E+00
  0.287947910326E+00
  0.428502776139E+00
 -0.486874986851E+02
 -0.312883177183E+00
 -0.534793299924E+00
 -0.132601253345E+00
 -0.159551040310E+00
 -0.108488137306E+00
 -0.863281827563E-01
 -0.902041186530E-01
  0.777815873540E-01
  0.602436689273E-01
  0.274669832492E+00
  0.448540576557E+00
 -0.887017708523E+00
 -0.121598537952E+01
 -0.533807988827E+00
 -0.941920802070E+00
 -0.171294966924E+00
 -0.451817606969E+00
 -0.315470638578E-01
  0.699108630612E-02
  0.169074827249E+00
  0.905823943301E-01
  0.415235155548E+00
 -0.525784126202E+02
 -0.135157628339E+03
 -0.431394261666E+01
 -0.737708717046E+00
 -0.631055281508E+00
 -0.349487496212E+00
 -0.338991722270E+00
 -0.296714339081E+00
 -0.242188823846E+00
 -0.280222366612E+00
 -0.179991982957E+00
 -0.903019353451E+00
 -0.515775636695E+00
 -0.810930848319E+00
 -0.319109812825E+00
 -0.677986179028E+00
 -0.276284308951E+00
 -0.703731858976E+00
 -0.878484948366E+00
 -0.201633896991E+00
 -0.103508056423E+03
 -0.917207965863E+02
 -0.721492301886E+01
 -0.145324805455E+01
 -0.130242216068E+01
 -0.670647812706E+00
 -0.707387521023E+00
 -0.589038507258E+00
 -0.586576089870E+00
 -0.642234315902E+00
 -0.525808083310E+00
 -0.776801577968E+00
 -0.720817003471E+00
 -0.766140740341E+00
 -0.573472376573E+00
 -0.861657187681E+00
 -0.673979190379E+00
 -0.132643016296E+01
 -0.174835237715E+01
 -0.907670441206E+00
 -0.653455847292E+02
SCALARS sigma float 1
LOOKUP_TABLE default
  0.797646011077E-01
  0.797645178216E-01
  0.787909976636E-01
  0.787910630303E-01
  0.891189278215E-01
  0.891189139925E-01
  0.165291191365E+00
  0.165291204694E+00
  0.315958698823E+00
  0.315958684995E+00
  0.584073526556E+00
  0.584073527101E+00
  0.296898318038E+00
  0.296898316895E+00
 -0.484280327775E-01
 -0.484280159580E-01
 -0.205883563289E+00
 -0.205883576139E+00
 -0.278740914798E+00
 -0.278740900630E+00
 -0.288297668902E+00
 -0.288297733275E+00
 -0.287400119491E+00
 -0.287400040428E+00
  0.797646299900E-01
  0.797646008717E-01
  0.787910092679E-01
  0.787909970188E-01
  0.891189206065E-01
  0.891189279684E-01
  0.165291204531E+00
  0.165291194771E+00
  0.315958685751E+00
  0.315958721975E+00
  0.584073520596E+00
  0.584073491482E+00
  0.296898262436E+00
  0.296898314732E+00
 -0.484279906605E-01
 -0.484280328934E-01
 -0.205883572586E+00
 -0.205883563086E+00
 -0.278740901090E+00
 -0.278740908306E+00
 -0.288297730915E+00
 -0.288297719209E+00
 -0.287400039578E+00
 -0.287400012295E+00
  0.797645720083E-01
  0.797646299746E-01
  0.787910669674E-01
  0.787910094139E-01
  0.891189216178E-01
  0.891189206607E-01
  0.165291194850E+00
  0.165291194571E+00
  0.315958721320E+00
  0.315958662882E+00
  0.584073489060E+00
  0.584073469383E+00
  0.296898227941E+00
  0.296898261205E+00
 -0.484280573666E-01
 -0.484279905601E-01
 -0.205883572959E+00
 -0.205883572685E+00
 -0.278740908475E+00
 -0.278740907557E+00
 -0.288297719743E+00
 -0.288297665526E+00
 -0.287400012240E+00
 -0.287400066213E+00
  0.797645868460E-01
  0.797645720829E-01
  0.787911003718E-01
  0.787910672584E-01
  0.891189080819E-01
  0.891189215786E-01
  0.165291194547E+00
  0.165291197865E+00
  0.315958664234E+00
  0.315958718212E+00
  0.584073484447E+00
  0.584073664132E+00
  0.296898531941E+00
  0.296898235598E+00
 -0.484279963923E-01
 -0.484280575738E-01
 -0.205883569678E+00
 -0.205883572929E+00
 -0.278740907434E+00
 -0.278740920264E+00
 -0.288297666591E+00
 -0.288297635596E+00
 -0.287400066481E+00
 -0.287400052773E+00
  0.797645580857E-01
  0.797645869170E-01
  0.787910399023E-01
  0.787911002563E-01
  0.891189371519E-01
  0.891189080175E-01
  0.165291197875E+00
  0.165291189756E+00
  0.315958717442E+00
  0.315958788209E+00
  0.584073636594E+00
  0.584073260778E+00
  0.296897902309E+00
  0.296898517943E+00
 -0.484279162549E-01
 -0.484279962744E-01
 -0.205883577650E+00
 -0.205883569691E+00
 -0.278740920062E+00
 -0.278740892443E+00
 -0.288297635173E+00
 -0.288297691564E+00
 -0.287400053029E+00
 -0.287400079779E+00
  0.797645725606E-01
  0.797645577974E-01
  0.787910075265E-01
  0.787910395469E-01
  0.891189591714E-01
  0.891189370922E-01
  0.165291189738E+00
  0.165291177929E+00
  0.315958787077E+00
  0.315958602749E+00
  0.584073277281E+00
  0.584073474141E+00
  0.296898235367E+00
  0.296897910698E+00
 -0.484281250110E-01
 -0.484279160813E-01
 -0.205883589198E+00
 -0.205883577627E+00
 -0.278740892256E+00
 -0.278740871268E+00
 -0.288297690264E+00
 -0.288297720236E+00
 -0.287400078740E+00
 -0.287400065032E+00
  0.797643766411E-01
  0.797645726899E-01
  0.787910701815E-01
  0.787910079129E-01
  0.891189190911E-01
  0.891189593233E-01
  0.165291177978E+00
  0.165291189054E+00
  0.315958601982E+00
  0.315958670063E+00
  0.584073441276E+00
  0.584073174191E+00
  0.296897767148E+00
  0.296898218661E+00
 -0.484280470623E-01
 -0.484281248935E-01
 -0.205883578428E+00
 -0.205883589258E+00
 -0.278740871743E+00
 -0.278740910350E+00
 -0.288297721649E+00
 -0.288297662991E+00
 -0.287400065498E+00
 -0.287400248039E+00
  0.797645545313E-01
  0.797643766384E-01
  0.787910734321E-01
  0.787910705803E-01
  0.891189532427E-01
  0.891189196222E-01
  0.165291189073E+00
  0.165291185001E+00
  0.315958680511E+00
  0.315958682481E+00
  0.584073344676E+00
  0.584074107668E+00
  0.296899224298E+00
  0.296897853809E+00
 -0.484280463659E-01
 -0.484280486636E-01
 -0.205883582416E+00
 -0.205883578453E+00
 -0.278740912011E+00
 -0.278740879054E+00
 -0.288297664450E+00
 -0.288297661724E+00
 -0.287400248030E+00
 -0.287400081355E+00
  0.797644803693E-01
  0.797645562946E-01
  0.787910130976E-01
  0.787910737940E-01
  0.891188961906E-01
  0.891189522426E-01
  0.165291184926E+00
  0.165291200160E+00
  0.315958668429E+00
  0.315958715335E+00
  0.584073918846E+00
  0.584073546871E+00
  0.296898348899E+00
  0.296899128315E+00
 -0.484279871568E-01
 -0.484280442120E-01
 -0.205883567636E+00
 -0.205883582322E+00
 -0.278740875926E+00
 -0.278740933352E+00
 -0.288297663049E+00
 -0.288297722822E+00
 -0.287400087708E+00
 -0.287400159784E+00
  0.767109998335E-01
  0.758044599913E-01
  0.758038319546E-01
  0.853919258041E-01
  0.853921057498E-01
  0.153846043595E+00
  0.153846108649E+00
  0.279721165683E+00
  0.279721260959E+00
  0.495435928737E+00
  0.251841758654E+00
 -0.428733639775E-01
 -0.428737438206E-01
 -0.191627498243E+00
 -0.191627698822E+00
 -0.267084493582E+00
 -0.267084562477E+00
 -0.277367573718E+00
 -0.277367416154E+00
 -0.276398134950E+00
 -0.283700607765E-01
 -0.293727822455E-01
 -0.293651547674E-01
 -0.188392561133E-01
 -0.188411882286E-01
  0.532199359050E-01
  0.532199848443E-01
  0.174823607997E+00
  0.174823616046E+00
  0.373066410783E+00
  0.284304393329E+00
  0.487106094898E-01
  0.487110629434E-01
 -0.914036713105E-01
 -0.914030855516E-01
 -0.172980525425E+00
 -0.172980822731E+00
 -0.184807396995E+00
 -0.184805042279E+00
 -0.183679392800E+00
SCALARS inclination float 1
LOOKUP_TABLE default
  0.100000000000E+01
  0.100000000000E+01
  0.100000000000E+01
  0.100000000000E+01
  0.100000000000E+01
  0.100000000000E+01
  0.100000000000E+01
  0.100000000000E+01
  0.100000000000E+01
  0.100000000000E+01
  0.100000000000E+01
  0.100000000000E+01
  0.100000000000E+01
  0.100000000000E+01
  0.100000000000E+01
  0.100000000000E+01
  0.100000000000E+01
  0.100000000000E+01
  0.100000000000E+01
  0.100000000000E+01
  0.100000000000E+01
  0.100000000000E+01
  0.100000000000E+01
  0.100000000000E+01
  0.100000000000E+01
  0.100000000000E+01
  0.100000000000E+01
  0.100000000000E+01
  0.100000000000E+01
  0.100000000000E+01
  0.100000000000E+01
  0.100000000000E+01
  0.100000000000E+01
  0.100000000000E+01
  0.100000000000E+01
  0.100000000000E+01
  0.100000000000E+01
  0.100000000000E+01
  0.100000000000E+01
  0.100000000000E+01
  0.100000000000E+01
  0.100000000000E+01
  0.100000000000E+01
  0.100000000000E+01
  0.100000000000E+01
  0.100000000000E+01
  0.100000000000E+01
  0.100000000000E+01
  0.100000000000E+01
  0.100000000000E+01
  0.100000000000E+01
  0.100000000000E+01
  0.100000000000E+01
  0.100000000000E+01
  0.100000000000E+01
  0.100000000000E+01
  0.100000000000E+01
  0.100000000000E+01
  0.100000000000E+01
  0.100000000000E+01
  0.100000000000E+01
  0.100000000000E+01
  0.100000000000E+01
  0.100000000000E+01
  0.100000000000E+01
  0.100000000000E+01
  0.100000000000E+01
  0.100000000000E+01
  0.100000000000E+01
  0.100000000000E+01
  0.100000000000E+01
  0.100000000000E+01
  0.100000000000E+01
  0.100000000000E+01
  0.100000000000E+01
  0.100000000000E+01
  0.100000000000E+01
  0.100000000000E+01
  0.100000000000E+01
  0.100000000000E+01
  0.100000000000E+01
  0.100000000000E+01
  0.100000000000E+01
  0.100000000000E+01
  0.100000000000E+01
  0.100000000000E+01
  0.100000000000E+01
  0.100000000000E+01
  0.100000000000E+01
  0.100000000000E+01
  0.100000000000E+01
  0.100000000000E+01
  0.100000000000E+01
  0.100000000000E+01
  0.100000000000E+01
  0.100000000000E+01
  0.100000000000E+01
  0.100000000000E+01
  0.100000000000E+01
  0.100000000000E+01
  0.100000000000E+01
  0.100000000000E+01
  0.100000000000E+01
  0.100000000000E+01
  0.100000000000E+01
  0.100000000000E+01
  0.100000000000E+01
  0.100000000000E+01
  0.100000000000E+01
  0.100000000000E+01
  0.100000000000E+01
  0.100000000000E+01
  0.100000000000E+01
  0.100000000000E+01
  0.100000000000E+01
  0.100000000000E+01
  0.100000000000E+01
  0.100000000000E+01
  0.100000000000E+01
  0.100000000000E+01
  0.100000000000E+01
  0.100000000000E+01
  0.100000000000E+01
  0.100000000000E+01
  0.100000000000E+01
  0.100000000000E+01
  0.100000000000E+01
  0.100000000000E+01
  0.100000000000E+01
  0.100000000000E+01
  0.100000000000E+01
  0.100000000000E+01
  0.100000000000E+01
  0.100000000000E+01
  0.100000000000E+01
  0.100000000000E+01
  0.100000000000E+01
  0.100000000000E+01
  0.100000000000E+01
  0.100000000000E+01
  0.100000000000E+01
  0.100000000000E+01
  0.100000000000E+01
  0.100000000000E+01
  0.100000000000E+01
  0.100000000000E+01
  0.100000000000E+01
  0.100000000000E+01
  0.100000000000E+01
  0.100000000000E+01
  0.100000000000E+01
  0.100000000000E+01
  0.100000000000E+01
  0.100000000000E+01
  0.100000000000E+01
  0.100000000000E+01
  0.100000000000E+01
  0.100000000000E+01
  0.100000000000E+01
  0.100000000000E+01
  0.100000000000E+01
  0.100000000000E+01
  0.100000000000E+01
  0.100000000000E+01
  0.100000000000E+01
  0.100000000000E+01
  0.100000000000E+01
  0.100000000000E+01
  0.100000000000E+01
  0.100000000000E+01
  0.100000000000E+01
  0.100000000000E+01
  0.100000000000E+01
  0.100000000000E+01
  0.100000000000E+01
  0.100000000000E+01
  0.100000000000E+01
  0.100000000000E+01
  0.100000000000E+01
  0.100000000000E+01
  0.100000000000E+01
  0.100000000000E+01
  0.100000000000E+01
  0.100000000000E+01
  0.100000000000E+01
  0.100000000000E+01
  0.100000000000E+01
  0.100000000000E+01
  0.100000000000E+01
  0.100000000000E+01
  0.100000000000E+01
  0.100000000000E+01
  0.100000000000E+01
  0.100000000000E+01
  0.100000000000E+01
  0.100000000000E+01
  0.100000000000E+01
  0.100000000000E+01
  0.100000000000E+01
  0.100000000000E+01
  0.100000000000E+01
  0.100000000000E+01
  0.100000000000E+01
  0.100000000000E+01
  0.100000000000E+01
  0.100000000000E+01
  0.100000000000E+01
  0.100000000000E+01
  0.100000000000E+01
  0.100000000000E+01
  0.100000000000E+01
  0.100000000000E+01
  0.100000000000E+01
  0.100000000000E+01
  0.100000000000E+01
  0.100000000000E+01
  0.100000000000E+01
  0.100000000000E+01
  0.100000000000E+01
  0.100000000000E+01
  0.100000000000E+01
  0.100000000000E+01
  0.100000000000E+01
  0.100000000000E+01
  0.100000000000E+01
  0.100000000000E+01
  0.100000000000E+01
  0.100000000000E+01
  0.100000000000E+01
  0.100000000000E+01
  0.100000000000E+01
  0.100000000000E+01
  0.100000000000E+01
  0.100000000000E+01
  0.100000000000E+01
  0.100000000000E+01
  0.100000000000E+01
  0.100000000000E+01
  0.100000000000E+01
  0.100000000000E+01
  0.100000000000E+01
  0.100000000000E+01
  0.100000000000E+01
  0.100000000000E+01
  0.100000000000E+01
  0.100000000000E+01
  0.100000000000E+01
  0.100000000000E+01
  0.100000000000E+01
  0.100000000000E+01
  0.100000000000E+01
  0.100000000000E+01
  0.100000000000E+01
  0.100000000000E+01
  0.100000000000E+01
  0.100000000000E+01
VECTORS v float
  0.149426136858E+03  0.289901397224E+01  0.156570524208E+02
  0.150412385593E+03  0.261477840352E+01  0.157928220076E+02
  0.153222894122E+03 -0.195744023714E+00  0.165446075051E+02
  0.154187431525E+03  0.405988853406E+00  0.165837214985E+02
  0.156281642597E+03 -0.168823278515E+01  0.153862224631E+02
  0.156921503860E+03 -0.627454460331E+00  0.153452268108E+02
  0.152532001950E+03  0.376205670334E+01  0.307420292959E+01
  0.154670639055E+03 -0.412980228593E+01  0.328147525780E+01
  0.131081218159E+03  0.194596420315E+02 -0.154849816193E+02
  0.137264733972E+03  0.261521134487E+01 -0.186795858490E+02
  0.734970380620E+02  0.663829341208E+02 -0.412369657506E+01
  0.709575086569E+02  0.720483138694E+02  0.632286184616E+00
  0.177590186871E+03 -0.345843643446E+02  0.122987162070E+03
  0.151761324906E+03  0.230366699618E+02  0.746153572739E+02
  0.211215371217E+03 -0.364173897217E+02  0.343534563590E+02
  0.201145771075E+03 -0.898693033792E+01  0.291511769466E+02
  0.200831352318E+03 -0.867250081857E+01 -0.432921896451E+01
  0.201777803692E+03 -0.121650340995E+02 -0.442095121047E+01
  0.189848528615E+03 -0.235719174031E+00 -0.185141550751E+02
  0.184830881269E+03 -0.855409919657E+01 -0.188356481061E+02
  0.174940401942E+03  0.133642914350E+01 -0.187213736116E+02
  0.168272702451E+03 -0.282326840632E+01 -0.184509258456E+02
  0.161138739250E+03  0.431073008167E+01 -0.167577591470E+02
  0.153315714571E+03  0.656532182442E+01 -0.156809074367E+02
  0.150095632302E+03  0.581429403759E+01  0.154170743120E+02
  0.149463418936E+03  0.620152177534E+01  0.153081467118E+02
  0.153557260661E+03  0.210765642940E+01  0.163322642223E+02
  0.153249768242E+03  0.214199688828E+01  0.162954029873E+02
  0.156108264339E+03 -0.716512813618E+00  0.152746907584E+02
  0.156291563699E+03 -0.632528620557E+00  0.152843628031E+02
  0.154672822731E+03  0.986213486361E+00  0.317580057404E+01
  0.155131290984E+03 -0.140900377931E+00  0.320856721672E+01
  0.137544760653E+03  0.174456462511E+02 -0.166610475296E+02
  0.136418182465E+03  0.196106068879E+02 -0.162044254103E+02
  0.735745483584E+02  0.824542706480E+02  0.514714135204E+01
  0.660324145280E+02  0.945199977456E+02  0.165128493851E+02
  0.196197730884E+03 -0.356453186103E+02  0.134388000837E+03
  0.182738482954E+03 -0.141135353879E+02  0.114105443094E+03
  0.218608002659E+03 -0.499830540627E+02  0.372609576452E+02
  0.211227048270E+03 -0.357989684565E+02  0.342692837404E+02
  0.200498078929E+03 -0.250699702962E+02 -0.466118096430E+01
  0.200824011329E+03 -0.258712534276E+02 -0.468447163267E+01
  0.184818554962E+03 -0.986574300658E+01 -0.189622019315E+02
  0.180334772110E+03 -0.119201287010E+02 -0.187255819240E+02
  0.168306403016E+03  0.108296907486E+00 -0.181384195050E+02
  0.164314387710E+03  0.554118835119E+00 -0.176598424862E+02
  0.153371390417E+03  0.114971792781E+02 -0.151598629666E+02
  0.151819867355E+03  0.124474793139E+02 -0.148925275010E+02
  0.150334296967E+03  0.720538696674E+01  0.152939399774E+02
  0.150113250644E+03  0.737495667724E+01  0.152521923601E+02
  0.153991006439E+03  0.349717809593E+01  0.162291839448E+02
  0.153575455188E+03  0.369037279463E+01  0.161635458089E+02
  0.156240722340E+03  0.102509322562E+01  0.151179589733E+02
  0.156124762504E+03  0.103905696286E+01  0.151053045965E+02
  0.155132218277E+03  0.203160041952E+01  0.316369268949E+01
  0.154326842143E+03  0.354147128020E+01  0.311584956523E+01
  0.136452272938E+03  0.214160613404E+02 -0.159586884504E+02
  0.133491471696E+03  0.260029663894E+02 -0.149116082525E+02
  0.658198164211E+02  0.936746558457E+02  0.161460800820E+02
  0.589044243632E+02  0.102963901681E+03  0.255391069586E+02