# vtk DataFile Version 3.0
MachLine results file. Generated by MachLine, USU AeroLab (c) 2022.
ASCII
DATASET POLYDATA
POINTS                1848 float
  0.000000000000E+00  0.000000000000E+00  0.000000000000E+00
  0.147665724158E+00  0.000000000000E+00 -0.234920635819E+00
  0.147665724158E+00  0.000000000000E+00  0.234920635819E+00
  0.339639574289E+00  0.339639574289E+00  0.000000000000E+00
  0.473465979099E+00  0.000000000000E+00 -0.436293870211E+00
  0.473465979099E+00  0.000000000000E+00  0.436293870211E+00
  0.487305283546E+00  0.339639574289E+00 -0.234920650721E+00
  0.487305283546E+00  0.339639574289E+00  0.234920650721E+00
  0.735364913940E+00  0.735364913940E+00  0.000000000000E+00
  0.813105583191E+00  0.339639574289E+00 -0.436293929815E+00
  0.813105583191E+00  0.339639574289E+00  0.436293929815E+00
  0.883030653000E+00  0.735364913940E+00 -0.234920680523E+00
  0.883030653000E+00  0.735364913940E+00  0.234920680523E+00
  0.944064557552E+00  0.000000000000E+00 -0.604293465614E+00
  0.944064557552E+00  0.000000000000E+00  0.604293465614E+00
  0.119528055191E+01  0.119528055191E+01  0.000000000000E+00
  0.120883107185E+01  0.735364913940E+00 -0.436293989420E+00
  0.120883107185E+01  0.735364913940E+00  0.436293989420E+00
  0.128370416164E+01  0.339639574289E+00 -0.604293525219E+00
  0.128370416164E+01  0.339639574289E+00  0.604293525219E+00
  0.134294629097E+01  0.119528055191E+01 -0.234920725226E+00
  0.134294629097E+01  0.119528055191E+01  0.234920725226E+00
  0.157641971111E+01  0.000000000000E+00 -0.760520398617E+00
  0.157641971111E+01  0.000000000000E+00  0.760520398617E+00
  0.166874670982E+01  0.119528055191E+01 -0.436294049025E+00
  0.166874670982E+01  0.119528055191E+01  0.436294049025E+00
  0.167942965031E+01  0.735364913940E+00 -0.604293584824E+00
  0.167942965031E+01  0.735364913940E+00  0.604293584824E+00
  0.172824025154E+01  0.172824025154E+01  0.000000000000E+00
  0.187590610981E+01  0.172824025154E+01 -0.234920769930E+00
  0.187590610981E+01  0.172824025154E+01  0.234920769930E+00
  0.191605937481E+01  0.339639574289E+00 -0.760520458221E+00
  0.191605937481E+01  0.339639574289E+00  0.760520458221E+00
  0.213934540749E+01  0.119528055191E+01 -0.604293704033E+00
  0.213934540749E+01  0.119528055191E+01  0.604293704033E+00
  0.220170640945E+01  0.172824025154E+01 -0.436294138432E+00
  0.220170640945E+01  0.172824025154E+01  0.436294138432E+00
  0.231178498268E+01  0.735364913940E+00 -0.760520577431E+00
  0.231178498268E+01  0.735364913940E+00  0.760520577431E+00
  0.234375929832E+01  0.234375929832E+01  0.000000000000E+00
  0.239635515213E+01  0.000000000000E+00 -0.902061045170E+00
  0.239635515213E+01  0.000000000000E+00  0.902061045170E+00
  0.249142503738E+01  0.234375929832E+01 -0.234920814633E+00
  0.249142503738E+01  0.234375929832E+01  0.234920814633E+00
  0.267230534554E+01  0.172824025154E+01 -0.604293823242E+00
  0.267230534554E+01  0.172824025154E+01  0.604293823242E+00
  0.273599505424E+01  0.339639574289E+00 -0.902061164379E+00
  0.273599505424E+01  0.339639574289E+00  0.902061164379E+00
  0.277170085907E+01  0.119528055191E+01 -0.760520696640E+00
  0.277170085907E+01  0.119528055191E+01  0.760520696640E+00
  0.281722569466E+01  0.234375929832E+01 -0.436294227839E+00
  0.281722569466E+01  0.234375929832E+01  0.436294227839E+00
  0.305185556412E+01  0.305185556412E+01  0.000000000000E+00
  0.313172078133E+01  0.735364913940E+00 -0.902061283588E+00
  0.313172078133E+01  0.735364913940E+00  0.902061283588E+00
  0.319952154160E+01  0.305185556412E+01 -0.234920859337E+00
  0.319952154160E+01  0.305185556412E+01  0.234920859337E+00
  0.328782463074E+01  0.234375929832E+01 -0.604293942451E+00
  0.328782463074E+01  0.234375929832E+01  0.604293942451E+00
  0.330466079712E+01  0.172824025154E+01 -0.760520815849E+00
  0.330466079712E+01  0.172824025154E+01  0.760520815849E+00
  0.342464399338E+01  0.000000000000E+00 -0.102348911762E+01
  0.342464399338E+01  0.000000000000E+00  0.102348911762E+01
  0.352532196045E+01  0.305185556412E+01 -0.436294317245E+00
  0.352532196045E+01  0.305185556412E+01  0.436294317245E+00
  0.359163665771E+01  0.119528055191E+01 -0.902061402798E+00
  0.359163665771E+01  0.119528055191E+01  0.902061402798E+00
  0.376428389549E+01  0.339639574289E+00 -0.102348923683E+01
  0.376428389549E+01  0.339639574289E+00  0.102348923683E+01
  0.386280250549E+01  0.386280250549E+01  0.000000000000E+00
  0.392018008232E+01  0.234375929832E+01 -0.760520994663E+00
  0.392018008232E+01  0.234375929832E+01  0.760520994663E+00
  0.399592113495E+01  0.305185556412E+01 -0.604294061661E+00
  0.399592113495E+01  0.305185556412E+01  0.604294061661E+00
  0.401046848297E+01  0.386280250549E+01 -0.234920918941E+00
  0.401046848297E+01  0.386280250549E+01  0.234920918941E+00
  0.412459707260E+01  0.172824025154E+01 -0.902061522007E+00
  0.412459707260E+01  0.172824025154E+01  0.902061522007E+00
  0.416000986099E+01  0.735364913940E+00 -0.102348935604E+01
  0.416000986099E+01  0.735364913940E+00  0.102348935604E+01
  0.433626890182E+01  0.386280250549E+01 -0.436294436455E+00
  0.433626890182E+01  0.386280250549E+01  0.436294436455E+00
  0.461992597580E+01  0.119528055191E+01 -0.102348947525E+01
  0.461992597580E+01  0.119528055191E+01  0.102348947525E+01
  0.462827682495E+01  0.305185556412E+01 -0.760521173477E+00
  0.462827682495E+01  0.305185556412E+01  0.760521173477E+00
  0.466872262955E+01  0.000000000000E+00 -0.111146688461E+01
  0.466872262955E+01  0.000000000000E+00  0.111146688461E+01
  0.474011659622E+01  0.234375929832E+01 -0.902061700821E+00
  0.474011659622E+01  0.234375929832E+01  0.902061700821E+00
  0.478677463531E+01  0.478677463531E+01  0.000000000000E+00
  0.480686807632E+01  0.386280250549E+01 -0.604294240475E+00
  0.480686807632E+01  0.386280250549E+01  0.604294240475E+00
  0.493444061279E+01  0.478677463531E+01 -0.234920993447E+00
  0.493444061279E+01  0.478677463531E+01  0.234920993447E+00
  0.500836277008E+01  0.339639574289E+00 -0.111146700382E+01
  0.500836277008E+01  0.339639574289E+00  0.111146700382E+01
  0.515288639069E+01  0.172824025154E+01 -0.102348971367E+01
  0.515288639069E+01  0.172824025154E+01  0.102348971367E+01
  0.526024150848E+01  0.478677463531E+01 -0.436294555664E+00
  0.526024150848E+01  0.478677463531E+01  0.436294555664E+00
  0.540408849716E+01  0.735364913940E+00 -0.111146712303E+01
  0.540408849716E+01  0.735364913940E+00  0.111146712303E+01
  0.543922424316E+01  0.386280250549E+01 -0.760521352291E+00
  0.543922424316E+01  0.386280250549E+01  0.760521352291E+00
  0.544821310043E+01  0.305185556412E+01 -0.902061939240E+00
  0.544821310043E+01  0.305185556412E+01  0.902061939240E+00
  0.573084068298E+01  0.478677463531E+01 -0.604294419289E+00
  0.573084068298E+01  0.478677463531E+01  0.604294419289E+00
  0.576840591431E+01  0.234375929832E+01 -0.102348983288E+01
  0.576840591431E+01  0.234375929832E+01  0.102348983288E+01
  0.583337688446E+01  0.583337688446E+01  0.000000000000E+00
  0.586400508881E+01  0.119528055191E+01 -0.111146736145E+01
  0.586400508881E+01  0.119528055191E+01  0.111146736145E+01
  0.598104286194E+01  0.583337688446E+01 -0.234921067953E+00
  0.598104286194E+01  0.583337688446E+01  0.234921067953E+00
  0.611307668686E+01  0.000000000000E+00 -0.114008128643E+01
  0.611307668686E+01  0.000000000000E+00  0.114008128643E+01
  0.625916051865E+01  0.386280250549E+01 -0.902062177658E+00
  0.625916051865E+01  0.386280250549E+01  0.902062177658E+00
  0.630684375763E+01  0.583337688446E+01 -0.436294704676E+00
  0.630684375763E+01  0.583337688446E+01  0.436294704676E+00
  0.636319684982E+01  0.478677463531E+01 -0.760521590710E+00
  0.636319684982E+01  0.478677463531E+01  0.760521590710E+00
  0.639696550369E+01  0.172824025154E+01 -0.111146748066E+01
  0.639696550369E+01  0.172824025154E+01  0.111146748066E+01
  0.645271682739E+01  0.339639574289E+00 -0.114008140564E+01
  0.645271682739E+01  0.339639574289E+00  0.114008140564E+01
  0.647650289536E+01  0.305185556412E+01 -0.102349007130E+01
  0.647650289536E+01  0.305185556412E+01  0.102349007130E+01
  0.677744340897E+01  0.583337688446E+01 -0.604294598103E+00
  0.677744340897E+01  0.583337688446E+01  0.604294598103E+00
  0.684844303131E+01  0.735364913940E+00 -0.114008152485E+01
  0.684844303131E+01  0.735364913940E+00  0.114008152485E+01
  0.701104879379E+01  0.701104879379E+01  0.000000000000E+00
  0.701248550415E+01  0.234375929832E+01 -0.111146771908E+01
  0.701248550415E+01  0.234375929832E+01  0.111146771908E+01
  0.715871477127E+01  0.701104879379E+01 -0.234921157360E+00
  0.715871477127E+01  0.701104879379E+01  0.234921157360E+00
  0.718313360214E+01  0.478677463531E+01 -0.902062416077E+00
  0.718313360214E+01  0.478677463531E+01  0.902062416077E+00
  0.728745079041E+01  0.386280250549E+01 -0.102349042892E+01
  0.728745079041E+01  0.386280250549E+01  0.102349042892E+01
  0.730835962296E+01  0.119528055191E+01 -0.114008176327E+01
  0.730835962296E+01  0.119528055191E+01  0.114008176327E+01
  0.740979957581E+01  0.583337688446E+01 -0.760521829128E+00
  0.740979957581E+01  0.583337688446E+01  0.760521829128E+00
  0.748451566696E+01  0.701104879379E+01 -0.436294883490E+00
  0.748451566696E+01  0.701104879379E+01  0.436294883490E+00
  0.771254587173E+01  0.000000000000E+00 -0.108925735950E+01
  0.771254587173E+01  0.000000000000E+00  0.108925735950E+01
  0.772058296204E+01  0.305185556412E+01 -0.111146795750E+01
  0.772058296204E+01  0.305185556412E+01  0.111146795750E+01
  0.784132003784E+01  0.172824025154E+01 -0.114008188248E+01
  0.784132003784E+01  0.172824025154E+01  0.114008188248E+01
  0.795511531830E+01  0.701104879379E+01 -0.604294836521E+00
  0.795511531830E+01  0.701104879379E+01  0.604294836521E+00
  0.805218601227E+01  0.339639574289E+00 -0.108925747871E+01
  0.805218601227E+01  0.339639574289E+00  0.108925747871E+01
  0.821142387390E+01  0.478677463531E+01 -0.102349066734E+01
  0.821142387390E+01  0.478677463531E+01  0.102349066734E+01
[...]
CELL_DATA                3576
SCALARS C_p_inc float 1
LOOKUP_TABLE default
  0.214084491307E+00
  0.191404361897E+00
  0.165808830242E+00
  0.149081667931E+00
  0.142619967979E+00
  0.134036049818E+00
  0.128833322649E+00
  0.124369741670E+00
  0.119464630424E+00
  0.116614544561E+00
  0.111791192455E+00
  0.109720195463E+00
  0.104639803949E+00
  0.102833230257E+00
  0.974676091577E-01
  0.957916620848E-01
  0.910124707874E-01
  0.896536973429E-01
  0.895227028111E-01
  0.896276972943E-01
  0.992814655817E-01
  0.969698073897E-01
  0.124228757241E+00
  0.117684418631E+00
  0.181164634921E+00
  0.165831628797E+00
  0.257598233095E+00
  0.237711968419E+00
  0.338372747462E+00
  0.315940835171E+00
  0.425091263689E+00
  0.398885885874E+00
  0.526055119256E+00
  0.497020293102E+00
  0.645436735670E+00
  0.622208973961E+00
  0.773797099170E+00
  0.779965184738E+00
  0.742759375429E+00
  0.643192172781E+00
 -0.214377704007E+00
  0.156711181207E+00
 -0.666399930012E+00
 -0.295274624058E+00
 -0.684412217919E+00
 -0.498333306773E+00
 -0.642777558132E+00
 -0.554872129367E+00
 -0.626918491962E+00
 -0.584659574778E+00
 -0.620809926067E+00
 -0.598435492349E+00
 -0.626056844397E+00
 -0.611798849799E+00
 -0.627543843799E+00
 -0.623039634727E+00
 -0.593509435426E+00
 -0.603939759784E+00
 -0.525941775508E+00
 -0.540319593953E+00
 -0.466498524380E+00
 -0.451661112383E+00
 -0.391264529652E+00
 -0.375508856033E+00
 -0.318376518450E+00
 -0.302783443633E+00
 -0.253615564977E+00
 -0.237671905210E+00
 -0.196270636411E+00
 -0.178984301094E+00
 -0.144262456467E+00
 -0.124007672615E+00
 -0.948663613470E-01
 -0.692625331431E-01
 -0.450558014170E-01
 -0.899011819600E-02
  0.120666184864E-01
  0.657603181771E-01
  0.110436589300E+00
  0.171836244895E+00
  0.205423974819E+00
  0.212678201914E+00
  0.165628134176E+00
  0.165584744026E+00
  0.148663048778E+00
  0.142573336026E+00
  0.133867568786E+00
  0.128818075275E+00
  0.122665931882E+00
  0.119458604503E+00
  0.113957142215E+00
  0.111790190639E+00
  0.106266885405E+00
  0.104642482368E+00
  0.986964828111E-01
  0.974712299024E-01
  0.915903682776E-01
  0.910039755750E-01
  0.886209884473E-01
  0.894653149641E-01
  0.969655752408E-01
  0.936709531498E-01
  0.117811400585E+00
  0.110478025208E+00
  0.166233881099E+00
  0.153243319382E+00
  0.237568485696E+00
  0.222138742976E+00
  0.314113759239E+00
  0.299000929563E+00
  0.393223936784E+00
  0.380208536424E+00
  0.481417053488E+00
  0.473342421041E+00
  0.581232230129E+00
  0.580327626571E+00
  0.674767164934E+00
  0.664498127949E+00
  0.506791854999E+00
  0.389031482079E+00
 -0.492468346244E+00
 -0.283642506273E+00
 -0.860522386308E+00
 -0.633169836698E+00
 -0.829494457913E+00
 -0.670181153740E+00
 -0.738662920390E+00
 -0.641595833875E+00
 -0.687275253982E+00
 -0.629495715838E+00
 -0.658063616944E+00
 -0.623771419881E+00
 -0.648883431368E+00
 -0.628867627580E+00
 -0.637716462235E+00
 -0.630757879405E+00
 -0.590154793962E+00
 -0.596678561044E+00
 -0.515248444242E+00
 -0.528045444502E+00
 -0.451528224135E+00
 -0.438480172177E+00
 -0.375253756189E+00
 -0.360395767620E+00
 -0.302581544414E+00
 -0.286696688990E+00
 -0.237542713758E+00
 -0.220384529656E+00
 -0.178916449573E+00
 -0.159541806257E+00
 -0.123994204536E+00
 -0.100856668170E+00
 -0.693200101405E-01
 -0.406047192128E-01
 -0.922405718979E-02
  0.235196215758E-01
  0.647469221741E-01
  0.889477658812E-01
  0.167125542154E+00
  0.176335813091E+00
  0.198887618652E+00
  0.204895129783E+00
  0.161562248087E+00
  0.165354564561E+00
  0.148358448564E+00
  0.148526577366E+00
  0.136733629713E+00
  0.133817171890E+00
  0.125724796873E+00
  0.122646186172E+00
  0.116205334853E+00
  0.113950329433E+00
  0.107871300716E+00
  0.106267932988E+00
  0.997926638728E-01
  0.987019853747E-01
  0.919810860785E-01
  0.915868670514E-01
  0.876553604334E-01
  0.885674462640E-01
  0.937938227751E-01
  0.905931153061E-01
  0.110883173237E+00
  0.104381630389E+00
  0.153769370311E+00
  0.143447365854E+00
  0.221518109149E+00
  0.209695415101E+00
  0.295913299737E+00
  0.285436021567E+00
  0.372957958636E+00
  0.365901955054E+00
  0.458851434829E+00
  0.456704896373E+00
  0.554865546685E+00
  0.555823381667E+00
  0.628797101652E+00
  0.612201315730E+00
  0.370589786954E+00
  0.257400836788E+00
 -0.706548231649E+00
 -0.525330066042E+00
 -0.103334638251E+01
 -0.840287069392E+00
 -0.954436598794E+00
 -0.811138414152E+00
 -0.825656113310E+00
 -0.729979103515E+00
 -0.747087680434E+00
 -0.684397943023E+00
 -0.698020942594E+00
 -0.658172372707E+00
 -0.673961651950E+00
 -0.650742612711E+00
 -0.649381890304E+00
 -0.641326278833E+00
 -0.589590920432E+00
 -0.594622866431E+00
 -0.506597439988E+00
 -0.518901915718E+00
 -0.438346124682E+00
 -0.425812128311E+00
 -0.360055424718E+00
 -0.345172191391E+00
 -0.286404687711E+00
 -0.269820446067E+00
 -0.220188284323E+00
 -0.201696218986E+00
 -0.159439441852E+00
 -0.138287145914E+00
 -0.100862168367E+00
 -0.765574114663E-01
 -0.408044869113E-01
 -0.156405961866E-01
  0.228379990109E-01
  0.422371705627E-01
  0.873751450309E-01
  0.978899679251E-01
  0.173234082072E+00
  0.177592135840E+00
  0.197872614465E+00
  0.198606115872E+00
  0.158782809050E+00
  0.161364974166E+00
  0.146115766058E+00
  0.148211982462E+00
  0.136565909840E+00
  0.136646109352E+00
  0.127406045307E+00
  0.125683397695E+00
  0.118179479098E+00
  0.116188841329E+00
  0.109420914647E+00
  0.107868746300E+00
  0.100826836952E+00
  0.997986957066E-01
  0.923317604200E-01
  0.919837918819E-01
  0.868317297814E-01
  0.876221262558E-01
  0.907420401964E-01
  0.879828494164E-01
  0.104757696971E+00
  0.994271083902E-01
  0.143745671033E+00
  0.135874423596E+00
  0.208735838050E+00
  0.200092695883E+00
  0.282092573082E+00
  0.275161953658E+00
  0.359165118596E+00
  0.355721239521E+00
  0.445320051989E+00
  0.445833602980E+00
  0.539275636272E+00
  0.540163538671E+00
  0.594691150384E+00
  0.574861208061E+00
  0.257008102099E+00
  0.147824903285E+00
 -0.896735590988E+00
 -0.726923239582E+00
 -0.119100995973E+01
 -0.101637197757E+01
 -0.106976431735E+01
 -0.937550463500E+00
 -0.908247711961E+00
 -0.815837026729E+00
 -0.806300697233E+00
 -0.742533392244E+00
 -0.739096061866E+00
 -0.697067077341E+00
 -0.700302446409E+00
 -0.675676705494E+00
 -0.662274581935E+00
 -0.653502037508E+00
 -0.590682231078E+00
 -0.594832645182E+00
 -0.499176593094E+00
 -0.511241955877E+00
 -0.425848664266E+00
 -0.413488065017E+00
 -0.344851524110E+00
 -0.329726283175E+00
 -0.269487542672E+00
 -0.252163340134E+00
 -0.201452491844E+00
 -0.181907292008E+00
 -0.138165380911E+00
 -0.116517314518E+00
 -0.766172537476E-01
 -0.548221739461E-01
 -0.160184211019E-01
  0.158025916478E-02
  0.413973863442E-01
  0.523372089450E-01
  0.965152104714E-01
  0.101497635939E+00
  0.175243628035E+00
  0.173953897853E+00
  0.196095761949E+00
  0.197509575314E+00
  0.156785072472E+00
  0.158605565570E+00
  0.143984567213E+00
  0.145984941732E+00
  0.135066864935E+00
  0.136468892050E+00
  0.127318734544E+00
  0.127343886611E+00
  0.119256501725E+00
  0.118148393059E+00
  0.110708036974E+00
  0.109411219279E+00
  0.101791564144E+00
  0.100831503328E+00
  0.927151781498E-01
  0.923410469384E-01
  0.862554193232E-01
  0.868224370553E-01
  0.881181146669E-01
  0.859924474211E-01
  0.997137409189E-01
  0.956924228070E-01
  0.135982374332E+00
  0.130387330008E+00
  0.199047085060E+00
  0.193313895791E+00
  0.272091547789E+00
  0.268090575320E+00
  0.350088072857E+00
  0.349154134763E+00
  0.437297863346E+00
  0.439258018621E+00
  0.529348194927E+00
  0.529834734025E+00
  0.566368348231E+00
  0.544677793438E+00
  0.154227753862E+00
  0.480600291170E-01
 -0.107416124155E+01
 -0.910232504017E+00
 -0.133931560389E+01
 -0.117646107179E+01
 -0.117869537246E+01
 -0.105498871049E+01
 -0.987223487679E+00
 -0.898894270204E+00
 -0.863971020303E+00
 -0.801500216101E+00
 -0.779734523237E+00
 -0.737967251743E+00
 -0.726677722375E+00
 -0.702244393692E+00
 -0.675825639892E+00
 -0.666873678199E+00
 -0.592791601609E+00
 -0.596517270491E+00
 -0.492571868996E+00
 -0.504563588247E+00
 -0.413765506714E+00
 -0.401406039202E+00
 -0.329489402875E+00
 -0.314068214230E+00
 -0.251834053564E+00
 -0.233994296969E+00
 -0.181648211008E+00
 -0.161977466874E+00
 -0.116410428672E+00
 -0.965757635431E-01
 -0.549544233965E-01
 -0.381627472979E-01
  0.115118032223E-02
  0.127047563684E-01
  0.516178497262E-01
  0.582696172586E-01
  0.100506984134E+00
  0.103509876185E+00
  0.172660129554E+00
  0.173074571283E+00
  0.194513513993E+00
  0.195777123679E+00
  0.155082581359E+00
  0.156608531572E+00
  0.142113991627E+00
  0.143855538100E+00
  0.133315751902E+00
  0.134968462408E+00
  0.126197310042E+00
  0.127245550559E+00
  0.119182919064E+00
  0.119209815060E+00
  0.111394286941E+00
  0.110686859779E+00
  0.102576945164E+00
  0.101791253408E+00
  0.931495640099E-01
  0.927285734511E-01
  0.859922311266E-01
  0.862672654484E-01
  0.861004223783E-01
  0.847168872582E-01
  0.958866557670E-01
  0.932333253650E-01
  0.130367804835E+00
  0.126880910712E+00
  0.192335537477E+00
  0.189160489151E+00
  0.265540223961E+00
  0.264004060276E+00
  0.344779315388E+00
  0.345758529075E+00
  0.433141466103E+00
  0.436020088808E+00
  0.522991175347E+00
  0.523047420720E+00
  0.541443221224E+00
  0.518560324540E+00
  0.575451003090E-01
 -0.462186670891E-01
 -0.124329124208E+01
 -0.108330215825E+01
 -0.148073725411E+01
 -0.132687288234E+01
 -0.128239104055E+01
 -0.116620674625E+01
 -0.106255660230E+01
 -0.979123165510E+00
 -0.919280258553E+00
 -0.859815220351E+00
 -0.818922680125E+00
 -0.779063700470E+00
 -0.752304267856E+00
 -0.729086698908E+00
 -0.689343161133E+00
 -0.680848292519E+00
 -0.595308403019E+00
 -0.599069233765E+00
 -0.486419115784E+00
 -0.498487713427E+00
 -0.401930084700E+00
 -0.389487696229E+00
 -0.313943940071E+00
 -0.298375139754E+00
 -0.233700989761E+00
 -0.216015705426E+00
 -0.161739168441E+00
 -0.143518486981E+00
 -0.965117003895E-01
 -0.803322781228E-01
 -0.383217623029E-01
 -0.262592683665E-01
  0.123504291852E-01
  0.202046234902E-01
  0.577665202234E-01
  0.624180874319E-01
  0.102884080383E+00
  0.105331029478E+00
  0.172246168893E+00
  0.173169445963E+00
  0.195462072907E+00
  0.194236637685E+00
  0.154268954506E+00
  0.154911730266E+00
  0.140677243057E+00
  0.141982563863E+00
  0.131692520856E+00
  0.133212649274E+00
  0.124739871094E+00
  0.126116599634E+00
  0.118304820271E+00
  0.119123590190E+00
  0.111309456616E+00
  0.111358831472E+00
  0.102993353787E+00
  0.102566693023E+00
  0.935755404036E-01
  0.931616103757E-01
  0.860497465674E-01
  0.860170053108E-01
  0.847945834978E-01
  0.841733645631E-01
  0.933484100540E-01
  0.920290501628E-01
  0.126788827550E+00
  0.125202948903E+00
  0.188331834872E+00
  0.187345469557E+00
  0.262050089942E+00
  0.262568222337E+00
  0.342604013573E+00
  0.345095720035E+00
  0.431935284922E+00
  0.435452777988E+00
  0.519149243211E+00
  0.518794968551E+00
  0.518771753951E+00
  0.495056800177E+00
 -0.351560623274E-01
 -0.136712564418E+00
 -0.140568263540E+01
 -0.124946529341E+01
 -0.161590568327E+01
 -0.147027822271E+01
 -0.138091849448E+01
 -0.127224964302E+01
 -0.113382197690E+01
 -0.105611064242E+01
 -0.971502892254E+00
 -0.916255821748E+00
 -0.855907125606E+00
 -0.819055180560E+00
 -0.776558357383E+00
 -0.755299789436E+00
 -0.702224147267E+00
 -0.694761901804E+00
 -0.597733254231E+00
 -0.601900886395E+00
 -0.480457528413E+00
 -0.492655709066E+00
 -0.390219323135E+00
 -0.377777922977E+00
 -0.298366344954E+00
 -0.283130971110E+00
 -0.215785603121E+00
 -0.199378990796E+00
 -0.143336272616E+00
 -0.127999334387E+00
 -0.803087965772E-01
 -0.680618757972E-01
 -0.263884948941E-01
 -0.177670796421E-01
  0.199730311324E-01
  0.255816260979E-01
  0.621189819070E-01
  0.654604945952E-01
  0.104967820922E+00
  0.106369279675E+00
  0.172653938875E+00
  0.171342688403E+00
  0.191861932470E+00
  0.195062306243E+00
  0.152580807510E+00
  0.154071109528E+00
  0.139276012378E+00
  0.140534496869E+00
  0.130250195439E+00
  0.131580799781E+00
  0.123298288415E+00
  0.124650181190E+00
  0.117095334030E+00
  0.118234303906E+00
  0.110629269421E+00
  0.111259477558E+00
  0.102928373808E+00
  0.102968703793E+00
  0.938706480579E-01
  0.935790307741E-01
  0.863598921673E-01
  0.860762221661E-01
  0.842237803136E-01
  0.842988012184E-01
  0.920849828176E-01
  0.919737667011E-01
  0.125081598836E+00
  0.125145064862E+00
  0.186699194528E+00
  0.187532927351E+00
  0.261186308077E+00
  0.263362753710E+00
  0.343021574425E+00
  0.346689751955E+00
  0.433043123861E+00
  0.436999082425E+00
  0.517161635158E+00
  0.516414006411E+00
  0.497705461657E+00
  0.473419799009E+00
 -0.124782620659E+00
 -0.223926847008E+00
 -0.156136709159E+01
 -0.140976882986E+01
 -0.174443589363E+01
 -0.160736882511E+01
 -0.147378734710E+01
 -0.137309225618E+01
 -0.120044914041E+01
 -0.112916779668E+01
 -0.102002578511E+01
 -0.969794215869E+00
 -0.890110164641E+00
 -0.856958349960E+00
 -0.798896602806E+00
 -0.780150050314E+00
 -0.713970828679E+00
 -0.707970059684E+00
 -0.599715300539E+00
 -0.604482695960E+00
 -0.474604272678E+00
 -0.486775362409E+00
 -0.378652847390E+00
 -0.366567645900E+00
 -0.283230040129E+00
 -0.269154156765E+00
 -0.199238620228E+00
 -0.185233577471E+00
 -0.127891105313E+00
 -0.115937868099E+00
 -0.680581882616E-01
 -0.590688178178E-01
 -0.178401012886E-01
 -0.115793930852E-01
  0.254732456149E-01
  0.296942681375E-01
  0.653471139390E-01
  0.682848499911E-01
  0.106290567287E+00
  0.108848583334E+00
  0.171430390491E+00
  0.175540373781E+00
  0.194102825936E+00
  0.191653822437E+00
  0.152518319050E+00
  0.152408282769E+00
  0.138445856295E+00
  0.139129572061E+00
  0.129100471585E+00
  0.130128709204E+00
  0.122024553176E+00
  0.123197692880E+00
  0.115869470840E+00
  0.117012968330E+00
  0.109678942786E+00
  0.110565117239E+00
  0.102473847229E+00
  0.102887074264E+00
  0.939446153393E-01
  0.938589258126E-01
  0.867962205006E-01
  0.863765970284E-01
  0.843266939628E-01
  0.849544668178E-01
  0.919902042477E-01
  0.928804208976E-01
  0.125023616497E+00
  0.126435525905E+00
  0.187068926735E+00
  0.189348199426E+00
  0.262477053621E+00
  0.265927950472E+00
  0.345506476348E+00
  0.350034257983E+00
  0.435918382704E+00
  0.440129971862E+00
  0.516507158390E+00
  0.515380831289E+00
  0.477807038448E+00
  0.453230114430E+00
 -0.211586121331E+00
 -0.307739942351E+00
 -0.170955088176E+01
 -0.156398323551E+01
 -0.186544733932E+01
 -0.173773315634E+01
 -0.156029104607E+01
 -0.146813109179E+01
 -0.126186925588E+01
 -0.119752145579E+01
 -0.106434971745E+01
 -0.101960067222E+01
 -0.921085910190E+00
 -0.892031969708E+00
 -0.818913564055E+00
 -0.802996634794E+00
 -0.724262496029E+00
 -0.719901100005E+00
 -0.601121589661E+00
 -0.606402244035E+00
 -0.469035616953E+00
 -0.480713048924E+00
 -0.367519723628E+00
 -0.356422910756E+00
 -0.269356463513E+00
 -0.257316885362E+00
 -0.185199795308E+00
 -0.174141155397E+00
 -0.115899610766E+00
 -0.107017174639E+00
 -0.590692025165E-01
 -0.525267089153E-01
 -0.115952972885E-01
 -0.696694120381E-02
  0.296881121582E-01
  0.328937940728E-01
  0.682973152579E-01
  0.703344276095E-01
  0.108855522644E+00
  0.109545934711E+00
  0.175400004961E+00
  0.173421250902E+00
  0.193916883662E+00
  0.193722941414E+00
  0.152272342021E+00
  0.152311757216E+00
  0.137930786458E+00
  0.138286766066E+00
  0.128318280191E+00
  0.128968676046E+00
  0.121043333970E+00
  0.121912529041E+00
  0.114812007686E+00
  0.115774491344E+00
  0.108725664381E+00
  0.109600580561E+00
  0.101847107080E+00
  0.102415550946E+00
  0.938291918812E-01
  0.939137553557E-01
  0.872442808699E-01
  0.867941737242E-01
  0.849631522368E-01
  0.859539291627E-01
  0.928722000282E-01
  0.944982081826E-01
  0.126329019770E+00
  0.128747603757E+00
  0.189044466587E+00
  0.192385588966E+00
  0.265440035079E+00
  0.269790975786E+00
  0.349538184740E+00
  0.354618921123E+00
  0.440045082555E+00
  0.444334795126E+00
  0.516723772709E+00
  0.515242703917E+00
  0.458767644295E+00
  0.434248138876E+00
 -0.295393015309E+00
 -0.387677130492E+00
 -0.184904647686E+01
 -0.171115627905E+01
 -0.197789952581E+01
 -0.186042298072E+01
 -0.163971549036E+01
 -0.155654996638E+01
 -0.131760755277E+01
 -0.126045629591E+01
 -0.110412198794E+01
 -0.106502855913E+01
 -0.948561998772E+00
 -0.923708578965E+00
 -0.836413591666E+00
 -0.823336153518E+00
 -0.733030716388E+00
 -0.730149146781E+00
 -0.602096954757E+00
 -0.607463002694E+00
 -0.464173943886E+00
 -0.474618683091E+00
 -0.357404701091E+00
 -0.347989283254E+00
 -0.257620189986E+00
 -0.248118175207E+00
 -0.174211728024E+00
 -0.165988496139E+00
 -0.107035573732E+00
 -0.100625463661E+00
 -0.525263145775E-01
 -0.478219939672E-01
 -0.693864154761E-02
 -0.360988478008E-02
  0.329602257691E-01
  0.352403264900E-01
  0.704486571833E-01
  0.719690716205E-01
  0.109735375224E+00
  0.110756132571E+00
  0.173822670141E+00
  0.174754229490E+00
  0.193808972019E+00
  0.193558670375E+00
  0.151960623124E+00
  0.152047586202E+00
  0.137456045976E+00
  0.137752375355E+00
  0.127692703426E+00
  0.128170414433E+00
  0.120288489206E+00
  0.120917424722E+00
  0.113979022385E+00
  0.114703620304E+00
  0.107920884072E+00
  0.108633078677E+00
  0.101246011678E+00
  0.101772377860E+00
  0.936479641010E-01
  0.937784068169E-01
  0.876695306827E-01
  0.872189072946E-01
  0.859443645390E-01
  0.871241898453E-01
  0.944737734731E-01
  0.965516483026E-01
  0.128658974554E+00
  0.131725531614E+00
  0.192206461735E+00
  0.196224873895E+00
  0.269595195121E+00
  0.274483391699E+00
  0.354611827846E+00
  0.359952070619E+00
  0.444936213893E+00
  0.449137769925E+00
  0.517402759004E+00
  0.515610490159E+00
  0.440402633738E+00
  0.416356617014E+00
 -0.375720168234E+00
 -0.463081426546E+00
 -0.197857896332E+01
 -0.184998452220E+01
 -0.208084001078E+01
 -0.197432527193E+01
 -0.171149770497E+01
 -0.163754759011E+01
 -0.136737317734E+01
 -0.131739668998E+01
 -0.113920452576E+01
 -0.110562277166E+01
 -0.972504785491E+00
 -0.951621429963E+00
 -0.851469664172E+00
 -0.840889061581E+00
 -0.740488282397E+00
 -0.738581712570E+00
 -0.603018151860E+00
 -0.607790231989E+00
 -0.460490616643E+00
 -0.468968009760E+00
 -0.348976903707E+00
 -0.341667621304E+00
 -0.248512965271E+00
 -0.241530970102E+00
 -0.166146854734E+00
 -0.160302818640E+00
 -0.100688040437E+00
 -0.961744313050E-01
 -0.478227535977E-01
 -0.444766016096E-01
 -0.355012638019E-02
 -0.109288482796E-02
  0.353667071845E-01
  0.372010737598E-01
  0.721716531066E-01
  0.735856073859E-01
  0.111049743710E+00
  0.112184381978E+00
  0.175199362008E+00
  0.176194003221E+00
  0.193395609250E+00
  0.193440139140E+00
  0.151628886402E+00
  0.151725309691E+00
  0.137058963113E+00
  0.137265123811E+00
  0.127196421265E+00
  0.127531163703E+00
  0.119701233830E+00
  0.120148657775E+00
  0.113338812864E+00
  0.113856852902E+00
  0.107301519015E+00
  0.107814290112E+00
  0.100776197424E+00
  0.101155886600E+00
  0.935189571549E-01
  0.935785510732E-01
  0.881057714358E-01
  0.876206793526E-01
  0.870966931251E-01
  0.883575494174E-01
  0.965143930735E-01
  0.987982752786E-01
  0.131649713268E+00
  0.135028966548E+00
  0.196129010684E+00
  0.200463364541E+00
  0.274477272032E+00
  0.279565677703E+00
  0.360252494611E+00
  0.365583944550E+00
  0.450149018503E+00
  0.454118584612E+00
  0.518203102980E+00
  0.516166480565E+00
  0.422650540925E+00
  0.399525406536E+00
 -0.451885770067E+00
 -0.533263195008E+00
 -0.209704769088E+01
 -0.197909898101E+01
 -0.217361734229E+01
 -0.207843015374E+01
 -0.177537421146E+01
 -0.171050408686E+01
 -0.141114966220E+01
 -0.136799044435E+01
 -0.116973429622E+01
 -0.114118281091E+01
 -0.993152399190E+00
 -0.975681156632E+00
 -0.864411846682E+00
 -0.855690719383E+00
 -0.747045946551E+00
 -0.745413970339E+00
 -0.604302271477E+00
 -0.607831367112E+00
 -0.458246313037E+00
 -0.464374801457E+00
 -0.342649912204E+00
 -0.337457527362E+00
 -0.241998220606E+00
 -0.237173971108E+00
 -0.160528429361E+00
 -0.156525018593E+00
 -0.962723573605E-01
 -0.931420955608E-01