# vtk DataFile Version 3.0
TriPan results file. Generated by TriPan, USU AeroLab (c) 2021.
ASCII
DATASET POLYDATA
POINTS                1187 float
      0.000007434493      0.000000000000      0.000000000000
      0.054955317282      0.000000000000     -0.132451561689
      0.054955317282      0.000000000000      0.132451561689
      0.227193546912      0.000000000000     -0.303487510220
      0.227193546912      0.000000000000      0.303487510220
      0.499542388506      0.000000000000     -0.448201985494
      0.499542388506      0.000000000000      0.448201985494
      0.579903457038      0.579892184862     -0.000000000000
      0.634852492587      0.579892790540     -0.132452594726
      0.634852492587      0.579892790540      0.132452594726
      0.807091379704      0.579893505035     -0.303488116953
      0.807091379704      0.579893505035      0.303488116953
      0.901212614079      0.000000000000     -0.591211007161
      0.901212614079      0.000000000000      0.591211007161
      1.079440325994      0.579894393186     -0.448202100712
      1.079440325994      0.579894393186      0.448202100712
      1.321318258826      1.321304212034     -0.000000000000
      1.376267090114      1.321305021976     -0.132451782277
      1.376267090114      1.321305021976      0.132451782277
      1.461724710956      0.000000000000     -0.735952128540
      1.461724710956      0.000000000000      0.735952128540
      1.481110557225      0.579894975515     -0.591210898333
      1.481110557225      0.579894975515      0.591210898333
      1.548505793006      1.321305980294     -0.303486822333
      1.548505793006      1.321305980294      0.303486822333
      1.820854489745      1.321307117995     -0.448200529152
      1.820854489745      1.321307117995      0.448200529152
      2.041622645637      0.579895429833     -0.735951928953
      2.041622645637      0.579895429833      0.735951928953
      2.219021684661      0.000000000000     -0.875936761433
      2.219021684661      0.000000000000      0.875936761433
      2.222524666971      1.321307873539     -0.591209210036
      2.222524666971      1.321307873539      0.591209210036
      2.261974463396      2.261957039904     -0.000000000000
      2.316922934474      2.261958090847     -0.132450788321
      2.316922934474      2.261958090847      0.132450788321
      2.489161459227      2.261959346513     -0.303485237170
      2.489161459227      2.261959346513      0.303485237170
      2.761509851044      2.261960789136     -0.448198603466
      2.761509851044      2.261960789136      0.448198603466
      2.783036385706      1.321308459114     -0.735950185967
      2.783036385706      1.321308459114      0.735950185967
      2.798919720140      0.579895871200     -0.875936518337
      2.798919720140      0.579895871200      0.875936518337
      3.163179578501      2.261961756039     -0.591207138404
      3.163179578501      2.261961756039      0.591207138404
      3.207496075499      0.000000000000     -1.001896625380
      3.207496075499      0.000000000000      1.001896625380
      3.443840255232      3.443818817648     -0.000000000000
      3.498788450710      3.443820144189     -0.132449599265
      3.498788450710      3.443820144189      0.132449599265
      3.540333350635      1.321309010055     -0.875934750319
      3.540333350635      1.321309010055      0.875934750319
      3.671026620562      3.443821754758     -0.303483339743
      3.671026620562      3.443821754758      0.303483339743
      3.723691375354      2.261962501906     -0.735948043747
      3.723691375354      2.261962501906      0.735948043747
      3.787394096948      0.579896340272     -1.001896350021
      3.787394096948      0.579896340272      1.001896350021
      3.943374647971      3.443823561788     -0.448196297100
      3.943374647971      3.443823561788      0.448196297100
      4.345044123127      3.443824780992     -0.591204654501
      4.345044123127      3.443824780992      0.591204654501
      4.447046034762      0.000000000000     -1.100270871018
      4.447046034762      0.000000000000      1.100270871018
      4.480988206149      2.261963186981     -0.875932573897
      4.480988206149      2.261963186981      0.875932573897
      4.528807873597      1.321309571393     -1.001894574667
      4.528807873597      1.321309571393      1.001894574667
      4.905555728573      3.443825718267     -0.735945471663
      4.905555728573      3.443825718267      0.735945471663
      4.910719554293      4.910693485867      0.000000000000
      4.965667686036      4.910695114563     -0.132448216661
      4.965667686036      4.910695114563      0.132448216661
      5.026944070149      0.579896957591     -1.100270536674
      5.026944070149      0.579896957591      1.100270536674
      5.137905443872      4.910697137147     -0.303481132582
      5.137905443872      4.910697137147      0.303481132582
      5.410253047895      4.910699367574     -0.448193613114
      5.410253047895      4.910699367574      0.448193613114
      5.469462377414      2.261963861606     -1.001892386378
      5.469462377414      2.261963861606      1.001892386378
      5.662852398918      3.443826563792     -0.875929956880
      5.662852398918      3.443826563792      0.875929956880
      5.768357281239      1.321310277431     -1.100268762444
      5.768357281239      1.321310277431      1.100268762444
      5.811922468574      4.910700879665     -0.591201761536
      5.811922468574      4.910700879665      0.591201761536
      5.930397345413      0.000000000000     -1.141004609347
      5.930397345413      0.000000000000      1.141004609347
      6.372433851815      4.910702039144     -0.735942472732
      6.372433851815      4.910702039144      0.735942472732
      6.510295386293      0.579897825737     -1.141004170601
      6.510295386293      0.579897825737      1.141004170601
      6.651326434334      3.443827374266     -1.001889751517
      6.651326434334      3.443827374266      1.001889751517
      6.703960287409      6.703929078731     -0.000000000000
      6.709012152635      2.261964676895     -1.100266573611
      6.709012152635      2.261964676895      1.100266573611
      6.758908106423      6.703931020158     -0.132446666410
      6.758908106423      6.703931020158      0.132446666410
      6.931145402778      6.703933504233     -0.303478657104
      6.931145402778      6.703933504233      0.303478657104
      7.129729858844      4.910703071146     -0.875926901714
      7.129729858844      4.910703071146      0.875926901714
      7.203492532320      6.703936209130     -0.448190601958
      7.203492532320      6.703936209130      0.448190601958
      7.251708979118      1.321311240692     -1.141002403314
      7.251708979118      1.321311240692      1.141002403314
      7.605161148152      6.703938049229     -0.591198514023
      7.605161148152      6.703938049229      0.591198514023
      7.609122763691      0.000000000000     -1.093998744305
      7.609122763691      0.000000000000      1.093998744305
      7.890876078156      3.443828320954     -1.100263935303
      7.890876078156      3.443828320954      1.100263935303
      8.118203736065      4.910704039814     -1.001886671642
      8.118203736065      4.910704039814      1.001886671642
      8.165672759399      6.703939457542     -0.735939103512
      8.165672759399      6.703939457542      0.735939103512
      8.189020249261      0.579898682219     -1.093998172836
      8.189020249261      0.579898682219      1.093998172836
      8.192362779492      2.261965757498     -1.141000221932
      8.192362779492      2.261965757498      1.141000221932
      8.855996329986      8.855959694174      0.000000000000
      8.910943850546      8.855961934054     -0.132445007859
      8.910943850546      8.855961934054      0.132445007859
      8.922968080633      6.703940698507     -0.875923465886
      8.922968080633      6.703940698507      0.875923465886
      8.930434239198      1.321312176893     -1.093996417135
      8.930434239198      1.321312176893      1.093996417135
      9.083180176675      8.855964911516     -0.303476008204
      9.083180176675      8.855964911516      0.303476008204
      9.355527275623      8.855968123847     -0.448187379183
      9.355527275623      8.855968123847      0.448187379183
      9.357753226473      4.910705139917     -1.100260848079
      9.357753226473      4.910705139917      1.100260848079
      9.374226563574      3.443829542996     -1.140997590742
      9.374226563574      3.443829542996      1.140997590742
      9.395235896783      0.000000000000     -0.980747035457
      9.395235896783      0.000000000000      0.980747035457
      9.757195540840      8.855970314560     -0.591195036870
      9.757195540840      8.855970314560      0.591195036870
      9.871087941158      2.261966792121     -1.093994249492
      9.871087941158      2.261966792121      1.093994249492
      9.911442734001      6.703941844699     -1.001883204326
      9.911442734001      6.703941844699      1.001883204326
      9.975133588890      0.579899081610     -0.980744519637
      9.975133588890      0.579899081610      0.980744519637
     10.317706409244      8.855971988837     -0.735935493923
     10.317706409244      8.855971988837      0.735935493923
     10.716546616392      1.321312585038     -0.980743332211
     10.716546616392      1.321312585038      0.980743332211
     10.841104500015      4.910706527465     -1.140994509419
     10.841104500015      4.910706527465      1.140994509419
     11.052951606455      3.443830696385     -1.093991633836
     11.052951606455      3.443830696385      1.093991633836
     11.075002460736      8.855973453244     -0.875919782166
     11.075002460736      8.855973453244      0.875919782166
     11.150991098239      6.703943117331     -1.100257369085
     11.150991098239      6.703943117331      1.100257369085
     11.178267136232      0.000000000000     -0.826612480667
[...]
POINT_DATA                1187
SCALARS phi float 1
LOOKUP_TABLE default
     -0.000007391009
     -0.040329198327
     -0.068938564976
     -0.193088228103
     -0.258641139240
     -0.448215021419
     -0.545026072738
     -0.576511580825
     -0.616834422593
     -0.645444012377
     -0.769594152051
     -0.835147194242
     -0.832090981171
     -0.959791796890
     -1.024721102534
     -1.121532178740
     -1.313589820726
     -1.353912547172
     -1.382521961468
     -1.373692674746
     -1.532657386172
     -1.408597092108
     -1.536297884321
     -1.506672145556
     -1.572224908110
     -1.761798877858
     -1.858609614609
     -1.950198787070
     -2.109163455385
     -2.111441941008
     -2.300643152756
     -2.145674826350
     -2.273375253893
     -2.248744093266
     -2.289066568955
     -2.317675768558
     -2.441826054093
     -2.507378474254
     -2.696952520032
     -2.793762840837
     -2.687276159704
     -2.846240451536
     -2.687948158238
     -2.877149317478
     -3.080828037148
     -3.208528017221
     -3.080531125370
     -3.296939505420
     -3.423697109505
     -3.464019439624
     -3.492628382392
     -3.425025424642
     -3.614226201992
     -3.616778648440
     -3.682330658759
     -3.622429455786
     -3.781393284902
     -3.657037332137
     -3.873445652710
     -3.871904796268
     -3.968714618901
     -4.255780081733
     -4.383479525286
     -4.302206557116
     -4.539863647460
     -4.360178591068
     -4.549378898314
     -4.394114744632
     -4.610522681731
     -4.797381319606
     -4.956344593155
     -4.881996578698
     -4.922318994775
     -4.950927638903
     -4.878712784111
     -5.116369802237
     -5.075077883036
     -5.140629416612
     -5.330203661451
     -5.427012904347
     -5.329267562701
     -5.545675027132
     -5.535130300231
     -5.724330042204
     -5.615789634234
     -5.853446269128
     -5.714078915327
     -5.841777734004
     -5.772482475014
     -6.018938000348
     -6.255679943740
     -6.414642569524
     -6.348988718745
     -6.595444149311
     -6.504219138736
     -6.720626034040
     -6.664748582160
     -6.550942817789
     -6.788598979899
     -6.705070854763
     -6.733679164038
     -6.857829384166
     -6.923380383042
     -6.993428271001
     -7.182627353062
     -7.112954748728
     -7.209763341218
     -7.086065947620
     -7.332520996454
     -7.496829227992
     -7.624527345209
     -7.446465570979
     -7.682767890036
     -7.725894263566
     -7.963549855804
     -7.962516954905
     -8.178923184961
     -8.038430496221
     -8.197392394257
     -8.022971276982
     -8.259273472602
     -8.021218065613
     -8.267672643271
     -8.804197288391
     -8.844519443408
     -8.873127394439
     -8.776178148892
     -8.965376488819
     -8.760048899394
     -8.996350715785
     -8.997277115217
     -9.062827541934
     -9.252402511343
     -9.349210407718
     -9.184191928012
     -9.421846853415
     -9.196169370010
     -9.442623379334
     -9.234362775595
     -9.446202871475
     -9.636276669514
     -9.763974035671
     -9.695200918067
     -9.931502266249
     -9.745267607803
     -9.961673088923
     -9.810868896914
    -10.022708449380
    -10.177877213548
    -10.336838331918
    -10.547945501149
    -10.759784797132
    -10.654467817333
    -10.900921161096
    -10.870152102695
    -11.106452885899
    -10.915625600213
    -11.104823144461
    -10.966941462589
    -11.204595636533
    -11.023611433695
    -11.202158664356
    -11.315449014182
    -11.355771099079
    -11.384378689728
    -11.508528385332
    -11.574078236413
    -11.483098384612
    -11.694937342958
    -11.600116490991
    -11.778663706426
    -11.763653336444
    -11.860460532377
    -11.884713926135
    -12.101118603603
    -12.147527171994
    -12.275223782212
    -12.337194015857
    -12.515741055277
    -12.328449461882
    -12.564749583140
    -12.437217166070
    -12.683669759235
    -12.658049473835
    -12.869887992323
    -12.689127464813
    -12.848087798129
    -12.702726021672
    -12.845078369826
    -13.106388546766
    -13.344041913690
    -13.279232046179
    -13.421584404122
    -13.272345917862
    -13.450892687343
    -13.426875636401
    -13.616072379035
    -14.016308615554
    -14.158660781999
    -14.187585727317
    -14.116346727509
    -14.328184690057
    -14.111199600697
    -14.347498975073
    -14.186592617462
    -14.295207651695
    -14.227907809672
    -14.256515066933
    -14.380664739290
    -14.446214057811
    -14.395963776441
    -14.612367643747
    -14.447296966546
    -14.625843341404
    -14.635789279018
    -14.732595826866
    -14.576664051027
    -14.823115837553
    -14.763098650517
    -14.871713694290
    -14.951461454118
    -15.093813327214
    -15.019662816246
    -15.147358726899
    -15.430025255837
    -15.509864625368
    -15.500176164968
    -15.608790987964
    -15.561262876875
    -15.720222483477
    -15.617638213879
    -15.855290766721
    -15.905594171260
    -16.084140013554
    -15.899096753525
    -16.110934048518
    -16.006530344067
    -16.086369696374
    -16.126411537770
    -16.268762987999
    -16.250645367899
    -16.486943939273
    -16.299011797735
    -16.488207798043
    -16.426418204431
    -16.483111591982
    -16.435328050703
    -16.543942540478
    -16.743608805491
    -16.823447893681
    -17.002923294157
    -17.059616616198
    -17.087912569079
    -17.334363541460
    -17.196632773330
    -17.235505706457
    -17.268098818051
    -17.484501934770
    -17.376554828412
    -17.416876040295
    -17.445483024921
    -17.569632678504
    -17.635181561475
    -17.584710615608
    -17.727061506742
    -17.610279075560
    -17.718893100478
    -17.678759741571
    -17.758598447270
    -17.740001755749
    -17.796694764377
    -17.688345087936
    -17.866890273533
    -17.775612189999
    -17.801151668823
    -17.773137863492
    -17.812010677227
    -17.824756881788
    -17.921562899571
    -18.038542404767
    -18.250378947812
    -18.201765665442
    -18.217514529956
    -18.208630175055
    -18.336325513467
    -18.352117280200
    -18.377656600459
    -18.510592048581
    -18.519258384724
    -18.510214429836
    -18.549086889988
    -18.489774033963
    -18.727425832227
    -18.675152691990
    -18.731845273614
    -18.731882438250
    -18.735480306944
    -18.778270755971
    -18.794019442982
    -18.750230045926
    -18.909189057969
    -18.761894662947
    -18.998192423547
    -18.889161313427
    -18.853710764073
    -18.933548961490
    -19.087099035378
    -19.095765188111
    -19.089195743581
    -19.114734686226
    -19.068576247938
    -19.177189678663
    -19.308389425201
    -19.311987110384
    -19.367459607316
    -19.509809821350
    -19.445367263307
    -19.484239266618
    -19.465667753308
    -19.515349219739
    -19.531097517245
    -19.487977856349
    -19.677173249165
    -19.824175603348
    -19.832841361113
    -19.850103714525
    -19.906795754562
    -19.827790674648
    -20.006335117734
    -20.024346681727
    -20.049885151356
    -20.045465993309
    -20.049063281048
    -19.960047255138
    -20.206497472569
    -20.202742937520
    -20.312007933270
    -20.391845504284
    -20.450500158541
    -20.466247975157
    -20.457066632479
    -20.673469134751
    -20.620318287226
    -20.659189728640
    -20.549791587168
    -20.761627342414
    -20.759328438695
    -20.767993711880
    -20.802882866158
    -20.843206130741
    -20.871812935826
    -20.851325228122
    -20.959937956411
    -20.980618829033
    -20.984215630474
    -20.995962577073
    -21.061511173263
    -21.137894089148
    -21.199297706714
    -21.224835603703
    -21.251086558856
    -21.347892227604
    -21.308400883927
    -21.365092274745
    -21.506905161105
    -21.649254618736
    -21.625451184165
    -21.641198422841
    -21.634959691615
    -21.762654653188
    -21.634029190386
    -21.870326198946
    -21.678739813609
    -21.916390993955
    -21.934279464782
    -21.942944157479
    -22.078615458014
    -22.117486236660
    -22.094758806005
    -22.174595652553
    -22.155569855448
    -22.159166075181
    -22.176559437702
    -22.335518058159
    -22.312843113635
    -22.339039788923
    -22.517583461485
    -22.657596774962
    -22.683134001959
    -22.914307141143
    -23.103502133785
    -22.990772665295
    -23.099384620121
    -23.083748356895
    -23.099494921936
    -23.091151756748
    -23.147842407851
    -23.149014778700
    -23.395464377727
    -23.392576638041
    -23.401240655305
    -23.421926014177
    -23.633761012550
    -23.613867029084
    -23.617462572507
    -23.771137978111
    -23.861366332491
    -23.900236362318
    -23.883393928772
    -24.099796026204
    -24.018154241275
    -24.160502919529
    -24.234204342936
    -24.314040401353
    -24.356725153426
    -24.397046739977
    -24.425653482323
    -24.440345754651
    -24.465882227879
    -24.549805015345
    -24.615353511296
    -24.804927023538
    -24.901732570291
    -24.866499233531
    -24.882245042253
    -24.822996584050
    -25.059292976473
    -25.175325619119
    -25.183988878781
    -25.105068914763
    -25.342719687893
    -25.188801996432
    -25.316496826271
    -25.230597293756
    -25.287287146528
    -25.211174149436
    -25.389717096597
    -25.396616010589
    -25.400210795768
    -25.553886292550
    -25.502021732160
    -25.610632896457
    -25.730401698813
    -25.889360182362
    -26.000811871267
    -26.039681096568
    -26.468147468876
    -26.657342321578
    -26.579791294873
    -26.605326960141
    -26.575341883428
    -26.821791074847
    -26.610893329784
    -26.822727680859
    -26.745453405500
    -26.825288663703
    -26.890288569511
    -27.032636516970
    -27.005944774606
    -27.021689773566
    -27.314773056957
    -27.323435505933
    -27.536061552637
    -27.539655526663
    -27.437236120378
    -27.653638076207
    -27.693329128454
    -27.741846356385
    -27.798535402109
    -27.910566505766
    -27.950888341621
    -27.979495146721
    -28.103644787850
    -28.169193384023
    -28.249323603170
    -28.485619589441
    -28.358768769725
    -28.455574438431
    -28.374156047893
    -28.482766474274
    -28.400141406680
    -28.578683754698
    -28.512060935673
    -28.550929349692
    -28.658909178314
    -28.896559808990
    -28.742641902509
    -28.870336863999
    -29.091040360727
    -29.116575212326
    -29.284241648646
    -29.443200268970
    -29.517193841411
    -29.532938025432
    -29.617587717301
    -29.697422231290
    -29.826020228149
    -29.834681861523
    -30.047310620530
    -30.050903778611
    -30.021989352123
    -30.211184344572
    -30.037220302493
    -30.249054194373
    -30.079255800062
    -30.221603145257
    -30.204575522074
    -30.129184008041
    -30.375633056867
    -30.613980668241
    -30.670668965230
    -30.991078035997
    -31.207480133183
    -31.336891868310
    -31.377215846493
    -31.405822831078
    -31.384195249174
    -31.423062911608
    -31.529972484600
    -31.595521367554
    -31.563123268126
    -31.671733087901
    -31.785094791770
    -31.881900809462
    -31.826466439851
    -32.005008391192
    -31.803165697830
    -32.039461542038
    -31.963174675564
    -31.988708773946
    -32.168969981354
    -32.296665319594
    -32.212753021948
    -32.450403794814
    -32.389328157041
    -32.405071586966
    -32.698156440509
    -32.706817319324
    -32.710569852328
    -32.869528864099
    -32.806554934299
    -32.886388837774
    -32.919446833271
    -32.923039236559
    -33.076707427282
    -33.448317662817
    -33.637513055242
    -33.505582711690
    -33.647929658576
    -33.591062388431
    -33.802896071315
    -33.683027886674
    -33.929477077862
    -33.802945989139
    -33.859633672768
    -34.417406438948
    -34.633808940728
    -34.525856906271
    -34.566181098121
    -34.594788355325
    -34.573162467559
    -34.612029514814
    -34.718936131430
    -34.784485449923
    -34.974060671363
    -35.070867219067
    -34.989448276689
    -35.098057695824
    -35.152141895046
    -35.177675377199
    -35.357936104847
    -35.485632015233
    -35.380310399269
    -35.558852211482
    -35.357005813954
    -35.593301800085
    -35.578295377166
    -35.594038190292
    -35.639077723750
    -35.876728903566
    -35.887123661075
    -35.895783922794
    -35.899536165630
    -36.058495771815
    -36.108410261826
    -36.112002047856
    -36.265672755906
    -36.232883733207
    -36.312717233936
    -36.637284138565
    -36.826480138274
    -37.059422872521
    -37.201769679686
    -37.109352688777
    -37.355802287337
    -37.144902534594
    -37.356736288910
    -37.229274787969
    -37.285962067318
    -37.397986754670
    -37.438311110455
    -37.466918701007
    -37.591070292682
    -37.656620143705
    -37.606369262635
    -37.822772378605
    -37.846195244129
    -37.943002439861
    -37.999487474996
    -38.038354116978
    -38.230067183612
    -38.357763793464
    -38.578470695488
    -38.604003771793
    -38.543292227609
    -38.651901506296
    -38.771667476706
    -38.930627809441
    -38.783334493976
    -39.019630886118
    -38.828044478413
    -39.065696275876
    -39.004624178012
    -39.020366584983
    -38.934150546779
    -39.112692497565
    -39.313448669962
    -39.322108525354
    -39.534739063359
    -39.538330442970
    -39.509415648309
    -39.698612390122
    -39.692000416962
    -39.786723890886
    -39.866557250562
    -39.909233109515
    -39.949557575382
    -39.978165526302
    -40.102317142935
    -40.167867569568
    -40.357442539519
    -40.454250435620
    -40.298319595583
    -40.544769812313
    -40.478504736564
    -40.694908602854
    -40.571231279182
    -40.783065375457
    -40.613266818603
    -40.755613764636
    -40.741314801770
    -40.869012167440
    -40.783114945667
    -40.839802083535
    -41.282915346032
    -41.441876463640
    -41.553331425384
    -41.592197925622
    -41.700180121830
    -41.937832673602
    -42.048677898271
    -41.972301530602
    -42.208598538743
    -42.089002426161
    -42.117610735307
    -42.020663732824
    -42.209861276015
    -42.132310853831
    -42.157843788246
    -42.097132383678
    -42.205741801978
    -42.241758584755
    -42.307309583541
    -42.360479316611
    -42.539021663441
    -42.496884423905
    -42.593693016037
    -42.558464336420
    -42.574206601416
    -42.867292620886
    -42.875952334259
    -42.880760799678
    -43.008458916274
    -43.088583014303
    -43.092174251879
    -42.989753006732
    -43.206157682920
    -43.245840340393
    -43.170455424816
    -43.416906396273
    -43.340564047711
    -43.420397547798
    -43.422361594091
    -43.581323491179
    -43.831426332412
    -43.760198406562
    -43.972033068089
    -43.871747092935
    -43.900355736908
    -44.024507402586
    -44.090058936044
    -44.039595606095
    -44.181942949468
    -44.160110195010
    -44.349308533649
    -44.279633655742
    -44.376442898193
    -44.211428575222
    -44.449081940823
    -44.336958894866
    -44.393646173791
    -44.663506539735
    -44.791205357648
    -44.844437518381
    -45.080735278432
    -45.107171581874
    -45.146038223607
    -45.129199653883
    -45.345605133479
    -45.205107568389
    -45.364070193037
    -45.289721349170
    -45.330042109808
    -45.358651052386
    -45.482802739784
    -45.548354749962
    -45.523461177886
    -45.632070995876
    -45.549446489672
    -45.727989434840
    -45.686151010081
    -45.711684086249
    -45.737929362511
    -45.834739184602
    -45.681704079060
    -45.928155864460
    -45.942856369829
    -46.132055450391
    -46.112304492629
    -46.128046899525
    -46.121806307432
    -46.249505750078
    -46.421132776878
    -46.429792632231
    -46.464668639182
    -46.350871612019
    -46.588525784421
    -46.504993177514
    -46.533602376863
    -46.642423170202
    -46.646014549798
    -46.657754083545
    -46.723306503547
    -46.632330708612
    -46.844166086637
    -46.663407545645
    -46.822370817887
    -46.799681199005
    -46.766892844152
    -46.846726746258
    -46.912877232171
    -47.009687552340
    -46.911946001723
    -47.128352230052
    -47.228559013442
    -47.370906957845
    -47.296754408828
    -47.424454387860
    -47.399819945790
    -47.440144462740
    -47.468753876723
    -47.355682551198
    -47.591981121904
    -47.401152733859
    -47.590352474165
    -47.592901807912
    -47.658454570293
    -47.763287691271
    -47.819975374007
    -47.848029015337
    -47.944839751358
    -47.838355827657
    -47.997319655331
    -47.821147315094
    -48.067599906966
    -48.136895269901
    -48.177219763770
    -48.205829353179
    -48.133621922528
    -48.371276846230
    -48.231906386331
    -48.359606812729
    -48.329981091144
    -48.395534133154
    -48.370242520269
    -48.586649413719
    -48.421578852031
    -48.600122521485
    -48.533500377403
    -48.572367424131
    -48.585104724618
    -48.681915800028
    -48.576104962932
    -48.765305268412
    -48.713399274477
    -48.712428387915
    -48.821038811314
    -48.753724501776
    -48.782334409068
    -48.773507956900
    -48.932472247217
    -48.851023375827
    -48.871253792713
    -48.899706896090
    -48.906482630781
    -48.972036110404
    -48.968982255132
    -49.096683046147
    -49.112479804788
    -49.138013286650
    -49.129429731578
    -49.175783263985
    -49.161610613220
    -49.258422128793
    -49.240976514141
    -49.143579646550
    -49.355415812238
    -49.490866437256
    -49.559322749112
    -49.538633286912
    -49.554376099885
    -49.510583950065
    -49.669548616877
    -49.511257221621
    -49.700457997204
    -49.545488535305
    -49.673189700110
    -49.495129749297
    -49.731429122910
    -49.545194882283
    -49.761602344832
    -49.655605524874
    -49.591918592719
    -49.829574183191
    -49.603897811288
    -49.850351153652
    -49.847461570949
    -49.856121832585
    -49.955860057403
    -50.035694569123
    -49.979800648893
    -50.070099213067
    -50.068751964040
    -50.072343750029
    -50.087090512526
    -50.246055462438
    -50.100695200431
    -50.243043873928
    -50.197101245112
    -50.226011536011
    -50.248333321005
    -50.437534478583
    -50.480347252331
    -50.696755187632
    -50.627730991367
    -50.740136354018
    -50.766867292548
    -51.004523452929
    -50.898229786767
    -50.824840085425
    -51.014041429028
    -50.952251112099
    -51.008939407615
    -50.932827858184
    -51.111372296585
    -51.062194646616
    -51.308648654522
    -51.217423442495
    -51.433831761458
    -51.283026955282
    -51.494863906419
    -51.277880403398
    -51.514180523841
    -51.468313549269
    -51.602099206354
    -51.584560795086
    -51.693171954760
    -51.722467589275
    -51.761335250845
    -51.790266882660
    -51.702019771129
    -51.939676404436
    -51.793930339533
    -52.010338754062
    -52.301447015564
    -52.326981113475
    -52.237143487921
    -52.483598064222
    -52.439096049632
    -52.676753066392
    -52.529936692551
    -52.682960599644
    -52.611944240739
    -52.754293691179
    -52.727600497043
    -52.743343926721
    -52.736177378860
    -52.972478161248
    -52.827992468401
    -52.907827723109
    -52.898181576729
    -53.036428780587
    -53.045089659280
    -53.015603020733
    -53.253260063079
    -53.072275236795
    -53.250820415581
    -53.065777713185
    -53.277615389744
    -53.257715380991
    -53.261307784216
    -53.172296083897
    -53.418751131514
    -53.414980928940
    -53.824387315427
    -53.881076358905
    -53.823879159139
    -53.991928066749
    -53.911126339931
    -54.147427687341
    -53.909372457878
    -54.155827887419
    -54.095809848557
    -54.204421796388
    -54.228284325975
    -54.485879449547
    -54.732334874058
    -54.594599998565
    -54.633468411285
    -54.524074783211
    -54.735913086240
    -54.751391652111
    -54.893741855538
    -54.855026061305
    -55.033571894431
    -54.846279035284
    -55.082580850986
    -55.173579423621