# vtk DataFile Version 3.0
TriPan results file. Generated by TriPan, USU AeroLab (c) 2021.
ASCII
DATASET POLYDATA
POINTS                 144 float
  0.000000000000E+00  0.000000000000E+00  0.000000000000E+00
  0.750993072987E+00  0.000000000000E+00 -0.543790996075E+00
  0.750993072987E+00  0.000000000000E+00  0.543790996075E+00
  0.192375373840E+01  0.192375373840E+01  0.000000000000E+00
  0.267474675179E+01  0.192375373840E+01 -0.543790996075E+00
  0.267474675179E+01  0.192375373840E+01  0.543790996075E+00
  0.359246444702E+01  0.000000000000E+00 -0.103884494305E+01
  0.359246444702E+01  0.000000000000E+00  0.103884494305E+01
  0.547033166885E+01  0.547033166885E+01  0.000000000000E+00
  0.551621818542E+01  0.192375373840E+01 -0.103884494305E+01
  0.551621818542E+01  0.192375373840E+01  0.103884494305E+01
  0.622132492065E+01  0.547033166885E+01 -0.543790996075E+00
  0.622132492065E+01  0.547033166885E+01  0.543790996075E+00
  0.906279659271E+01  0.547033166885E+01 -0.103884494305E+01
  0.906279659271E+01  0.547033166885E+01  0.103884494305E+01
  0.939523696899E+01  0.000000000000E+00 -0.980761349201E+00
  0.939523696899E+01  0.000000000000E+00  0.980761349201E+00
  0.113189907074E+02  0.192375373840E+01 -0.980761349201E+00
  0.113189907074E+02  0.192375373840E+01  0.980761349201E+00
  0.113820018768E+02  0.113820018768E+02  0.000000000000E+00
  0.121329956055E+02  0.113820018768E+02 -0.543790996075E+00
  0.121329956055E+02  0.113820018768E+02  0.543790996075E+00
  0.148655681610E+02  0.547033166885E+01 -0.980761349201E+00
  0.148655681610E+02  0.547033166885E+01  0.980761349201E+00
  0.149744663239E+02  0.113820018768E+02 -0.103884494305E+01
  0.149744663239E+02  0.113820018768E+02  0.103884494305E+01
  0.151765298843E+02  0.000000000000E+00 -0.411069482565E+00
  0.151765298843E+02  0.000000000000E+00  0.411069482565E+00
  0.171002845764E+02  0.192375373840E+01 -0.411069482565E+00
  0.171002845764E+02  0.192375373840E+01  0.411069482565E+00
  0.180493259430E+02  0.000000000000E+00 -0.101516798139E+00
  0.180493259430E+02  0.000000000000E+00  0.101516798139E+00
  0.190003013611E+02  0.000000000000E+00  0.000000000000E+00
  0.197561950684E+02  0.197561950684E+02  0.000000000000E+00
  0.199730796814E+02  0.192375373840E+01 -0.101516798139E+00
  0.199730796814E+02  0.192375373840E+01  0.101516798139E+00
  0.205071868896E+02  0.197561950684E+02 -0.543790996075E+00
  0.205071868896E+02  0.197561950684E+02  0.543790996075E+00
  0.206468620300E+02  0.547033166885E+01 -0.411069482565E+00
  0.206468620300E+02  0.547033166885E+01  0.411069482565E+00
  0.207772388458E+02  0.113820018768E+02 -0.980761349201E+00
  0.207772388458E+02  0.113820018768E+02  0.980761349201E+00
  0.209240550995E+02  0.192375373840E+01  0.000000000000E+00
  0.233486595154E+02  0.197561950684E+02 -0.103884494305E+01
  0.233486595154E+02  0.197561950684E+02  0.103884494305E+01
  0.235196590424E+02  0.547033166885E+01 -0.101516798139E+00
  0.235196590424E+02  0.547033166885E+01  0.101516798139E+00
  0.244706325531E+02  0.547033166885E+01  0.000000000000E+00
  0.265585327148E+02  0.113820018768E+02 -0.411069482565E+00
  0.265585327148E+02  0.113820018768E+02  0.411069482565E+00
  0.291514320374E+02  0.197561950684E+02 -0.980761349201E+00
  0.291514320374E+02  0.197561950684E+02  0.980761349201E+00
  0.292438049316E+02  0.292438049316E+02  0.000000000000E+00
  0.294313278198E+02  0.113820018768E+02 -0.101516798139E+00
  0.294313278198E+02  0.113820018768E+02  0.101516798139E+00
  0.299947986603E+02  0.292438049316E+02 -0.543790996075E+00
  0.299947986603E+02  0.292438049316E+02  0.543790996075E+00
  0.303823032379E+02  0.113820018768E+02  0.000000000000E+00
  0.328362693787E+02  0.292438049316E+02 -0.103884494305E+01
  0.328362693787E+02  0.292438049316E+02  0.103884494305E+01
  0.349327239990E+02  0.197561950684E+02 -0.411069482565E+00
  0.349327239990E+02  0.197561950684E+02  0.411069482565E+00
  0.376179962158E+02  0.376179962158E+02  0.000000000000E+00
  0.378055191040E+02  0.197561950684E+02 -0.101516798139E+00
  0.378055191040E+02  0.197561950684E+02  0.101516798139E+00
  0.383689918518E+02  0.376179962158E+02 -0.543790996075E+00
  0.383689918518E+02  0.376179962158E+02  0.543790996075E+00
  0.386390419006E+02  0.292438049316E+02 -0.980761349201E+00
  0.386390419006E+02  0.292438049316E+02  0.980761349201E+00
  0.387564964294E+02  0.197561950684E+02  0.000000000000E+00
  0.412104606628E+02  0.376179962158E+02 -0.103884494305E+01
  0.412104606628E+02  0.376179962158E+02  0.103884494305E+01
  0.435296669006E+02  0.435296669006E+02  0.000000000000E+00
  0.442806625366E+02  0.435296669006E+02 -0.543790996075E+00
  0.442806625366E+02  0.435296669006E+02  0.543790996075E+00
  0.444203338623E+02  0.292438049316E+02 -0.411069482565E+00
  0.444203338623E+02  0.292438049316E+02  0.411069482565E+00
  0.470132331848E+02  0.376179962158E+02 -0.980761349201E+00
  0.470132331848E+02  0.376179962158E+02  0.980761349201E+00
  0.470762481689E+02  0.470762481689E+02  0.000000000000E+00
  0.471221313477E+02  0.435296669006E+02 -0.103884494305E+01
  0.471221313477E+02  0.435296669006E+02  0.103884494305E+01
  0.472931327820E+02  0.292438049316E+02 -0.101516798139E+00
  0.472931327820E+02  0.292438049316E+02  0.101516798139E+00
  0.478272399902E+02  0.470762481689E+02 -0.543790996075E+00
  0.478272399902E+02  0.470762481689E+02  0.543790996075E+00
  0.482441062927E+02  0.292438049316E+02  0.000000000000E+00
  0.490000000000E+02  0.490000000000E+02  0.000000000000E+00
  0.497509918213E+02  0.490000000000E+02 -0.543790996075E+00
  0.497509918213E+02  0.490000000000E+02  0.543790996075E+00
  0.501355133057E+02  0.493845176697E+02 -0.384518325329E+00
  0.501355133057E+02  0.493845176697E+02  0.384518325329E+00
  0.502947845459E+02  0.495437927246E+02 -0.938680429840E-15
  0.506687088013E+02  0.470762481689E+02 -0.103884494305E+01
  0.506687088013E+02  0.470762481689E+02  0.103884494305E+01
  0.525924644470E+02  0.490000000000E+02 -0.103884494305E+01
  0.525924644470E+02  0.490000000000E+02  0.103884494305E+01
  0.527945289612E+02  0.376179962158E+02 -0.411069482565E+00
  0.527945289612E+02  0.376179962158E+02  0.411069482565E+00
  0.529249038696E+02  0.435296669006E+02 -0.980761349201E+00
  0.529249038696E+02  0.435296669006E+02  0.980761349201E+00
  0.533270378113E+02  0.497345733643E+02 -0.734574317932E+00
  0.533270378113E+02  0.497345733643E+02  0.734574317932E+00
  0.536313095093E+02  0.500388450623E+02 -0.204183803501E-15
  0.556673240662E+02  0.376179962158E+02 -0.101516798139E+00
  0.556673240662E+02  0.376179962158E+02  0.101516798139E+00
  0.564714813232E+02  0.470762481689E+02 -0.980761349201E+00
  0.564714813232E+02  0.470762481689E+02  0.980761349201E+00
  0.566182975769E+02  0.376179962158E+02  0.000000000000E+00
  0.583952369690E+02  0.490000000000E+02 -0.980761349201E+00
  0.583952369690E+02  0.490000000000E+02  0.980761349201E+00
  0.587061996460E+02  0.435296669006E+02 -0.411069482565E+00
  0.587061996460E+02  0.435296669006E+02  0.411069482565E+00
  0.590887413025E+02  0.496935043335E+02 -0.693503022194E+00
  0.590887413025E+02  0.496935043335E+02  0.693503022194E+00
  0.593759994507E+02  0.499807624817E+02  0.000000000000E+00
  0.615789947510E+02  0.435296669006E+02 -0.101516798139E+00
  0.615789947510E+02  0.435296669006E+02  0.101516798139E+00
  0.622527770996E+02  0.470762481689E+02 -0.411069482565E+00
  0.622527770996E+02  0.470762481689E+02  0.411069482565E+00
  0.625299682617E+02  0.435296669006E+02  0.000000000000E+00
  0.641765289307E+02  0.490000000000E+02 -0.411069482565E+00
  0.641765289307E+02  0.490000000000E+02  0.411069482565E+00
  0.644672012329E+02  0.492906684875E+02 -0.290670007467E+00
  0.644672012329E+02  0.492906684875E+02  0.290670007467E+00
  0.645876007080E+02  0.494110679626E+02  0.400788329721E-15
  0.651255722046E+02  0.470762481689E+02 -0.101516798139E+00
  0.651255722046E+02  0.470762481689E+02  0.101516798139E+00
  0.660765457153E+02  0.470762481689E+02  0.000000000000E+00
  0.670493240356E+02  0.490000000000E+02 -0.101516798139E+00
  0.670493240356E+02  0.490000000000E+02  0.101516798139E+00
  0.671211090088E+02  0.490717849731E+02 -0.717832148075E-01
  0.671211090088E+02  0.490717849731E+02  0.717832148075E-01
  0.671508407593E+02  0.491015167236E+02 -0.511051538462E-16
  0.680002975464E+02  0.490000000000E+02  0.000000000000E+00
  0.190003013611E+02  0.000000000000E+00  0.000000000000E+00
  0.209240550995E+02  0.192375373840E+01  0.000000000000E+00
  0.244706325531E+02  0.547033166885E+01  0.000000000000E+00
  0.303823032379E+02  0.113820018768E+02  0.000000000000E+00
  0.387564964294E+02  0.197561950684E+02  0.000000000000E+00
  0.482441062927E+02  0.292438049316E+02  0.000000000000E+00
  0.566182975769E+02  0.376179962158E+02  0.000000000000E+00
  0.625299682617E+02  0.435296669006E+02  0.000000000000E+00
  0.660765457153E+02  0.470762481689E+02  0.000000000000E+00
POLYGONS                 256                1024
3                 135                  34                 136
3                  32                  30                  34
3                  30                  28                  34
3                  30                  26                  28
3                  26                  17                  28
3                  26                  15                  17
3                  15                   6                  17
3                  17                   6                   9
3                   6                   1                   9
3                   9                   1                   4
3                   1                   0                   4
3                   4                   0                   3
3                   0                   5                   3
3                   0                   2                   5
3                   2                  10                   5
3                   2                   7                  10
[...]
CELL_DATA                 256
SCALARS sigma float 1
LOOKUP_TABLE default
  0.000000000000E+00
  0.000000000000E+00
  0.000000000000E+00
  0.000000000000E+00
  0.000000000000E+00
  0.000000000000E+00
  0.000000000000E+00
  0.000000000000E+00
  0.000000000000E+00
  0.000000000000E+00
  0.000000000000E+00
  0.000000000000E+00
  0.000000000000E+00
  0.000000000000E+00
  0.000000000000E+00
  0.000000000000E+00
  0.000000000000E+00
  0.000000000000E+00
  0.000000000000E+00
  0.000000000000E+00
  0.000000000000E+00
  0.000000000000E+00
  0.000000000000E+00
  0.000000000000E+00
  0.000000000000E+00
  0.000000000000E+00
  0.000000000000E+00
  0.000000000000E+00
  0.000000000000E+00
  0.000000000000E+00
  0.000000000000E+00
  0.000000000000E+00
  0.000000000000E+00
  0.000000000000E+00
  0.000000000000E+00
  0.000000000000E+00
  0.000000000000E+00
  0.000000000000E+00
  0.000000000000E+00
  0.000000000000E+00
  0.000000000000E+00
  0.000000000000E+00
  0.000000000000E+00
  0.000000000000E+00
  0.000000000000E+00
  0.000000000000E+00
  0.000000000000E+00
  0.000000000000E+00
  0.000000000000E+00
  0.000000000000E+00
  0.000000000000E+00
  0.000000000000E+00
  0.000000000000E+00
  0.000000000000E+00
  0.000000000000E+00
  0.000000000000E+00
  0.000000000000E+00
  0.000000000000E+00
  0.000000000000E+00
  0.000000000000E+00
  0.000000000000E+00
  0.000000000000E+00
  0.000000000000E+00
  0.000000000000E+00
  0.000000000000E+00
  0.000000000000E+00
  0.000000000000E+00
  0.000000000000E+00
  0.000000000000E+00
  0.000000000000E+00
  0.000000000000E+00
  0.000000000000E+00
  0.000000000000E+00
  0.000000000000E+00
  0.000000000000E+00
  0.000000000000E+00
  0.000000000000E+00
  0.000000000000E+00
  0.000000000000E+00
  0.000000000000E+00
  0.000000000000E+00
  0.000000000000E+00
  0.000000000000E+00
  0.000000000000E+00
  0.000000000000E+00
  0.000000000000E+00
  0.000000000000E+00
  0.000000000000E+00
  0.000000000000E+00
  0.000000000000E+00
  0.000000000000E+00
  0.000000000000E+00
  0.000000000000E+00
  0.000000000000E+00
  0.000000000000E+00
  0.000000000000E+00
  0.000000000000E+00
  0.000000000000E+00
  0.000000000000E+00
  0.000000000000E+00
  0.000000000000E+00
  0.000000000000E+00
  0.000000000000E+00
  0.000000000000E+00
  0.000000000000E+00
  0.000000000000E+00
  0.000000000000E+00
  0.000000000000E+00
  0.000000000000E+00
  0.000000000000E+00
  0.000000000000E+00
  0.000000000000E+00
  0.000000000000E+00
  0.000000000000E+00
  0.000000000000E+00
  0.000000000000E+00
  0.000000000000E+00
  0.000000000000E+00
  0.000000000000E+00
  0.000000000000E+00
  0.000000000000E+00
  0.000000000000E+00
  0.000000000000E+00
  0.000000000000E+00
  0.000000000000E+00
  0.000000000000E+00
  0.000000000000E+00
  0.000000000000E+00
  0.000000000000E+00
  0.000000000000E+00
  0.000000000000E+00
  0.000000000000E+00
  0.000000000000E+00
  0.000000000000E+00
  0.000000000000E+00
  0.000000000000E+00
  0.000000000000E+00
  0.000000000000E+00
  0.000000000000E+00
  0.000000000000E+00
  0.000000000000E+00
  0.000000000000E+00
  0.000000000000E+00
  0.000000000000E+00
  0.000000000000E+00
  0.000000000000E+00
  0.000000000000E+00
  0.000000000000E+00
  0.000000000000E+00
  0.000000000000E+00
  0.000000000000E+00
  0.000000000000E+00
  0.000000000000E+00
  0.000000000000E+00
  0.000000000000E+00
  0.000000000000E+00
  0.000000000000E+00
  0.000000000000E+00
  0.000000000000E+00
  0.000000000000E+00
  0.000000000000E+00
  0.000000000000E+00
  0.000000000000E+00
  0.000000000000E+00
  0.000000000000E+00
  0.000000000000E+00
  0.000000000000E+00
  0.000000000000E+00
  0.000000000000E+00
  0.000000000000E+00
  0.000000000000E+00
  0.000000000000E+00
  0.000000000000E+00
  0.000000000000E+00
  0.000000000000E+00
  0.000000000000E+00
  0.000000000000E+00
  0.000000000000E+00
  0.000000000000E+00
  0.000000000000E+00
  0.000000000000E+00
  0.000000000000E+00
  0.000000000000E+00
  0.000000000000E+00
  0.000000000000E+00
  0.000000000000E+00
  0.000000000000E+00
  0.000000000000E+00
  0.000000000000E+00
  0.000000000000E+00
  0.000000000000E+00
  0.000000000000E+00
  0.000000000000E+00
  0.000000000000E+00
  0.000000000000E+00
  0.000000000000E+00
  0.000000000000E+00
  0.000000000000E+00
  0.000000000000E+00
  0.000000000000E+00
  0.000000000000E+00
  0.000000000000E+00
  0.000000000000E+00
  0.000000000000E+00
  0.000000000000E+00
  0.000000000000E+00
  0.000000000000E+00
  0.000000000000E+00
  0.000000000000E+00
  0.000000000000E+00
  0.000000000000E+00
  0.000000000000E+00
  0.000000000000E+00
  0.000000000000E+00
  0.000000000000E+00
  0.000000000000E+00
  0.000000000000E+00
  0.000000000000E+00
  0.000000000000E+00
  0.000000000000E+00
  0.000000000000E+00
  0.000000000000E+00
  0.000000000000E+00
  0.000000000000E+00
  0.000000000000E+00
  0.000000000000E+00
  0.000000000000E+00
  0.000000000000E+00
  0.000000000000E+00
  0.000000000000E+00
  0.000000000000E+00
  0.000000000000E+00
  0.000000000000E+00
  0.000000000000E+00
  0.000000000000E+00
  0.000000000000E+00
  0.000000000000E+00
  0.000000000000E+00
  0.000000000000E+00
  0.000000000000E+00
  0.000000000000E+00
  0.000000000000E+00
  0.000000000000E+00
  0.000000000000E+00
  0.000000000000E+00
  0.000000000000E+00
  0.000000000000E+00
  0.000000000000E+00
  0.000000000000E+00
  0.000000000000E+00
  0.000000000000E+00
  0.000000000000E+00
  0.000000000000E+00
  0.000000000000E+00
  0.000000000000E+00
  0.000000000000E+00
SCALARS C_p float 1
LOOKUP_TABLE default
 -0.111154845707E+01
 -0.245457529290E+01
 -0.436559037663E+00
 -0.348556269593E+00
 -0.184585580379E+00
 -0.153949022414E+00
  0.102230861739E-01
 -0.404360542030E-01
  0.292325932694E+00
  0.212517632453E+00
  0.616570381809E+00
  0.615232142477E+00
 -0.531911494066E+00
  0.670483331275E-01
 -0.598202542557E+00
 -0.387885644194E+00
 -0.329274930301E+00
 -0.361701333642E+00
 -0.119309135414E+00
 -0.174761264482E-01
  0.265357516144E+00
  0.412374143604E+00
  0.552810880939E+00
  0.542586855360E+00
 -0.867563234155E+00
 -0.107784303954E+01
 -0.355108196754E+00
 -0.458779418582E+00
 -0.206728200618E+00
 -0.188771102046E+00
 -0.373831861919E-01
 -0.813545206685E-01
  0.200518350182E+00
  0.181764732100E+00
  0.523834707271E+00
  0.507944710077E+00
 -0.769410027072E+00
 -0.520937235753E+00
 -0.691334528297E+00
 -0.591952619769E+00
 -0.303041331138E+00
 -0.349127052249E+00
 -0.128442570935E-01
  0.615882018897E-01
  0.380008184128E+00
  0.347939042454E+00
  0.534258212435E+00
  0.519023176965E+00
 -0.801523591196E+00
 -0.862319023219E+00
 -0.320356764715E+00
 -0.356233161353E+00
 -0.195919584803E+00
 -0.211486653602E+00
 -0.799968709196E-01
 -0.945311383548E-01
  0.178145657347E+00
  0.167890172238E+00
  0.501720741808E+00
  0.497599220326E+00
 -0.834959437558E+00
 -0.767996343859E+00
 -0.705578405746E+00
 -0.697470611881E+00
 -0.274231609106E+00
 -0.316299715192E+00
  0.615452899610E-01
  0.730962001516E-01
  0.343273147045E+00
  0.332359469313E+00
  0.518035926025E+00
  0.513776219674E+00
 -0.776021281890E+00
 -0.799623255910E+00
 -0.308161225695E+00
 -0.320382877603E+00
 -0.189161067706E+00
 -0.196825895841E+00
 -0.951284561922E-01
 -0.944170728446E-01
  0.168270323781E+00
  0.165173665952E+00
  0.502320515714E+00
  0.503605849766E+00
 -0.821320388316E+00
 -0.835789841867E+00
 -0.695032808160E+00
 -0.711219008183E+00
 -0.266716513097E+00
 -0.278164148467E+00
  0.728539510600E-01
  0.737082124807E-01
  0.331780450007E+00
  0.328851225435E+00
  0.513950157226E+00
  0.512416747972E+00
 -0.745640973846E+00
 -0.774162316947E+00
 -0.297645616348E+00
 -0.307752664088E+00
 -0.185840212471E+00
 -0.189047410747E+00
 -0.946441197642E-01
 -0.953311646078E-01
  0.165440201048E+00
  0.162750735343E+00
  0.505343041080E+00
  0.506874250496E+00
 -0.804932090935E+00
 -0.821732838993E+00
 -0.686594109448E+00
 -0.696626749194E+00
 -0.262680393918E+00
 -0.267356894803E+00
  0.736661895929E-01
  0.747768661355E-01
  0.328947564110E+00
  0.327225967919E+00
  0.512872109769E+00
  0.511098833415E+00
 -0.649658568318E+00
 -0.743055269809E+00
 -0.265142361118E+00
 -0.296024056224E+00
 -0.181038676312E+00
 -0.184773617920E+00
 -0.947475482010E-01
 -0.102420573196E+00
  0.162152992289E+00
  0.154409907486E+00
  0.504514616744E+00
  0.507236592377E+00
 -0.783043243735E+00
 -0.804873005139E+00
 -0.674437246515E+00
 -0.686771213132E+00
 -0.255332479310E+00
 -0.263050459066E+00
  0.747750435756E-01
  0.794807187532E-01
  0.327995507527E+00
  0.327475507359E+00
  0.513361735203E+00
  0.508798272756E+00
 -0.236839883784E+00
 -0.645298058917E+00
 -0.161982071536E+00
 -0.259705604199E+00
 -0.168760247348E+00
 -0.177468136191E+00
 -0.100099489942E+00
 -0.127439574456E+00
  0.151710268003E+00
  0.128658220502E+00
  0.497821762926E+00
  0.504415582904E+00
 -0.742829787492E+00
 -0.782573801216E+00
 -0.652838527108E+00
 -0.673833065134E+00
 -0.240480816075E+00
 -0.256153126831E+00
  0.794512234428E-01
  0.898590921167E-01
  0.329269291307E+00
  0.340943399605E+00
  0.517686832543E+00
  0.532818081231E+00
 -0.241212889668E+02
 -0.162141345564E+01
  0.451194083802E+00
 -0.187482445520E+00
 -0.407585480885E+00
 -0.164746395260E+00
 -0.124363505543E+00
 -0.162188494911E+00
  0.118083607276E+00
  0.637176418098E-01
  0.476277388152E+00
  0.491816175289E+00
 -0.674048706850E+00
 -0.741879564778E+00
 -0.613343929751E+00
 -0.651924599559E+00
 -0.208735250287E+00
 -0.244490787475E+00
  0.900865046355E-01
 -0.140224792210E+00
  0.242822704861E+00
 -0.533404448220E-01
  0.324778261279E+00
 -0.186289424090E+02
 -0.939907715158E+08
 -0.300208181257E+05
 -0.176338445098E+05
  0.584650131532E+00
 -0.106362243769E+01
 -0.405095079382E+00
 -0.183480868774E+00
 -0.208405195723E+00
  0.223120572307E-01
 -0.679527761463E-02
  0.359049019454E+00
  0.418371444013E+00
 -0.549023459905E+00
 -0.672894588668E+00
 -0.436658108184E+00
 -0.635588693230E+00
 -0.212389227453E+00
 -0.219147558719E+00
 -0.143347447689E+00
 -0.136265292188E+01
  0.258567205316E+00
 -0.175999440442E+05
 -0.301127874841E+05
 -0.939944276829E+08
 -0.167065181534E+09
 -0.762303092463E+06
 -0.303030429219E+05
 -0.767644724222E+02
 -0.223017372635E+00
 -0.374019243640E+00
 -0.312405536802E+00
 -0.173056279500E+00
 -0.214574407256E+00
 -0.417484978640E-01
 -0.561403384850E+00
 -0.369913883571E+00
 -0.509080823829E+00
 -0.328401363406E+00
 -0.256544127964E+00
  0.684668051427E+00
 -0.887465027917E+02
 -0.304266172337E+05
 -0.761266078126E+06
 -0.167056444336E+09
 -0.115345682335E+09
 -0.108920641520E+07
 -0.317135175821E+05
 -0.971237353199E+02
 -0.232711747375E+00
 -0.540727929087E+00
 -0.467755206952E+00
 -0.357087810920E+00
 -0.411577318396E+00
 -0.293082295474E+00
 -0.472239724981E+00
 -0.466670244312E+00
 -0.448961028842E+00
 -0.492698864721E+00
 -0.383644265292E+00
  0.895483424512E+00
 -0.118553997238E+03
 -0.318477917369E+05
 -0.108712227960E+07
 -0.115336880614E+09
VECTORS v float
  0.224499901447E+03 -0.687152596323E+02  0.313007715573E+02
  0.283738715993E+03 -0.980602375891E+02  0.407571074528E+02
  0.193969600747E+03 -0.829112234363E+01  0.217942273982E+02
  0.187719748534E+03 -0.114283189906E+02  0.214588224832E+02
  0.176549252446E+03 -0.257817365564E+00  0.174226655816E+02
  0.174132757836E+03 -0.503453245607E+01  0.176552459012E+02
  0.162001916747E+03  0.709630863322E+01  0.155054749993E+01
  0.166009547033E+03 -0.900593554431E+01  0.175183986083E+01
  0.133757641949E+03  0.232459695396E+02 -0.192538415531E+02
  0.142504371948E+03  0.152378698379E+00 -0.248012052088E+02
  0.730302749470E+02  0.696264735471E+02 -0.246468015915E+01
  0.727464249741E+02  0.701957527517E+02 -0.184693141448E+01
  0.157728660955E+03 -0.147864832295E+02  0.124917516437E+03
  0.134833071914E+03  0.311320419684E+02  0.750894900647E+02
  0.199276090438E+03 -0.333109745590E+02  0.405223655140E+02
  0.188909945299E+03 -0.594171616221E+01  0.339479344971E+02
  0.187856042561E+03 -0.488781342384E+01 -0.192929428226E+01
  0.189778491301E+03 -0.126120137170E+02 -0.202585364976E+01
  0.171581373128E+03  0.558510445575E+01 -0.163573659975E+02
  0.163142248370E+03 -0.110966224388E+02 -0.171695943736E+02
  0.138389217244E+03  0.136564209582E+02 -0.134403448910E+02
  0.124135781457E+03  0.650172199648E+01 -0.126754389209E+02
  0.248608847996E+02  0.105776618653E+03  0.863776924573E+01
  0.748783163779E+02  0.809063254363E+02  0.643491058880E+00
  0.214086963103E+03 -0.544455945909E+02  0.286659558898E+02
  0.224547337227E+03 -0.620384407254E+02  0.305930863790E+02
  0.186805104800E+03 -0.242961930744E+02  0.227468130168E+02
  0.193771599044E+03 -0.255424530045E+02  0.236317767190E+02
  0.177842435262E+03 -0.961329136410E+01  0.184719899207E+02
  0.176450772097E+03 -0.104982064241E+02  0.184220546730E+02
  0.166010443473E+03 -0.578792033893E-01  0.166228211920E+01
  0.169270357025E+03 -0.865347925612E+01  0.178095170361E+01
  0.143018335149E+03  0.175985461492E+02 -0.218511999336E+02
  0.144999850713E+03  0.138911148496E+02 -0.228423522037E+02
  0.768282716273E+02  0.820626985183E+02  0.379023128304E+01
  0.734744150332E+02  0.870531617354E+02  0.983231231038E+01
  0.171528264318E+03 -0.110006875494E+02  0.132168432021E+03
  0.163261773296E+03  0.129966105960E+01  0.117276108727E+03
  0.203935710027E+03 -0.393742784055E+02  0.423905585991E+02
  0.199350217096E+03 -0.307947848420E+02  0.400968991936E+02
  0.185299862866E+03 -0.167444287233E+02 -0.202238853707E+01
  0.187854179993E+03 -0.234795424142E+02 -0.211537189663E+01
  0.163259685364E+03  0.111494890815E+01 -0.159778312183E+02
  0.157087572961E+03 -0.280970423971E+01 -0.157563652994E+02
  0.124404034233E+03  0.298738300934E+02 -0.101859264669E+02
  0.127890848646E+03  0.292500606139E+02 -0.106288460150E+02
  0.748934280689E+02  0.822475025685E+02  0.785052326413E+00
  0.840386001029E+02  0.756027509242E+02 -0.900531319219E+00
  0.210970058417E+03 -0.507517056017E+02  0.279388461535E+02
  0.214059405147E+03 -0.533271684442E+02  0.285436210376E+02
  0.184433769084E+03 -0.237015395504E+02  0.224272318008E+02
  0.186798210437E+03 -0.248968879044E+02  0.228107959979E+02
  0.176639548889E+03 -0.147382255368E+02  0.188584709051E+02
  0.177793011483E+03 -0.147525745218E+02  0.189735476983E+02
  0.169270599800E+03 -0.623016215075E+01  0.175669762053E+01
  0.170318510238E+03 -0.830698690220E+01  0.178797475671E+01
  0.145089151242E+03  0.169223700590E+02 -0.223297920565E+02
  0.146128967440E+03  0.153445701829E+02 -0.227858520705E+02
  0.737165222257E+02  0.877570212389E+02  0.101666703066E+02
  0.727696004404E+02  0.889679629555E+02  0.117291574487E+02
  0.174178403772E+03 -0.124408403765E+02  0.135130109326E+03
  0.171993829722E+03 -0.964717089036E+01  0.131525470885E+03
  0.204254509326E+03 -0.419078530973E+02  0.428875265189E+02
  0.203877906199E+03 -0.413364006484E+02  0.427223364578E+02
  0.182860744597E+03 -0.203192407409E+02 -0.203375603763E+01
  0.185299020615E+03 -0.251515926372E+02 -0.210653270069E+01
  0.157143482027E+03  0.300394822116E+01 -0.151889941228E+02
  0.156173098553E+03  0.301601971614E+01 -0.150921824715E+02
  0.127914090054E+03  0.312750304943E+02 -0.104131546354E+02
  0.129179174954E+03  0.306354649476E+02 -0.106183946803E+02
  0.840405306250E+02  0.757740983531E+02 -0.882446869744E+00
  0.864988867984E+02  0.737194760574E+02 -0.136420377664E+01
  0.209712884580E+03 -0.494206608189E+02  0.276624974293E+02
  0.210919766225E+03 -0.504814271633E+02  0.279046235162E+02
  0.183634851926E+03 -0.231965190791E+02  0.222867284796E+02
  0.184433603052E+03 -0.237160050927E+02  0.224287726539E+02
  0.176076843991E+03 -0.153592479352E+02  0.188642233055E+02
  0.176631970190E+03 -0.155262907439E+02  0.189353803563E+02
  0.170318419498E+03 -0.921274005181E+01  0.179704010715E+01
  0.170267574644E+03 -0.912665350771E+01  0.179566947478E+01
  0.146119448950E+03  0.150214721865E+02 -0.228404855334E+02
  0.146423047307E+03  0.146074689207E+02 -0.229654945143E+02
  0.725886334281E+02  0.884418659818E+02  0.114792358937E+02
  0.729281745344E+02  0.880368694884E+02  0.109401621249E+02
  0.173480595062E+03 -0.125155510390E+02  0.134679269067E+03
  0.173957181558E+03 -0.130839925845E+02  0.135435624675E+03
  0.203437215677E+03 -0.425640199886E+02  0.428594232341E+02
  0.204204360009E+03 -0.436101438667E+02  0.431753695249E+02
  0.182169530036E+03 -0.215753138934E+02 -0.203941007832E+01
  0.182860501556E+03 -0.227452130387E+02 -0.205803670133E+01
  0.156181920558E+03  0.393336795985E+01 -0.150026558219E+02
  0.156109582451E+03  0.395513547986E+01 -0.149933876374E+02
  0.129182012583E+03  0.308826992144E+02 -0.105920601351E+02
  0.129531842726E+03  0.306551792017E+02 -0.106542714199E+02
  0.864985372457E+02  0.736884748805E+02 -0.136747826956E+01
  0.874055460604E+02  0.728866776989E+02 -0.154988871908E+01
  0.208185044848E+03 -0.478723521172E+02  0.273342283326E+02
  0.209654595643E+03 -0.491852501635E+02  0.276311471187E+02
  0.182976334068E+03 -0.225069778615E+02  0.221414430288E+02
  0.183637520272E+03 -0.229640283135E+02  0.222619649623E+02
  0.175846666948E+03 -0.151731749890E+02  0.188232061343E+02
  0.176077783316E+03 -0.152615696541E+02  0.188546909373E+02
  0.170267542118E+03 -0.945132845565E+01  0.179891902462E+01
  0.170316708361E+03 -0.953057342150E+01  0.180020437308E+01
  0.146416053975E+03  0.143700809648E+02 -0.230056343064E+02
  0.146676614786E+03  0.140259863987E+02 -0.231109950670E+02
  0.728610145882E+02  0.878416014378E+02  0.108474122068E+02
  0.733050732183E+02  0.873224141377E+02  0.101498900584E+02
  0.172810447147E+03 -0.121829597909E+02  0.133952848315E+03
  0.173369969689E+03 -0.128371634745E+02  0.134832046055E+03
  0.202941779901E+03 -0.424089796322E+02  0.427461262700E+02
  0.203423059015E+03 -0.430445500089E+02  0.429406785556E+02
  0.181883348888E+03 -0.215048398818E+02 -0.203584009293E+01
  0.182169490892E+03 -0.219660366655E+02 -0.204332067608E+01
  0.156110903959E+03  0.409255026730E+01 -0.149799768379E+02
  0.156016643138E+03  0.412860203546E+01 -0.149671357594E+02
  0.129531368755E+03  0.306138764191E+02 -0.106586701000E+02
  0.129738403470E+03  0.304707611597E+02 -0.106963843346E+02
  0.874046211625E+02  0.728045604886E+02 -0.155855287073E+01
  0.884154638569E+02  0.718972288751E+02 -0.176332811305E+01
  0.203190188310E+03 -0.430418989099E+02  0.262853726338E+02
  0.208134044429E+03 -0.474058240760E+02  0.272789819649E+02
  0.180930218314E+03 -0.202019979612E+02  0.216726272487E+02
  0.182987433003E+03 -0.215399557981E+02  0.220384395320E+02
  0.175583807152E+03 -0.141363265745E+02  0.186951204314E+02
  0.175855850945E+03 -0.142181861989E+02  0.187300059809E+02
  0.170316793661E+03 -0.867912891464E+01  0.179168258419E+01
  0.170864466534E+03 -0.960640604123E+01  0.180644628486E+01
  0.146692510233E+03  0.145655502600E+02 -0.230197596663E+02
  0.147440910972E+03  0.135449870745E+02 -0.233279717256E+02
  0.733968121939E+02  0.875891027171E+02  0.102765846816E+02
  0.741927935761E+02  0.866396654729E+02  0.901269800023E+01
  0.172098731472E+03 -0.112662724229E+02  0.132773392192E+03
  0.172826968371E+03 -0.121349256289E+02  0.133930031947E+03
  0.202349858962E+03 -0.416578229449E+02  0.425121578846E+02
  0.202940193565E+03 -0.424628353504E+02  0.427552313938E+02
  0.181412625946E+03 -0.209352677321E+02 -0.202542712609E+01
  0.181883326109E+03 -0.217322206490E+02 -0.203811586178E+01
  0.156016698959E+03  0.413440650086E+01 -0.149665692846E+02
  0.155617182410E+03  0.425462393251E+01 -0.149153443637E+02
  0.129734575545E+03  0.301372425875E+02 -0.107319093298E+02
  0.129796203830E+03  0.300971617968E+02 -0.107428845316E+02
  0.884107918347E+02  0.714825737921E+02 -0.180709396692E+01
  0.906084463768E+02  0.695398430231E+02 -0.224908173536E+01
  0.178728440530E+03 -0.214710872930E+02  0.213713787238E+02
  0.203162925260E+03 -0.418861791382E+02  0.261590887501E+02
  0.174078490847E+03 -0.128017447249E+02  0.201369316199E+02
  0.180975137017E+03 -0.162883586208E+02  0.212557604640E+02
  0.174968152863E+03 -0.102813744659E+02  0.182545839374E+02