# vtk DataFile Version 3.0
MachLine results file. Generated by MachLine, USU AeroLab (c) 2022.
ASCII
DATASET POLYDATA
POINTS                 482 float
  0.000000000000E+00  0.000000000000E+00  0.000000000000E+00
  0.473465979099E+00  0.000000000000E+00 -0.436293870211E+00
  0.473465979099E+00  0.000000000000E+00  0.436293870211E+00
  0.757896304131E+00  0.757896304131E+00  0.000000000000E+00
  0.123136246204E+01  0.757896304131E+00 -0.436293989420E+00
  0.123136246204E+01  0.757896304131E+00  0.436293989420E+00
  0.157641971111E+01  0.000000000000E+00 -0.760520398617E+00
  0.157641971111E+01  0.000000000000E+00  0.760520398617E+00
  0.178897356987E+01  0.178897356987E+01  0.000000000000E+00
  0.226243972778E+01  0.178897356987E+01 -0.436294138432E+00
  0.226243972778E+01  0.178897356987E+01  0.436294138432E+00
  0.233431649208E+01  0.757896304131E+00 -0.760520577431E+00
  0.233431649208E+01  0.757896304131E+00  0.760520577431E+00
  0.317279767990E+01  0.317279767990E+01  0.000000000000E+00
  0.336539411545E+01  0.178897356987E+01 -0.760520815849E+00
  0.336539411545E+01  0.178897356987E+01  0.760520815849E+00
  0.342464399338E+01  0.000000000000E+00 -0.102348911762E+01
  0.342464399338E+01  0.000000000000E+00  0.102348911762E+01
  0.364626431465E+01  0.317279767990E+01 -0.436294317245E+00
  0.364626431465E+01  0.317279767990E+01  0.436294317245E+00
  0.418254137039E+01  0.757896304131E+00 -0.102348935604E+01
  0.418254137039E+01  0.757896304131E+00  0.102348935604E+01
  0.474921894073E+01  0.317279767990E+01 -0.760521173477E+00
  0.474921894073E+01  0.317279767990E+01  0.760521173477E+00
  0.499661636353E+01  0.499661636353E+01  0.000000000000E+00
  0.521361970901E+01  0.178897356987E+01 -0.102348971367E+01
  0.521361970901E+01  0.178897356987E+01  0.102348971367E+01
  0.547008323669E+01  0.499661636353E+01 -0.436294585466E+00
  0.547008323669E+01  0.499661636353E+01  0.436294585466E+00
  0.611307668686E+01  0.000000000000E+00 -0.114008128643E+01
  0.611307668686E+01  0.000000000000E+00  0.114008128643E+01
  0.657303857803E+01  0.499661636353E+01 -0.760521650314E+00
  0.657303857803E+01  0.499661636353E+01  0.760521650314E+00
  0.659744548798E+01  0.317279767990E+01 -0.102349019051E+01
  0.659744548798E+01  0.317279767990E+01  0.102349019051E+01
  0.687097454071E+01  0.757896304131E+00 -0.114008152485E+01
  0.687097454071E+01  0.757896304131E+00  0.114008152485E+01
  0.734362459183E+01  0.734362459183E+01  0.000000000000E+00
  0.781709194183E+01  0.734362459183E+01 -0.436294913292E+00
  0.781709194183E+01  0.734362459183E+01  0.436294913292E+00
  0.790205335617E+01  0.178897356987E+01 -0.114008200169E+01
  0.790205335617E+01  0.178897356987E+01  0.114008200169E+01
  0.842126560211E+01  0.499661636353E+01 -0.102349078655E+01
  0.842126560211E+01  0.499661636353E+01  0.102349078655E+01
  0.892004776001E+01  0.734362459183E+01 -0.760522186756E+00
  0.892004776001E+01  0.734362459183E+01  0.760522186756E+00
  0.928588008881E+01  0.317279767990E+01 -0.114008247852E+01
  0.928588008881E+01  0.317279767990E+01  0.114008247852E+01
  0.939508819580E+01  0.000000000000E+00 -0.980745851994E+00
  0.939508819580E+01  0.000000000000E+00  0.980745851994E+00
  0.101529865265E+02  0.757896304131E+00 -0.980746090412E+00
  0.101529865265E+02  0.757896304131E+00  0.980746090412E+00
  0.102728376389E+02  0.102728376389E+02  0.000000000000E+00
  0.107463054657E+02  0.102728376389E+02 -0.436295330524E+00
  0.107463054657E+02  0.102728376389E+02  0.436295330524E+00
  0.107682771683E+02  0.734362459183E+01 -0.102349150181E+01
  0.107682771683E+02  0.734362459183E+01  0.102349150181E+01
  0.111097030640E+02  0.499661636353E+01 -0.114008307457E+01
  0.111097030640E+02  0.499661636353E+01  0.114008307457E+01
  0.111840667725E+02  0.178897356987E+01 -0.980746388435E+00
  0.111840667725E+02  0.178897356987E+01  0.980746388435E+00
  0.118492631912E+02  0.102728376389E+02 -0.760522902012E+00
  0.118492631912E+02  0.102728376389E+02  0.760522902012E+00
  0.125678949356E+02  0.317279767990E+01 -0.980746865273E+00
  0.125678949356E+02  0.317279767990E+01  0.980746865273E+00
  0.126670312881E+02  0.000000000000E+00 -0.678052663803E+00
  0.126670312881E+02  0.000000000000E+00  0.678052663803E+00
  0.134249305725E+02  0.757896304131E+00 -0.678052842617E+00
  0.134249305725E+02  0.757896304131E+00  0.678052842617E+00
  0.134567155838E+02  0.734362459183E+01 -0.114008402824E+01
  0.134567155838E+02  0.734362459183E+01  0.114008402824E+01
  0.136974935532E+02  0.102728376389E+02 -0.102349245548E+01
  0.136974935532E+02  0.102728376389E+02  0.102349245548E+01
  0.137921218872E+02  0.137921218872E+02  0.000000000000E+00
  0.142655897141E+02  0.137921218872E+02 -0.436295837164E+00
  0.142655897141E+02  0.137921218872E+02  0.436295837164E+00
  0.143917188644E+02  0.499661636353E+01 -0.980747401714E+00
  0.143917188644E+02  0.499661636353E+01  0.980747401714E+00
  0.144560117722E+02  0.178897356987E+01 -0.678053081036E+00
  0.144560117722E+02  0.178897356987E+01  0.678053081036E+00
  0.153437566757E+02  0.000000000000E+00 -0.393031150103E+00
  0.153437566757E+02  0.000000000000E+00  0.393031150103E+00
  0.153685483932E+02  0.137921218872E+02 -0.760523796082E+00
  0.153685483932E+02  0.137921218872E+02  0.760523796082E+00
  0.158398418427E+02  0.317279767990E+01 -0.678053379059E+00
  0.158398418427E+02  0.317279767990E+01  0.678053379059E+00
  0.161016559601E+02  0.757896304131E+00 -0.393031239510E+00
  0.161016559601E+02  0.757896304131E+00  0.393031239510E+00
  0.163859348297E+02  0.102728376389E+02 -0.114008510113E+01
  0.163859348297E+02  0.102728376389E+02  0.114008510113E+01
  0.167387351990E+02  0.734362459183E+01 -0.980748176575E+00
  0.167387351990E+02  0.734362459183E+01  0.980748176575E+00
  0.171327381134E+02  0.178897356987E+01 -0.393031388521E+00
  0.171327381134E+02  0.178897356987E+01  0.393031388521E+00
  0.172004318237E+02  0.000000000000E+00 -0.192506864667E+00
  0.172004318237E+02  0.000000000000E+00  0.192506864667E+00
  0.172167816162E+02  0.137921218872E+02 -0.102349364758E+01
  0.172167816162E+02  0.137921218872E+02  0.102349364758E+01
  0.176636676788E+02  0.499661636353E+01 -0.678053736687E+00
  0.176636676788E+02  0.499661636353E+01  0.678053736687E+00
  0.178320064545E+02  0.178320064545E+02  0.000000000000E+00
  0.179583320618E+02  0.757896304131E+00 -0.192506924272E+00
  0.179583320618E+02  0.757896304131E+00  0.192506924272E+00
  0.183054752350E+02  0.178320064545E+02 -0.436296403408E+00
  0.183054752350E+02  0.178320064545E+02  0.436296403408E+00
  0.183450412750E+02  0.000000000000E+00 -0.698660761118E-01
  0.183450412750E+02  0.000000000000E+00  0.698660761118E-01
  0.185165691376E+02  0.317279767990E+01 -0.393031567335E+00
  0.185165691376E+02  0.317279767990E+01  0.393031567335E+00
  0.189894161224E+02  0.178897356987E+01 -0.192506983876E+00
  0.189894161224E+02  0.178897356987E+01  0.192506983876E+00
  0.190000000000E+02  0.000000000000E+00  0.000000000000E+00
  0.191029415131E+02  0.757896304131E+00 -0.698660910130E-01
  0.191029415131E+02  0.757896304131E+00  0.698660910130E-01
  0.194084339142E+02  0.178320064545E+02 -0.760524809361E+00
  0.194084339142E+02  0.178320064545E+02  0.760524809361E+00
  0.196679573059E+02  0.102728376389E+02 -0.980749070644E+00
  0.196679573059E+02  0.102728376389E+02  0.980749070644E+00
  0.197579002380E+02  0.757896304131E+00  0.000000000000E+00
  0.199052257538E+02  0.137921218872E+02 -0.114008641243E+01
  0.199052257538E+02  0.137921218872E+02  0.114008641243E+01
  0.200106849670E+02  0.734362459183E+01 -0.678054273129E+00
  0.200106849670E+02  0.734362459183E+01  0.678054273129E+00
  0.201340255737E+02  0.178897356987E+01 -0.698661133647E-01
  0.201340255737E+02  0.178897356987E+01  0.698661133647E-01
  0.203403968811E+02  0.499661636353E+01 -0.393031775951E+00
  0.203403968811E+02  0.499661636353E+01  0.393031775951E+00
  0.203732471466E+02  0.317279767990E+01 -0.192507073283E+00
  0.203732471466E+02  0.317279767990E+01  0.192507073283E+00
  0.207889842987E+02  0.178897356987E+01  0.000000000000E+00
  0.212566699982E+02  0.178320064545E+02 -0.102349495888E+01
  0.212566699982E+02  0.178320064545E+02  0.102349495888E+01
  0.215178565979E+02  0.317279767990E+01 -0.698661431670E-01
  0.215178565979E+02  0.317279767990E+01  0.698661431670E-01
  0.221728172302E+02  0.317279767990E+01  0.000000000000E+00
  0.221970767975E+02  0.499661636353E+01 -0.192507177591E+00
  0.221970767975E+02  0.499661636353E+01  0.192507177591E+00
  0.222339305878E+02  0.222339305878E+02  0.000000000000E+00
  0.226874179840E+02  0.734362459183E+01 -0.393032073975E+00
  0.226874179840E+02  0.734362459183E+01  0.393032073975E+00
  0.227074012756E+02  0.222339305878E+02 -0.436297029257E+00
  0.227074012756E+02  0.222339305878E+02  0.436297029257E+00
  0.229399108887E+02  0.102728376389E+02 -0.678054928780E+00
  0.229399108887E+02  0.102728376389E+02  0.678054928780E+00
  0.231872520447E+02  0.137921218872E+02 -0.980750203133E+00
  0.231872520447E+02  0.137921218872E+02  0.980750203133E+00
  0.233416862488E+02  0.499661636353E+01 -0.698661878705E-01
  0.233416862488E+02  0.499661636353E+01  0.698661878705E-01
  0.238103618622E+02  0.222339305878E+02 -0.760525882244E+00
  0.238103618622E+02  0.222339305878E+02  0.760525882244E+00
  0.239451179504E+02  0.178320064545E+02 -0.114008784294E+01
  0.239451179504E+02  0.178320064545E+02  0.114008784294E+01
  0.239966468811E+02  0.499661636353E+01  0.000000000000E+00
  0.245440979004E+02  0.734362459183E+01 -0.192507326603E+00
  0.245440979004E+02  0.734362459183E+01  0.192507326603E+00
  0.256166458130E+02  0.102728376389E+02 -0.393032461405E+00
  0.256166458130E+02  0.102728376389E+02  0.393032461405E+00
  0.256585998535E+02  0.222339305878E+02 -0.102349650860E+01
  0.256585998535E+02  0.222339305878E+02  0.102349650860E+01
  0.256887092590E+02  0.734362459183E+01 -0.698662400246E-01
  0.256887092590E+02  0.734362459183E+01  0.698662400246E-01
[...]
CELL_DATA                 904
SCALARS C_p_inc float 1
LOOKUP_TABLE default
  0.165659459338E+00
  0.142517047990E+00
  0.109335982372E+00
  0.921040260495E-01
  0.756565162351E-01
  0.666603216758E-01
  0.479184379957E-01
  0.410802767027E-01
  0.235527048783E-01
  0.188201401118E-01
  0.282501102820E-01
  0.224935807554E-01
  0.125161479810E+00
  0.929234220484E-01
  0.273259948131E+00
  0.228693784129E+00
  0.478416495705E+00
  0.434303683500E+00
  0.701291813060E+00
  0.693425803518E+00
 -0.282933175763E+00
  0.128808135574E+00
 -0.623066684896E+00
 -0.368395132186E+00
 -0.556355846516E+00
 -0.478021981158E+00
 -0.539933096123E+00
 -0.515902148847E+00
 -0.476777720981E+00
 -0.496968741799E+00
 -0.380371991437E+00
 -0.352279072430E+00
 -0.255328547765E+00
 -0.225205303771E+00
 -0.150514593018E+00
 -0.114070470290E+00
 -0.602216083728E-01
 -0.444007472481E-02
  0.563056626783E-01
  0.126892469785E+00
  0.160368136140E+00
  0.164260501396E+00
  0.112977314463E+00
  0.109138759004E+00
  0.847008528649E-01
  0.756458090188E-01
  0.542155067422E-01
  0.479643043780E-01
  0.257948992394E-01
  0.235039190631E-01
  0.224694319548E-01
  0.153867794034E-01
  0.942005659205E-01
  0.729069211175E-01
  0.225154774177E+00
  0.206215134414E+00
  0.402790204775E+00
  0.402346494219E+00
  0.577284349162E+00
  0.530920157580E+00
 -0.533771472971E+00
 -0.302440120657E+00
 -0.781451258327E+00
 -0.594575177333E+00
 -0.645736299455E+00
 -0.555244583439E+00
 -0.576740860744E+00
 -0.545302378511E+00
 -0.470422894340E+00
 -0.483418270476E+00
 -0.351910429789E+00
 -0.327478400904E+00
 -0.224682030644E+00
 -0.191886127233E+00
 -0.113904397771E+00
 -0.732150578862E-01
 -0.501047775157E-02
  0.286794015674E-01
  0.122599044413E+00
  0.133778651525E+00
  0.157510887041E+00
  0.159705462540E+00
  0.111145058287E+00
  0.112689010088E+00
  0.879984182180E-01
  0.846121597997E-01
  0.600055592382E-01
  0.542508244023E-01
  0.286656310449E-01
  0.258095591747E-01
  0.157379856937E-01
  0.121803787215E-01
  0.736156225511E-01
  0.633698557630E-01
  0.201697349281E+00
  0.195097907229E+00
  0.387304452070E+00
  0.393169020606E+00
  0.515106307826E+00
  0.465957280738E+00
 -0.740559476887E+00
 -0.540907135450E+00
 -0.922988938948E+00
 -0.761523932869E+00
 -0.724511807501E+00
 -0.639720296556E+00
 -0.609219368008E+00
 -0.581048354997E+00
 -0.466543050602E+00
 -0.479430310998E+00
 -0.327561917129E+00
 -0.302595071181E+00
 -0.191362233417E+00
 -0.158034902843E+00
 -0.731774362665E-01
 -0.436229005022E-01
  0.277655034089E-01
  0.429543767992E-01
  0.131685096731E+00
  0.136919250976E+00
  0.156204152363E+00
  0.156994374113E+00
  0.109507496698E+00
  0.110889992140E+00
  0.876175818356E-01
  0.878621771224E-01
  0.629534816350E-01
  0.600111259228E-01
  0.322049042589E-01
  0.287466369371E-01
  0.123531802772E-01
  0.130289758866E-01
  0.634785359862E-01
  0.618162860819E-01
  0.192348198671E+00
  0.194760608594E+00
  0.386684594968E+00
  0.395554660850E+00
  0.466922355731E+00
  0.417867063175E+00
 -0.921354681690E+00
 -0.742126759754E+00
 -0.104593418771E+01
 -0.910179356800E+00
 -0.790971257835E+00
 -0.721565780276E+00
 -0.636427484571E+00
 -0.615278758424E+00
 -0.461877875803E+00
 -0.476629866370E+00
 -0.303153001142E+00
 -0.278972044467E+00
 -0.157668218173E+00
 -0.131893900017E+00
 -0.437045165740E-01
 -0.270580235415E-01
  0.424864270321E-01
  0.508468141923E-01
  0.136129826802E+00
  0.139792409672E+00
  0.155944304691E+00
  0.155730243604E+00
  0.108670817027E+00
  0.109257922232E+00
  0.867690438985E-01
  0.874654014690E-01
  0.635171122449E-01
  0.629126863683E-01
  0.349637031434E-01
  0.323044492340E-01
  0.130674171031E-01
  0.167079961199E-01
  0.617835335460E-01
  0.662851787446E-01
  0.193773660979E+00
  0.201965857209E+00
  0.394532304745E+00
  0.404820791603E+00
  0.426518332448E+00
  0.379033293109E+00
 -0.107653092368E+01
 -0.920975879713E+00
 -0.114742855510E+01
 -0.103982191954E+01
 -0.843123249921E+00
 -0.791943522161E+00
 -0.656103094420E+00
 -0.643888889235E+00
 -0.456730112122E+00
 -0.471637586525E+00
 -0.279765397062E+00
 -0.261229287100E+00
 -0.131813592354E+00
 -0.116501073479E+00
 -0.270832977822E-01
 -0.180076278773E-01
  0.508012643647E-01
  0.557898665612E-01
  0.139797797703E+00
  0.142340487573E+00
  0.156082847229E+00
  0.155460865316E+00
  0.108386053491E+00
  0.108404631912E+00
  0.863003464943E-01
  0.865956093584E-01
  0.635259733128E-01
  0.634395312953E-01
  0.366241174961E-01
  0.350277956805E-01
  0.167294358534E-01
  0.210576222881E-01
  0.662781625072E-01
  0.736848660437E-01
  0.202079080437E+00
  0.212818055654E+00
  0.406719930580E+00
  0.416848577959E+00
  0.390689518890E+00
  0.347196260118E+00
 -0.120311400701E+01
 -0.107588967706E+01
 -0.122588490829E+01
 -0.114613787059E+01
 -0.881241406330E+00
 -0.846580850625E+00
 -0.669654301303E+00
 -0.663450466457E+00
 -0.453977860271E+00
 -0.464399830188E+00
 -0.262138162503E+00
 -0.251542127503E+00
 -0.116638549737E+00
 -0.108739103760E+00
 -0.179683905124E-01
 -0.130590355619E-01
  0.559943230089E-01
  0.590356497672E-01
  0.142797746803E+00
  0.144712947532E+00
  0.156356909651E+00
  0.155571378123E+00
  0.108294963334E+00
  0.108092141941E+00
  0.860762203333E-01
  0.861003660280E-01
  0.635896244125E-01
  0.634178078719E-01
  0.378326047834E-01
  0.366399382181E-01
  0.210881236263E-01
  0.248183014232E-01
  0.737034811443E-01
  0.810231863349E-01
  0.213319567703E+00
  0.223674255668E+00
  0.419584123395E+00
  0.428206240299E+00
  0.358236728681E+00
  0.321339702871E+00
 -0.130085510852E+01
 -0.120273850448E+01
 -0.128357321140E+01
 -0.122684678517E+01
 -0.908579045980E+00
 -0.885005110255E+00
 -0.680259859109E+00
 -0.675231263742E+00
 -0.454576063190E+00
 -0.458908367621E+00
 -0.252502357380E+00
 -0.247683661842E+00
 -0.108993520451E+00
 -0.105132272358E+00
 -0.130020742038E-01
 -0.102486629379E-01
  0.593477482833E-01
  0.613432421696E-01
  0.145377589744E+00
  0.146869817319E+00
  0.156271720084E+00
  0.155789535727E+00
  0.107892668639E+00
  0.107960534068E+00
  0.855986724783E-01
  0.858444816578E-01
  0.634031359682E-01
  0.634536291226E-01
  0.386046132912E-01
  0.378088577029E-01
  0.248402734040E-01
  0.276100291417E-01
  0.810205005426E-01
  0.867689406851E-01
  0.224093907532E+00
  0.232308678539E+00
  0.430469398357E+00
  0.436914522146E+00
  0.329652119284E+00
  0.300853236225E+00
 -0.137306375076E+01
 -0.130066830711E+01
 -0.132504132680E+01
 -0.128476495098E+01
 -0.928465880619E+00
 -0.911291080095E+00
 -0.689023933822E+00
 -0.683742412517E+00
 -0.456736201426E+00
 -0.457496802785E+00
 -0.248623178925E+00
 -0.246517524283E+00
 -0.105446047993E+00
 -0.103189781499E+00
 -0.102061126188E-01
 -0.814071140068E-02
  0.616861114326E-01
  0.635228130247E-01
  0.147627855412E+00
  0.149271990914E+00
  0.155386478651E+00
  0.155601283427E+00
  0.106595742597E+00
  0.107490654116E+00
  0.841910956843E-01
  0.853205157359E-01
  0.622701622669E-01
  0.632365056127E-01
  0.383315905571E-01
  0.385505809145E-01
  0.276144553181E-01
  0.289212303464E-01
  0.867170560883E-01
  0.902976218929E-01
  0.232484641257E+00
  0.237984618894E+00
  0.438295815906E+00
  0.442556398547E+00
  0.306150956622E+00
  0.285708726023E+00
 -0.142314930764E+01
 -0.137292462344E+01
 -0.135332622832E+01
 -0.132581393772E+01
 -0.942040737878E+00
 -0.930164847740E+00
 -0.695146313477E+00
 -0.691209047368E+00
 -0.458293037540E+00
 -0.458696145880E+00
 -0.247404261406E+00
 -0.245553417125E+00
 -0.103541460054E+00
 -0.101050328220E+00
 -0.812582855632E-02
 -0.545313064125E-02
  0.638741088255E-01
  0.664835822978E-01
  0.150101672906E+00
  0.152537178312E+00
  0.153420108041E+00
  0.154510259723E+00
  0.103796461064E+00
  0.106063527501E+00
  0.810615072040E-01
  0.838278758977E-01
  0.593022746624E-01
  0.620565288475E-01
  0.361244230601E-01
  0.382497997361E-01
  0.288996557228E-01
  0.279766203771E-01
  0.901661921018E-01
  0.910530231132E-01
  0.237870295777E+00
  0.240437572723E+00
  0.443080764606E+00
  0.445337817509E+00
  0.288578726861E+00
  0.276468034014E+00
 -0.145249457060E+01
 -0.142304256939E+01
 -0.136925250428E+01
 -0.135390281018E+01
 -0.948971646408E+00
 -0.943344752084E+00
 -0.697311031949E+00
 -0.696936074874E+00
 -0.457369231156E+00
 -0.460076359090E+00
 -0.246401413018E+00
 -0.242834767123E+00
 -0.101450672819E+00
 -0.970761651441E-01
 -0.547464573597E-02
 -0.842014904552E-03
  0.668584675959E-01
  0.713106396433E-01
  0.153503724922E+00
  0.157420408447E+00
  0.150060119328E+00
  0.152125939446E+00
  0.988462271821E-01
  0.103000342139E+00
  0.753293452961E-01
  0.805262813301E-01
  0.534667860391E-01
  0.589980597356E-01
  0.309172460095E-01
  0.360048787315E-01
  0.279058401302E-01
  0.238102920378E-01
  0.907861043622E-01
  0.883239082995E-01
  0.239950118023E+00
  0.239315154270E+00
  0.445000029402E+00
  0.445364735272E+00
  0.277332398111E+00
  0.273767750219E+00
 -0.146105686199E+01
 -0.145246152058E+01
 -0.137248534437E+01
 -0.137000911384E+01
 -0.948389684748E+00
 -0.950454930171E+00
 -0.694121157270E+00
 -0.699399310549E+00
 -0.452222155094E+00
 -0.459580132076E+00
 -0.243693725576E+00
 -0.236537412061E+00
 -0.975736451901E-01
 -0.894834739626E-01
 -0.923471691712E-03
  0.738512727303E-02
  0.717449770464E-01
  0.795648288137E-01
  0.158676436917E+00
  0.165298201425E+00
  0.145108708492E+00
  0.147976015344E+00
  0.914052129759E-01
  0.975354719093E-01
  0.663882243340E-01
  0.744484233041E-01
  0.438373693763E-01
  0.529761828252E-01
  0.215562047907E-01
  0.307274686451E-01
  0.236367635391E-01
  0.152717659598E-01
  0.878244978035E-01
  0.812047331996E-01
  0.238284233284E+00
  0.234081576467E+00
  0.443974988493E+00
  0.442486569289E+00
  0.272579853668E+00
  0.277841011874E+00
 -0.144869674081E+01
 -0.146113800476E+01
 -0.136253787812E+01
 -0.137373249901E+01
 -0.939397795631E+00
 -0.950518319576E+00
 -0.684183811236E+00
 -0.697124959820E+00
 -0.441019586359E+00
 -0.455511230982E+00
 -0.237479877718E+00
 -0.224644580795E+00
 -0.901790445900E-01
 -0.761408455352E-01
  0.717269088611E-02
  0.213307136172E-01
  0.800763080796E-01
  0.933204542105E-01
  0.167049872893E+00
  0.178388807128E+00
  0.139163465599E+00
  0.141694270806E+00
  0.820645945870E-01
  0.891752238778E-01
  0.547443801345E-01
  0.648511244319E-01
  0.304964750974E-01
  0.429631190365E-01
  0.734592533524E-02
  0.212153374378E-01
  0.148721437745E-01
  0.114729588934E-02
  0.803032999507E-01
  0.685502970134E-01
  0.232207155188E+00
  0.223988596714E+00
  0.439621151120E+00
  0.436299320276E+00
  0.274067583050E+00
  0.288232516915E+00
 -0.141621193133E+01
 -0.144891519673E+01
 -0.133942990718E+01
 -0.136452373258E+01
 -0.921352703252E+00
 -0.942614720300E+00
 -0.666120033843E+00
 -0.688824336310E+00
 -0.421667741713E+00
 -0.446319344930E+00
 -0.225751430023E+00
 -0.204899025439E+00
 -0.772254362610E-01
 -0.549703731506E-01
  0.207906972795E-01
  0.426885895491E-01
  0.937933193505E-01
  0.114099781571E+00
  0.180746350613E+00
  0.198345222604E+00
  0.131359825570E+00
  0.133634235142E+00
  0.707507663919E-01
  0.783244448506E-01
  0.414222167547E-01
  0.520710306459E-01
  0.152490769048E-01
  0.288671602190E-01
 -0.105085387927E-01
  0.665247164867E-02
  0.223673237019E-03
 -0.190666252404E-01
  0.669242078403E-01
  0.489511366038E-01
  0.220748362119E+00
  0.207932846541E+00
  0.431210210532E+00
  0.426091335460E+00
  0.280796687036E+00
  0.303716952981E+00
 -0.136575462820E+01
 -0.141656540785E+01
 -0.130394897280E+01
 -0.134235287309E+01
 -0.893919472318E+00
 -0.926157148352E+00
 -0.638448008609E+00
 -0.673433880566E+00
 -0.391707999007E+00
 -0.430549533675E+00
 -0.206272125034E+00
 -0.175575744840E+00
 -0.568294535726E-01
 -0.256432158216E-01
  0.413006541658E-01
  0.709571638297E-01
  0.113982198532E+00
  0.141482084573E+00
  0.200928143774E+00
  0.225459751632E+00
  0.117074496897E+00
  0.122302294417E+00
  0.539283634319E-01
  0.645713137341E-01
  0.250085814082E-01
  0.369459362526E-01
 -0.698385128933E-03
  0.122973476940E-01
 -0.285084377483E-01
 -0.120162590181E-01
 -0.211740882919E-01
 -0.428331324049E-01
  0.459194359167E-01
  0.212259184750E-01
  0.202339252655E+00
  0.184062921417E+00
  0.417459175521E+00
  0.410597509900E+00
  0.290765532034E+00
  0.322453700935E+00
 -0.130049296838E+01
 -0.136620696727E+01
 -0.125738609416E+01
 -0.130796125951E+01
 -0.856639483789E+00
 -0.901010905414E+00
 -0.598931847222E+00
 -0.650279725620E+00
 -0.348941778373E+00
 -0.407070974324E+00
 -0.177467016811E+00
 -0.138404881016E+00
 -0.290514944492E-01
  0.815023223447E-02
  0.675122446058E-01
  0.102670648665E+00
  0.139231782466E+00
  0.173190093289E+00
  0.226669815985E+00
  0.258860378368E+00
  0.850285110018E-01
  0.101222505612E+00
  0.231608347184E-01
  0.434895531420E-01
  0.314665852237E-03
  0.176842748091E-01
 -0.197371146351E-01
 -0.571936837994E-02
 -0.451910795065E-01
 -0.316325004660E-01
 -0.472542822350E-01
 -0.639581739938E-01
  0.154079608286E-01
 -0.125230253240E-01
  0.174009593577E+00
  0.149238725239E+00
  0.395828775948E+00
  0.387287895220E+00
  0.300680113482E+00
  0.342270316610E+00
 -0.122356914167E+01
 -0.130096629147E+01
 -0.120052777334E+01
 -0.126264472566E+01
 -0.807318558009E+00
 -0.867453596794E+00
 -0.543594475644E+00
 -0.619339667078E+00
 -0.296132968365E+00
 -0.375601970263E+00
 -0.141430946473E+00
 -0.100840088757E+00
  0.181017615954E-02
  0.400029733840E-01
  0.948022417221E-01
  0.133602538507E+00
  0.165519628612E+00
  0.208043114948E+00
  0.254874234178E+00
  0.301025535560E+00
  0.918221068014E-02
  0.543536001516E-01
 -0.378864782107E-01
  0.457364358854E-02
 -0.414298506314E-01
 -0.118572139009E-01
 -0.472850866645E-01
 -0.280371112921E-01
 -0.639048679271E-01
 -0.511192621770E-01
 -0.722708568884E-01
 -0.804934686378E-01
 -0.232592552822E-01
 -0.431612301401E-01
  0.130141709610E+00
  0.100770489568E+00
  0.360257874972E+00
  0.350348992205E+00
  0.304769186702E+00
  0.360735699117E+00
 -0.113640768115E+01
 -0.122393258556E+01
 -0.113094215367E+01
 -0.120750986425E+01
 -0.737397290309E+00
 -0.826296391741E+00
 -0.473026715675E+00
 -0.580539306894E+00
 -0.244982481400E+00
 -0.340259798485E+00
 -0.106103862275E+00
 -0.719971173873E-01
  0.281980731859E-01
  0.627207943363E-01
  0.116853417630E+00
  0.158813716488E+00
  0.188230620336E+00
  0.247050842979E+00
  0.282843075270E+00
  0.362842631046E+00
 -0.189137271790E+00
 -0.594607379944E-01
 -0.167164315432E+00
 -0.747259376356E-01
 -0.117949713931E+00
 -0.638943663015E-01
 -0.939319562473E-01
 -0.621170403035E-01
 -0.924823627528E-01
 -0.750727860927E-01
 -0.954884449983E-01
 -0.981898869018E-01
 -0.618416658732E-01
 -0.672258761105E-01
  0.651986986802E-01
  0.464728183556E-01
  0.293072745621E+00
  0.285167218861E+00
  0.287901472328E+00
  0.374025473173E+00
 -0.103469478061E+01
 -0.113646566178E+01
 -0.103175230532E+01
 -0.114272767057E+01
 -0.632043744058E+00
 -0.777993865921E+00
 -0.407078361405E+00
 -0.537187212702E+00
 -0.206458851554E+00
 -0.316557509824E+00
 -0.825446046067E-01
 -0.630944635939E-01
  0.389806059322E-01
  0.632826915176E-01
  0.122269904211E+00
  0.164048658592E+00
  0.198237550882E+00
  0.284171087172E+00
  0.303861792638E+00
  0.469990837023E+00
 -0.745273718355E+00
 -0.384947350119E+00
 -0.469704796015E+00
 -0.283859189170E+00
 -0.312444252305E+00
 -0.189506301817E+00
 -0.213253378789E+00
 -0.136068148471E+00
 -0.160725967189E+00
 -0.121376893339E+00
 -0.134383915427E+00
 -0.133517826175E+00
 -0.104800232216E+00
 -0.105102432980E+00
 -0.236926364383E-01
 -0.231900935327E-01
  0.141630903751E+00
  0.159815465777E+00
  0.150650134322E+00
  0.348182952686E+00
 -0.851489718745E+00
 -0.103456427400E+01
 -0.796962536124E+00
 -0.107888206852E+01
 -0.525267404292E+00
 -0.727575324571E+00
 -0.374662151396E+00
 -0.527838033532E+00
 -0.196751463262E+00
 -0.351118082136E+00
 -0.104364962264E+00
 -0.122611109459E+00
 -0.156152463049E-01
 -0.298918262399E-01
  0.346520011651E-01
  0.461120234022E-01
  0.102037445574E+00
  0.182330844181E+00
  0.245848472234E+00
  0.523832302028E+00
 -0.220323640965E+01
 -0.222837019979E+01
 -0.114273810547E+01
 -0.113712356332E+01
 -0.602709381911E+00
 -0.602577039050E+00
 -0.341778092983E+00
 -0.352572421398E+00
 -0.237836249054E+00
 -0.242299353481E+00
 -0.219825100655E+00
 -0.196155771847E+00
 -0.206582906802E+00
 -0.159279781188E+00
 -0.186789640247E+00
 -0.114986464766E+00
 -0.132148574982E+00
 -0.133681291895E+00
 -0.849592298887E+00
 -0.695164026156E+00
 -0.908565831226E+00
 -0.548623266580E+00
 -0.688868724008E+00
 -0.440981752879E+00
 -0.582027884373E+00
 -0.287757581053E+00
 -0.505262972734E+00
 -0.239486058362E+00
 -0.418622590524E+00
 -0.263695005652E+00
 -0.609280343156E+00
 -0.450144081944E+00
 -0.112752526921E+01
 -0.837728367269E+00
 -0.221729596079E+01
 -0.133345445238E+01
 -0.385669180746E+01
 -0.388368896705E+01
 -0.192989564717E+01
 -0.193008257574E+01
 -0.101531934721E+01
 -0.102131290294E+01
 -0.576723001869E+00
 -0.593355283779E+00
 -0.388994822874E+00
 -0.398083684289E+00
 -0.339567617141E+00
 -0.324897654762E+00
 -0.330398965799E+00
 -0.299989881761E+00
 -0.338292487540E+00
 -0.292654024918E+00
 -0.350331746703E+00
 -0.267043413606E+00
 -0.815596402689E+00
 -0.698408845303E+00
 -0.839344977159E+00
 -0.608926208993E+00
 -0.697376015679E+00
 -0.530242544693E+00
 -0.641735690874E+00
 -0.403346796162E+00
 -0.645889424408E+00
 -0.420455888625E+00
 -0.678967866597E+00
 -0.558612337296E+00
 -0.107784456082E+01
 -0.963143150394E+00
 -0.200732973941E+01
 -0.178302669512E+01
 -0.397448735850E+01
 -0.316367598416E+01
 -0.540152658533E+01
 -0.539152098155E+01
 -0.264008785196E+01
 -0.264520760940E+01
 -0.138552106157E+01
 -0.140531960994E+01
 -0.790381680053E+00
 -0.822527316516E+00
 -0.529907940496E+00
 -0.551227436496E+00
 -0.458345752267E+00
 -0.454541039857E+00
 -0.449056261339E+00
 -0.429369455506E+00
 -0.466625421380E+00
 -0.438272457468E+00
 -0.513137333163E+00
 -0.383832776037E+00
 -0.733251959711E+00
 -0.704185307775E+00
 -0.755317965343E+00
 -0.638678070461E+00
 -0.672793498987E+00
 -0.581280195057E+00
 -0.661815833309E+00
 -0.492988995625E+00
 -0.730044546434E+00
 -0.566809898807E+00
 -0.874199778139E+00
 -0.802436056113E+00
 -0.144082528949E+01
 -0.138696083894E+01
 -0.270391103971E+01
 -0.259021405846E+01
 -0.545817906876E+01
 -0.493067020951E+01
 -0.629285437457E+01
 -0.635968071403E+01
 -0.306064177693E+01
 -0.311967320051E+01
 -0.160393541192E+01
 -0.166787969303E+01
 -0.915823303978E+00
 -0.987581385197E+00
 -0.614405017214E+00
 -0.664370109224E+00
 -0.544984252712E+00
 -0.562101766964E+00
 -0.543995824669E+00
 -0.539645321162E+00
 -0.565266393988E+00
 -0.563005220656E+00
 -0.623230443543E+00
 -0.503755411651E+00
 -0.623591415043E+00
 -0.695414610652E+00
 -0.659007382409E+00
 -0.629082496809E+00
 -0.617585800618E+00
 -0.585658609677E+00
 -0.637596284360E+00
 -0.539054817195E+00
 -0.747443594380E+00
 -0.651000881799E+00
 -0.973222562604E+00
 -0.947812252119E+00
 -0.163800977897E+01
 -0.163567378083E+01
 -0.308921521154E+01
 -0.307364424625E+01
 -0.631933304148E+01
 -0.612138748604E+01
SCALARS sigma float 1
LOOKUP_TABLE default
  0.000000000000E+00
  0.000000000000E+00
  0.000000000000E+00
  0.000000000000E+00
  0.000000000000E+00
  0.000000000000E+00
  0.000000000000E+00
  0.000000000000E+00
  0.000000000000E+00
  0.000000000000E+00
  0.000000000000E+00
  0.000000000000E+00
  0.000000000000E+00
  0.000000000000E+00
  0.000000000000E+00
  0.000000000000E+00
  0.000000000000E+00
  0.000000000000E+00
  0.000000000000E+00
  0.000000000000E+00
  0.000000000000E+00
  0.000000000000E+00
  0.000000000000E+00
  0.000000000000E+00
  0.000000000000E+00
  0.000000000000E+00
  0.000000000000E+00
  0.000000000000E+00
  0.000000000000E+00
  0.000000000000E+00
  0.000000000000E+00
  0.000000000000E+00
  0.000000000000E+00
  0.000000000000E+00
  0.000000000000E+00
  0.000000000000E+00
  0.000000000000E+00
  0.000000000000E+00
  0.000000000000E+00
  0.000000000000E+00
  0.000000000000E+00
  0.000000000000E+00