# vtk DataFile Version 3.0
MachLine results file. Generated by MachLine, USU AeroLab (c) 2022.
ASCII
DATASET POLYDATA
POINTS                 482 float
  0.000000000000E+00  0.000000000000E+00  0.000000000000E+00
  0.473465979099E+00  0.000000000000E+00 -0.436293870211E+00
  0.473465979099E+00  0.000000000000E+00  0.436293870211E+00
  0.757896304131E+00  0.757896304131E+00  0.000000000000E+00
  0.123136246204E+01  0.757896304131E+00 -0.436293989420E+00
  0.123136246204E+01  0.757896304131E+00  0.436293989420E+00
  0.157641971111E+01  0.000000000000E+00 -0.760520398617E+00
  0.157641971111E+01  0.000000000000E+00  0.760520398617E+00
  0.178897356987E+01  0.178897356987E+01  0.000000000000E+00
  0.226243972778E+01  0.178897356987E+01 -0.436294138432E+00
  0.226243972778E+01  0.178897356987E+01  0.436294138432E+00
  0.233431649208E+01  0.757896304131E+00 -0.760520577431E+00
  0.233431649208E+01  0.757896304131E+00  0.760520577431E+00
  0.317279767990E+01  0.317279767990E+01  0.000000000000E+00
  0.336539411545E+01  0.178897356987E+01 -0.760520815849E+00
  0.336539411545E+01  0.178897356987E+01  0.760520815849E+00
  0.342464399338E+01  0.000000000000E+00 -0.102348911762E+01
  0.342464399338E+01  0.000000000000E+00  0.102348911762E+01
  0.364626431465E+01  0.317279767990E+01 -0.436294317245E+00
  0.364626431465E+01  0.317279767990E+01  0.436294317245E+00
  0.418254137039E+01  0.757896304131E+00 -0.102348935604E+01
  0.418254137039E+01  0.757896304131E+00  0.102348935604E+01
  0.474921894073E+01  0.317279767990E+01 -0.760521173477E+00
  0.474921894073E+01  0.317279767990E+01  0.760521173477E+00
  0.499661636353E+01  0.499661636353E+01  0.000000000000E+00
  0.521361970901E+01  0.178897356987E+01 -0.102348971367E+01
  0.521361970901E+01  0.178897356987E+01  0.102348971367E+01
  0.547008323669E+01  0.499661636353E+01 -0.436294585466E+00
  0.547008323669E+01  0.499661636353E+01  0.436294585466E+00
  0.611307668686E+01  0.000000000000E+00 -0.114008128643E+01
  0.611307668686E+01  0.000000000000E+00  0.114008128643E+01
  0.657303857803E+01  0.499661636353E+01 -0.760521650314E+00
  0.657303857803E+01  0.499661636353E+01  0.760521650314E+00
  0.659744548798E+01  0.317279767990E+01 -0.102349019051E+01
  0.659744548798E+01  0.317279767990E+01  0.102349019051E+01
  0.687097454071E+01  0.757896304131E+00 -0.114008152485E+01
  0.687097454071E+01  0.757896304131E+00  0.114008152485E+01
  0.734362459183E+01  0.734362459183E+01  0.000000000000E+00
  0.781709194183E+01  0.734362459183E+01 -0.436294913292E+00
  0.781709194183E+01  0.734362459183E+01  0.436294913292E+00
  0.790205335617E+01  0.178897356987E+01 -0.114008200169E+01
  0.790205335617E+01  0.178897356987E+01  0.114008200169E+01
  0.842126560211E+01  0.499661636353E+01 -0.102349078655E+01
  0.842126560211E+01  0.499661636353E+01  0.102349078655E+01
  0.892004776001E+01  0.734362459183E+01 -0.760522186756E+00
  0.892004776001E+01  0.734362459183E+01  0.760522186756E+00
  0.928588008881E+01  0.317279767990E+01 -0.114008247852E+01
  0.928588008881E+01  0.317279767990E+01  0.114008247852E+01
  0.939508819580E+01  0.000000000000E+00 -0.980745851994E+00
  0.939508819580E+01  0.000000000000E+00  0.980745851994E+00
  0.101529865265E+02  0.757896304131E+00 -0.980746090412E+00
  0.101529865265E+02  0.757896304131E+00  0.980746090412E+00
  0.102728376389E+02  0.102728376389E+02  0.000000000000E+00
  0.107463054657E+02  0.102728376389E+02 -0.436295330524E+00
  0.107463054657E+02  0.102728376389E+02  0.436295330524E+00
  0.107682771683E+02  0.734362459183E+01 -0.102349150181E+01
  0.107682771683E+02  0.734362459183E+01  0.102349150181E+01
  0.111097030640E+02  0.499661636353E+01 -0.114008307457E+01
  0.111097030640E+02  0.499661636353E+01  0.114008307457E+01
  0.111840667725E+02  0.178897356987E+01 -0.980746388435E+00
  0.111840667725E+02  0.178897356987E+01  0.980746388435E+00
  0.118492631912E+02  0.102728376389E+02 -0.760522902012E+00
  0.118492631912E+02  0.102728376389E+02  0.760522902012E+00
  0.125678949356E+02  0.317279767990E+01 -0.980746865273E+00
  0.125678949356E+02  0.317279767990E+01  0.980746865273E+00
  0.126670312881E+02  0.000000000000E+00 -0.678052663803E+00
  0.126670312881E+02  0.000000000000E+00  0.678052663803E+00
  0.134249305725E+02  0.757896304131E+00 -0.678052842617E+00
  0.134249305725E+02  0.757896304131E+00  0.678052842617E+00
  0.134567155838E+02  0.734362459183E+01 -0.114008402824E+01
  0.134567155838E+02  0.734362459183E+01  0.114008402824E+01
  0.136974935532E+02  0.102728376389E+02 -0.102349245548E+01
  0.136974935532E+02  0.102728376389E+02  0.102349245548E+01
  0.137921218872E+02  0.137921218872E+02  0.000000000000E+00
  0.142655897141E+02  0.137921218872E+02 -0.436295837164E+00
  0.142655897141E+02  0.137921218872E+02  0.436295837164E+00
  0.143917188644E+02  0.499661636353E+01 -0.980747401714E+00
  0.143917188644E+02  0.499661636353E+01  0.980747401714E+00
  0.144560117722E+02  0.178897356987E+01 -0.678053081036E+00
  0.144560117722E+02  0.178897356987E+01  0.678053081036E+00
  0.153437566757E+02  0.000000000000E+00 -0.393031150103E+00
  0.153437566757E+02  0.000000000000E+00  0.393031150103E+00
  0.153685483932E+02  0.137921218872E+02 -0.760523796082E+00
  0.153685483932E+02  0.137921218872E+02  0.760523796082E+00
  0.158398418427E+02  0.317279767990E+01 -0.678053379059E+00
  0.158398418427E+02  0.317279767990E+01  0.678053379059E+00
  0.161016559601E+02  0.757896304131E+00 -0.393031239510E+00
  0.161016559601E+02  0.757896304131E+00  0.393031239510E+00
  0.163859348297E+02  0.102728376389E+02 -0.114008510113E+01
  0.163859348297E+02  0.102728376389E+02  0.114008510113E+01
  0.167387351990E+02  0.734362459183E+01 -0.980748176575E+00
  0.167387351990E+02  0.734362459183E+01  0.980748176575E+00
  0.171327381134E+02  0.178897356987E+01 -0.393031388521E+00
  0.171327381134E+02  0.178897356987E+01  0.393031388521E+00
  0.172004318237E+02  0.000000000000E+00 -0.192506864667E+00
  0.172004318237E+02  0.000000000000E+00  0.192506864667E+00
  0.172167816162E+02  0.137921218872E+02 -0.102349364758E+01
  0.172167816162E+02  0.137921218872E+02  0.102349364758E+01
  0.176636676788E+02  0.499661636353E+01 -0.678053736687E+00
  0.176636676788E+02  0.499661636353E+01  0.678053736687E+00
  0.178320064545E+02  0.178320064545E+02  0.000000000000E+00
  0.179583320618E+02  0.757896304131E+00 -0.192506924272E+00
  0.179583320618E+02  0.757896304131E+00  0.192506924272E+00
  0.183054752350E+02  0.178320064545E+02 -0.436296403408E+00
  0.183054752350E+02  0.178320064545E+02  0.436296403408E+00
  0.183450412750E+02  0.000000000000E+00 -0.698660761118E-01
  0.183450412750E+02  0.000000000000E+00  0.698660761118E-01
  0.185165691376E+02  0.317279767990E+01 -0.393031567335E+00
  0.185165691376E+02  0.317279767990E+01  0.393031567335E+00
  0.189894161224E+02  0.178897356987E+01 -0.192506983876E+00
  0.189894161224E+02  0.178897356987E+01  0.192506983876E+00
  0.190000000000E+02  0.000000000000E+00  0.000000000000E+00
  0.191029415131E+02  0.757896304131E+00 -0.698660910130E-01
  0.191029415131E+02  0.757896304131E+00  0.698660910130E-01
  0.194084339142E+02  0.178320064545E+02 -0.760524809361E+00
  0.194084339142E+02  0.178320064545E+02  0.760524809361E+00
  0.196679573059E+02  0.102728376389E+02 -0.980749070644E+00
  0.196679573059E+02  0.102728376389E+02  0.980749070644E+00
  0.197579002380E+02  0.757896304131E+00  0.000000000000E+00
  0.199052257538E+02  0.137921218872E+02 -0.114008641243E+01
  0.199052257538E+02  0.137921218872E+02  0.114008641243E+01
  0.200106849670E+02  0.734362459183E+01 -0.678054273129E+00
  0.200106849670E+02  0.734362459183E+01  0.678054273129E+00
  0.201340255737E+02  0.178897356987E+01 -0.698661133647E-01
  0.201340255737E+02  0.178897356987E+01  0.698661133647E-01
  0.203403968811E+02  0.499661636353E+01 -0.393031775951E+00
  0.203403968811E+02  0.499661636353E+01  0.393031775951E+00
  0.203732471466E+02  0.317279767990E+01 -0.192507073283E+00
  0.203732471466E+02  0.317279767990E+01  0.192507073283E+00
  0.207889842987E+02  0.178897356987E+01  0.000000000000E+00
  0.212566699982E+02  0.178320064545E+02 -0.102349495888E+01
  0.212566699982E+02  0.178320064545E+02  0.102349495888E+01
  0.215178565979E+02  0.317279767990E+01 -0.698661431670E-01
  0.215178565979E+02  0.317279767990E+01  0.698661431670E-01
  0.221728172302E+02  0.317279767990E+01  0.000000000000E+00
  0.221970767975E+02  0.499661636353E+01 -0.192507177591E+00
  0.221970767975E+02  0.499661636353E+01  0.192507177591E+00
  0.222339305878E+02  0.222339305878E+02  0.000000000000E+00
  0.226874179840E+02  0.734362459183E+01 -0.393032073975E+00
  0.226874179840E+02  0.734362459183E+01  0.393032073975E+00
  0.227074012756E+02  0.222339305878E+02 -0.436297029257E+00
  0.227074012756E+02  0.222339305878E+02  0.436297029257E+00
  0.229399108887E+02  0.102728376389E+02 -0.678054928780E+00
  0.229399108887E+02  0.102728376389E+02  0.678054928780E+00
  0.231872520447E+02  0.137921218872E+02 -0.980750203133E+00
  0.231872520447E+02  0.137921218872E+02  0.980750203133E+00
  0.233416862488E+02  0.499661636353E+01 -0.698661878705E-01
  0.233416862488E+02  0.499661636353E+01  0.698661878705E-01
  0.238103618622E+02  0.222339305878E+02 -0.760525882244E+00
  0.238103618622E+02  0.222339305878E+02  0.760525882244E+00
  0.239451179504E+02  0.178320064545E+02 -0.114008784294E+01
  0.239451179504E+02  0.178320064545E+02  0.114008784294E+01
  0.239966468811E+02  0.499661636353E+01  0.000000000000E+00
  0.245440979004E+02  0.734362459183E+01 -0.192507326603E+00
  0.245440979004E+02  0.734362459183E+01  0.192507326603E+00
  0.256166458130E+02  0.102728376389E+02 -0.393032461405E+00
  0.256166458130E+02  0.102728376389E+02  0.393032461405E+00
  0.256585998535E+02  0.222339305878E+02 -0.102349650860E+01
  0.256585998535E+02  0.222339305878E+02  0.102349650860E+01
  0.256887092590E+02  0.734362459183E+01 -0.698662400246E-01
  0.256887092590E+02  0.734362459183E+01  0.698662400246E-01
[...]
CELL_DATA                 904
SCALARS C_p_inc float 1
LOOKUP_TABLE default
  0.165630244279E+00
  0.142379240547E+00
  0.109303361569E+00
  0.920758563315E-01
  0.756420411046E-01
  0.666490094324E-01
  0.479116763775E-01
  0.410745011531E-01
  0.235489209660E-01
  0.188167243291E-01
  0.282478145569E-01
  0.224910853766E-01
  0.125159835941E+00
  0.929216033108E-01
  0.273258691993E+00
  0.228692346545E+00
  0.478415526177E+00
  0.434302452965E+00
  0.701291570567E+00
  0.693425903358E+00
 -0.282930264680E+00
  0.128809517392E+00
 -0.623064281675E+00
 -0.368393380334E+00
 -0.556353684616E+00
 -0.478020101719E+00
 -0.539930612647E+00
 -0.515899895519E+00
 -0.476774512011E+00
 -0.496965774514E+00
 -0.380367745997E+00
 -0.352274414730E+00
 -0.255321636643E+00
 -0.225197289605E+00
 -0.150501497731E+00
 -0.114053888501E+00
 -0.601900948106E-01
 -0.440418438006E-02
  0.564522431720E-01
  0.126917021407E+00
  0.160359296152E+00
  0.164231327970E+00
  0.112963705530E+00
  0.109106557591E+00
  0.846876496396E-01
  0.756313702915E-01
  0.542078155013E-01
  0.479575326122E-01
  0.257906115526E-01
  0.235001181642E-01
  0.224669464682E-01
  0.153839857855E-01
  0.941987659068E-01
  0.729048747342E-01
  0.225153373059E+00
  0.206213515296E+00
  0.402789070610E+00
  0.402345220176E+00
  0.577284389997E+00
  0.530920766814E+00
 -0.533767502250E+00
 -0.302437438367E+00
 -0.781448109287E+00
 -0.594572869221E+00
 -0.645733666081E+00
 -0.555242443551E+00
 -0.576738000686E+00
 -0.545299913779E+00
 -0.470419285916E+00
 -0.483415075406E+00
 -0.351905721965E+00
 -0.327473153464E+00
 -0.224673975374E+00
 -0.191877068081E+00
 -0.113887852224E+00
 -0.732001756903E-01
 -0.497537039527E-02
  0.286927569119E-01
  0.122623617314E+00
  0.133782253942E+00
  0.157506417310E+00
  0.159696007191E+00
  0.111139068720E+00
  0.112675407452E+00
  0.879909010036E-01
  0.845990547374E-01
  0.599985577776E-01
  0.542431371832E-01
  0.286609329606E-01
  0.258052486887E-01
  0.157352133093E-01
  0.121772373441E-01
  0.736136010925E-01
  0.633675384202E-01
  0.201695751142E+00
  0.195096065036E+00
  0.387303170783E+00
  0.393167624201E+00
  0.515106730687E+00
  0.465958393250E+00
 -0.740554118846E+00
 -0.540903258415E+00
 -0.922984896530E+00
 -0.761520908882E+00
 -0.724508588887E+00
 -0.639717732965E+00
 -0.609216023980E+00
 -0.581045545543E+00
 -0.466538947438E+00
 -0.479426731400E+00
 -0.327556573641E+00
 -0.302589315076E+00
 -0.191353124051E+00
 -0.158026701074E+00
 -0.731627236027E-01
 -0.436149605738E-01
  0.277788182902E-01
  0.429590550383E-01
  0.131689930889E+00
  0.136920262989E+00
  0.156201618750E+00
  0.156989625325E+00
  0.109504357454E+00
  0.110883924803E+00
  0.876136145581E-01
  0.878546854252E-01
  0.629487577867E-01
  0.600041547862E-01
  0.322005079129E-01
  0.287419248891E-01
  0.123500485973E-01
  0.130255998997E-01
  0.634762352979E-01
  0.618136906438E-01
  0.192346359219E+00
  0.194758515218E+00
  0.386683155930E+00
  0.395553120449E+00
  0.466923265606E+00
  0.417868798744E+00
 -0.921347631805E+00
 -0.742121470416E+00
 -0.104592907377E+01
 -0.910175432926E+00
 -0.790967350154E+00
 -0.721562634728E+00
 -0.636423604878E+00
 -0.615275453314E+00
 -0.461873402565E+00
 -0.476625727890E+00
 -0.303147124718E+00
 -0.278966606279E+00
 -0.157660030193E+00
 -0.131888503202E+00
 -0.436966470463E-01
 -0.270543058013E-01
  0.424913177267E-01
  0.508487467484E-01
  0.136131449770E+00
  0.139792639382E+00
  0.155943294193E+00
  0.155727561782E+00
  0.108669135115E+00
  0.109254726586E+00
  0.867668237220E-01
  0.874614241018E-01
  0.635142620343E-01
  0.629079884026E-01
  0.349603794310E-01
  0.323000624731E-01
  0.130640275431E-01
  0.167048140659E-01
  0.617809459467E-01
  0.662824491031E-01
  0.193771564158E+00
  0.201963556660E+00
  0.394530712183E+00
  0.404819127857E+00
  0.426519870333E+00
  0.379035759365E+00
 -0.107652197435E+01
 -0.920968880626E+00
 -0.114742229617E+01
 -0.103981689171E+01
 -0.843118684352E+00
 -0.791939646874E+00
 -0.656098870479E+00
 -0.643884966862E+00
 -0.456725848468E+00
 -0.471632911278E+00
 -0.279759894978E+00
 -0.261225152811E+00
 -0.131808252800E+00
 -0.116497991478E+00
 -0.270795605399E-01
 -0.180058213475E-01
  0.508033606467E-01
  0.557905795576E-01
  0.139798361771E+00
  0.142339884527E+00
  0.156081824836E+00
  0.155459739072E+00
  0.108384915046E+00
  0.108402906079E+00
  0.862989662633E-01
  0.865933739166E-01
  0.635241992872E-01
  0.634366917558E-01
  0.366218447547E-01
  0.350244940163E-01
  0.167262332933E-01
  0.210550405205E-01
  0.662754392690E-01
  0.736823106840E-01
  0.202076789815E+00
  0.212815723350E+00
  0.406718237038E+00
  0.416846886240E+00
  0.390691827498E+00
  0.347199429839E+00
 -0.120310338026E+01
 -0.107588076014E+01
 -0.122587776701E+01
 -0.114613163188E+01
 -0.881236512113E+00
 -0.846576226773E+00
 -0.669650222696E+00
 -0.663446065197E+00
 -0.453974375734E+00
 -0.464395242798E+00
 -0.262134053490E+00
 -0.251539332091E+00
 -0.116635510061E+00
 -0.108737310329E+00
 -0.179665521130E-01
 -0.130580423211E-01
  0.559951514206E-01
  0.590360877345E-01
  0.142797386142E+00
  0.144712918675E+00
  0.156356404511E+00
  0.155570306753E+00
  0.108294215321E+00
  0.108090977047E+00
  0.860752847436E-01
  0.860989725478E-01
  0.635884273165E-01
  0.634160362159E-01
  0.378310282049E-01
  0.366376829060E-01
  0.210855334114E-01
  0.248163398917E-01
  0.737009376601E-01
  0.810210238376E-01
  0.213317266099E+00
  0.223672115105E+00
  0.419582444522E+00
  0.428204666123E+00
  0.358239818063E+00
  0.321343304290E+00
 -0.130084369398E+01
 -0.120272789074E+01
 -0.128356585166E+01
 -0.122683958742E+01
 -0.908574331781E+00
 -0.885000075000E+00
 -0.680256312105E+00
 -0.675226948989E+00
 -0.454573392934E+00
 -0.458904615257E+00
 -0.252499620763E+00
 -0.247681765684E+00
 -0.108991755134E+00
 -0.105131128363E+00
 -0.130010574155E-01
 -0.102480460688E-01
  0.593482529938E-01
  0.613434608709E-01
  0.145377667712E+00
  0.146869548709E+00
  0.156270706593E+00
  0.155788979821E+00
  0.107891922992E+00
  0.107959764787E+00
  0.855979336823E-01
  0.858435354993E-01
  0.634022551954E-01
  0.634524310540E-01
  0.386034581650E-01
  0.378072912419E-01
  0.248383134550E-01
  0.276085290747E-01
  0.810183515785E-01
  0.867671802718E-01
  0.224091802731E+00
  0.232306839709E+00
  0.430467864291E+00
  0.436913160911E+00
  0.329655721163E+00
  0.300856871662E+00
 -0.137305267465E+01
 -0.130065689091E+01
 -0.132503442018E+01
 -0.128475750238E+01
 -0.928461680674E+00
 -0.911286224496E+00
 -0.689020988224E+00
 -0.683738690491E+00
 -0.456734149716E+00
 -0.457493991007E+00
 -0.248621338715E+00
 -0.246516168012E+00
 -0.105444923460E+00
 -0.103188968258E+00
 -0.102054810486E-01
 -0.814020989824E-02
  0.616863748983E-01
  0.635231989987E-01
  0.147627680500E+00
  0.149272502175E+00
  0.155386352213E+00
  0.155600274024E+00
  0.106595390171E+00
  0.107489904299E+00
  0.841906033720E-01
  0.853197720583E-01
  0.622695110508E-01
  0.632356234970E-01
  0.383307093471E-01
  0.385494311289E-01
  0.276129603018E-01
  0.289200521382E-01
  0.867153064825E-01
  0.902961888049E-01
  0.232482829715E+00
  0.237983076067E+00
  0.438294497369E+00
  0.442555258817E+00
  0.306154644028E+00
  0.285712105646E+00
 -0.142313928249E+01
 -0.137291353905E+01
 -0.135332011707E+01
 -0.132580695659E+01
 -0.942037141475E+00
 -0.930160555593E+00
 -0.695143897273E+00
 -0.691206009199E+00
 -0.458291432481E+00
 -0.458694035712E+00
 -0.247402948571E+00
 -0.245552404274E+00
 -0.103540659718E+00
 -0.101049749694E+00
 -0.812531789236E-02
 -0.545284902251E-02
  0.638745150352E-01
  0.664836095765E-01
  0.150102199982E+00
  0.152536842936E+00
  0.153420058220E+00
  0.154510104250E+00
  0.103796240877E+00
  0.106063165231E+00
  0.810611704042E-01
  0.838273793215E-01
  0.593017981133E-01
  0.620558766484E-01
  0.361237446370E-01
  0.382489215628E-01
  0.288984839737E-01
  0.279756778130E-01
  0.901647680456E-01
  0.910518443192E-01
  0.237868772761E+00
  0.240436278717E+00
  0.443079662534E+00
  0.445336863057E+00
  0.288582178847E+00
  0.276471035508E+00
 -0.145248580863E+01
 -0.142303253398E+01
 -0.136924723971E+01
 -0.135389664590E+01
 -0.948968613656E+00
 -0.943341101894E+00
 -0.697309052949E+00
 -0.696933611536E+00
 -0.457367966229E+00
 -0.460074727258E+00
 -0.246400431410E+00
 -0.242834010386E+00
 -0.101450103038E+00
 -0.970757711354E-01
 -0.547435774030E-02
 -0.841862606098E-03
  0.668585149950E-01
  0.713105982120E-01
  0.153503437304E+00
  0.157420113034E+00
  0.150059707816E+00
  0.152125869934E+00
  0.988459176556E-01
  0.103000114512E+00
  0.753290361803E-01
  0.805259413731E-01
  0.534664015146E-01
  0.589975826033E-01
  0.309167061279E-01
  0.360042024123E-01
  0.279049058338E-01
  0.238095242972E-01
  0.907849350944E-01
  0.883229250361E-01
  0.239948841271E+00
  0.239314057615E+00
  0.444999109342E+00
  0.445363921530E+00
  0.277335474982E+00
  0.273770357782E+00
 -0.146104929697E+01
 -0.145245274778E+01
 -0.137248084395E+01
 -0.137000380823E+01
 -0.948387131477E+00
 -0.950451860471E+00
 -0.694119529570E+00
 -0.699397300665E+00
 -0.452221147353E+00
 -0.459578849059E+00
 -0.243692993431E+00
 -0.236536827323E+00
 -0.975732586761E-01
 -0.894831645521E-01
 -0.923314526991E-03
  0.738529476117E-02
  0.717449512724E-01
  0.795649528966E-01
  0.158676173465E+00
  0.165298379087E+00
  0.145107885380E+00
  0.147975613416E+00
  0.914048323391E-01
  0.975351686409E-01
  0.663879480262E-01
  0.744481180473E-01
  0.438370582244E-01
  0.529758006986E-01
  0.215557683098E-01
  0.307269312939E-01
  0.236360070711E-01
  0.152711288356E-01
  0.878235264021E-01
  0.812038998542E-01
  0.238283154607E+00
  0.234080631575E+00
  0.443974208514E+00
  0.442485856270E+00
  0.272582533985E+00
  0.277843252593E+00
 -0.144869020223E+01
 -0.146113042858E+01
 -0.136253401464E+01
 -0.137372796247E+01
 -0.939395632746E+00
 -0.950515734669E+00
 -0.684182459638E+00
 -0.697123304988E+00
 -0.441018771944E+00
 -0.455510205310E+00
 -0.237479309978E+00
 -0.224644117386E+00
 -0.901787375655E-01
 -0.761405960390E-01
  0.717286486122E-02
  0.213308853388E-01
  0.800764432220E-01
  0.933207060732E-01
  0.167050064070E+00
  0.178389476817E+00
  0.139164199020E+00
  0.141693535522E+00
  0.820648705624E-01
  0.891748793998E-01
  0.547444090417E-01
  0.648508647302E-01
  0.304963278966E-01
  0.429628156265E-01
  0.734560738871E-02
  0.212149052733E-01
  0.148715231720E-01
  0.114677287453E-02
  0.803024829749E-01
  0.685495840452E-01
  0.232206231666E+00
  0.223987769040E+00
  0.439620473882E+00
  0.436298676927E+00
  0.274069894798E+00
  0.288234433190E+00
 -0.141620624466E+01
 -0.144890864679E+01
 -0.133942656638E+01
 -0.136451983359E+01
 -0.921350856829E+00
 -0.942612524538E+00
 -0.666118909228E+00
 -0.688822952939E+00
 -0.421667096496E+00
 -0.446318502595E+00
 -0.225750974937E+00
 -0.204898697076E+00
 -0.772251813523E-01
 -0.549702933430E-01
  0.207908826831E-01
  0.426884317732E-01
  0.937935856531E-01
  0.114099309698E+00
  0.180747015772E+00
  0.198344196804E+00
  0.131362278129E+00
  0.133634975477E+00
  0.707517374312E-01
  0.783247358352E-01
  0.414225969480E-01
  0.520710733823E-01
  0.152491389775E-01
  0.288670230795E-01
 -0.105087129233E-01
  0.665216021333E-02
  0.223175336256E-03
 -0.190670331240E-01
  0.669235188717E-01
  0.489505292558E-01
  0.220747562228E+00
  0.207932113649E+00
  0.431209607991E+00
  0.426090740080E+00
  0.280798674789E+00
  0.303718589794E+00
 -0.136574966149E+01
 -0.141655970942E+01
 -0.130394606134E+01
 -0.134234949443E+01
 -0.893917892885E+00
 -0.926155263300E+00
 -0.638447085621E+00
 -0.673432712623E+00
 -0.391707523357E+00
 -0.430548841511E+00
 -0.206271801653E+00
 -0.175575578333E+00
 -0.568293661848E-01
 -0.256433624966E-01
  0.413005121714E-01
  0.709566217419E-01
  0.113981745639E+00
  0.141480848410E+00
  0.200927132565E+00
  0.225456836504E+00
  0.117074651874E+00
  0.122304506996E+00
  0.539287855975E-01
  0.645722263962E-01
  0.250089338855E-01
  0.369463094016E-01
 -0.698212402237E-03
  0.122974160031E-01
 -0.285084849203E-01
 -0.120164253401E-01
 -0.211744595263E-01
 -0.428334270822E-01
  0.459188646432E-01
  0.212254098951E-01
  0.202338558008E+00
  0.184062268622E+00
  0.417458629997E+00
  0.410596946932E+00
  0.290767245279E+00
  0.322455085419E+00
 -0.130048859555E+01
 -0.136620198853E+01
 -0.125738355001E+01
 -0.130795830601E+01
 -0.856638138509E+00
 -0.901009278070E+00
 -0.598931108006E+00
 -0.650278742869E+00
 -0.348941458542E+00
 -0.407070429404E+00
 -0.177466859167E+00
 -0.138404843391E+00
 -0.290516401901E-01
  0.814998016213E-02
  0.675117026721E-01
  0.102670154994E+00
  0.139230523365E+00
  0.173189491164E+00
  0.226666824365E+00
  0.258860010954E+00
  0.850301961928E-01
  0.101222852595E+00
  0.231614766094E-01
  0.434900097292E-01
  0.315003418184E-03
  0.176846360275E-01
 -0.197369127136E-01
 -0.571918729105E-02
 -0.451910397661E-01
 -0.316325378027E-01
 -0.472545279811E-01
 -0.639583648690E-01
  0.154075064060E-01
 -0.125234354097E-01
  0.174008997319E+00
  0.149238145913E+00
  0.395828278009E+00
  0.387287354908E+00
  0.300681584598E+00
  0.342271471343E+00
 -0.122356527022E+01
 -0.130096190676E+01
 -0.120052554423E+01
 -0.126264213284E+01
 -0.807317425864E+00
 -0.867452189687E+00
 -0.543593902038E+00
 -0.619338844035E+00
 -0.296132764337E+00
 -0.375601556519E+00
 -0.141430918119E+00
 -0.100840111142E+00
  0.180992669205E-02
  0.400027299704E-01
  0.948017547580E-01
  0.133602111132E+00
  0.165519039798E+00
  0.208042327456E+00
  0.254873894140E+00
  0.301023556200E+00
  0.918158624702E-02
  0.543549838821E-01
 -0.378862301832E-01
  0.457427770733E-02
 -0.414295154953E-01
 -0.118568449797E-01
 -0.472848427362E-01
 -0.280368843830E-01
 -0.639047572763E-01
 -0.511192044327E-01
 -0.722709850224E-01
 -0.804935646621E-01
 -0.232595878909E-01
 -0.431615333956E-01
  0.130141221107E+00
  0.100769992634E+00
  0.360257430991E+00
  0.350348469803E+00
  0.304770452642E+00
  0.360736645777E+00
 -0.113640426769E+01
 -0.122392870371E+01
 -0.113094022312E+01
 -0.120750757536E+01
 -0.737396364503E+00
 -0.826295169787E+00
 -0.473026274747E+00
 -0.580538610412E+00
 -0.244982340442E+00
 -0.340259468515E+00
 -0.106103882691E+00
 -0.719971420682E-01
  0.281978547447E-01
  0.627205917536E-01
  0.116853021875E+00
  0.158813370047E+00
  0.188229816306E+00
  0.247050486238E+00
  0.282840857271E+00
  0.362842989423E+00
 -0.189136189909E+00
 -0.594607636208E-01
 -0.167163856994E+00
 -0.747255410702E-01
 -0.117949333317E+00
 -0.638939554061E-01
 -0.939316284894E-01
 -0.621167429787E-01
 -0.924821582347E-01
 -0.750726378971E-01
 -0.954884528163E-01
 -0.981898843003E-01
 -0.618418619005E-01
 -0.672260560436E-01
  0.651983507298E-01
  0.464724449466E-01
  0.293072394824E+00
  0.285166726301E+00
  0.287902577664E+00
  0.374026188313E+00
 -0.103469180425E+01
 -0.113646224163E+01
 -0.103175069952E+01
 -0.114272564857E+01
 -0.632043014082E+00
 -0.777992786795E+00
 -0.407077988224E+00
 -0.537186588186E+00
 -0.206458719289E+00
 -0.316557188202E+00
 -0.825446024803E-01
 -0.630944316007E-01
  0.389804642188E-01
  0.632825807427E-01
  0.122269637776E+00
  0.164048455414E+00
  0.198237326409E+00
  0.284170851503E+00
  0.303862596800E+00
  0.469990301968E+00
 -0.745272228838E+00
 -0.384945986844E+00
 -0.469703636095E+00
 -0.283858335719E+00
 -0.312443413056E+00
 -0.189505645887E+00
 -0.213252752165E+00
 -0.136067653406E+00
 -0.160725539478E+00
 -0.121376579083E+00
 -0.134383730167E+00
 -0.133517663872E+00
 -0.104800226783E+00
 -0.105102420138E+00
 -0.236927419870E-01
 -0.231902197222E-01
  0.141630808169E+00
  0.159815161963E+00
  0.150651224135E+00
  0.348183355304E+00
 -0.851487439569E+00
 -0.103456130865E+01
 -0.796961361819E+00
 -0.107888022958E+01
 -0.525266752881E+00
 -0.727574289733E+00
 -0.374661727053E+00
 -0.527837338516E+00
 -0.196751244803E+00
 -0.351117601721E+00
 -0.104364809875E+00
 -0.122610849250E+00
 -0.156151465466E-01
 -0.298916229899E-01
  0.346521314824E-01
  0.461122425062E-01
  0.102037650147E+00
  0.182331040581E+00
  0.245848182110E+00
  0.523832204720E+00
 -0.220323061550E+01
 -0.222836415036E+01
 -0.114273486855E+01
 -0.113712028211E+01
 -0.602707539124E+00
 -0.602575207921E+00
 -0.341776965383E+00
 -0.352571341886E+00
 -0.237835527540E+00
 -0.242298723198E+00
 -0.219824617477E+00
 -0.196155379321E+00
 -0.206582523574E+00
 -0.159279434993E+00
 -0.186789266014E+00
 -0.114986033526E+00
 -0.132148249904E+00
 -0.133680131368E+00
 -0.849590041827E+00
 -0.695162853000E+00
 -0.908564195284E+00
 -0.548622364171E+00
 -0.688867557839E+00
 -0.440981027958E+00
 -0.582026901179E+00
 -0.287757039268E+00
 -0.505262001816E+00
 -0.239485452422E+00
 -0.418621543473E+00
 -0.263694161549E+00
 -0.609278730240E+00
 -0.450142653105E+00
 -0.112752227571E+01
 -0.837725846353E+00
 -0.221729066936E+01
 -0.133345043170E+01
 -0.385668199421E+01
 -0.388367897541E+01
 -0.192989015066E+01
 -0.193007707181E+01
 -0.101531631398E+01
 -0.102130990043E+01
 -0.576721153116E+00
 -0.593353481787E+00
 -0.388993628099E+00
 -0.398082556937E+00
 -0.339566759926E+00
 -0.324896858545E+00
 -0.330398197419E+00
 -0.299989136038E+00
 -0.338291675016E+00
 -0.292653200644E+00
 -0.350330864013E+00
 -0.267042121941E+00
 -0.815594267610E+00
 -0.698407447292E+00
 -0.839343331349E+00
 -0.608925007558E+00
 -0.697374681946E+00
 -0.530241499163E+00
 -0.641734432490E+00
 -0.403345882605E+00
 -0.645887993212E+00
 -0.420454759176E+00
 -0.678966082585E+00
 -0.558610702970E+00
 -0.107784167111E+01
 -0.963140384508E+00
 -0.200732451238E+01
 -0.178302184224E+01
 -0.397447731407E+01
 -0.316366716489E+01
 -0.540151282892E+01
 -0.539150726981E+01
 -0.264008049332E+01
 -0.264520030050E+01
 -0.138551695717E+01
 -0.140531554586E+01
 -0.790379244141E+00
 -0.822524917831E+00
 -0.529906357170E+00
 -0.551225909616E+00
 -0.458344581015E+00
 -0.454539924342E+00
 -0.449055193855E+00
 -0.429368413845E+00
 -0.466624292704E+00
 -0.438271353606E+00
 -0.513136056864E+00
 -0.383831394939E+00
 -0.733250034607E+00
 -0.704183747018E+00
 -0.755316386206E+00
 -0.638676689784E+00
 -0.672792109327E+00
 -0.581278949386E+00
 -0.661814429758E+00
 -0.492987802209E+00
 -0.730042807301E+00
 -0.566808343358E+00
 -0.874197400583E+00
 -0.802433741692E+00
 -0.144082139657E+01
 -0.138695697535E+01
 -0.270390385594E+01
 -0.259020704484E+01
 -0.545816519997E+01
 -0.493065704866E+01
 -0.629283884548E+01
 -0.635966526255E+01
 -0.306063330664E+01
 -0.311966472342E+01
 -0.160393076613E+01
 -0.166787502918E+01
 -0.915820552126E+00
 -0.987578614919E+00
 -0.614403231742E+00
 -0.664368345793E+00
 -0.544982884400E+00
 -0.562100435451E+00
 -0.543994561543E+00
 -0.539644070474E+00
 -0.565265064086E+00
 -0.563003901692E+00
 -0.623228924718E+00
 -0.503753891773E+00
 -0.623589717396E+00
 -0.695412991201E+00
 -0.659005915856E+00
 -0.629081063791E+00
 -0.617584443476E+00
 -0.585657291503E+00
 -0.637594856113E+00
 -0.539053471309E+00
 -0.747441720091E+00
 -0.650999067212E+00
 -0.973219839858E+00
 -0.947809511998E+00
 -0.163800523531E+01
 -0.163566919885E+01
 -0.308920690193E+01
 -0.307363593577E+01
 -0.631931618091E+01
 -0.612137074287E+01
SCALARS sigma float 1
LOOKUP_TABLE default
  0.401011190208E-01
  0.401011414003E-01
  0.396335872354E-01
  0.396336255157E-01
  0.387900046618E-01
  0.387899661795E-01
  0.402896179244E-01
  0.402896503847E-01
  0.541026487334E-01
  0.541026402517E-01
  0.978254353536E-01
  0.978254425257E-01
  0.188631430607E+00
  0.188631423359E+00
  0.281202295153E+00
  0.281202284257E+00
  0.403419230910E+00
  0.403419216587E+00
  0.643892267737E+00
  0.643892265323E+00
  0.466029167989E+00
  0.466029185745E+00
  0.133637365540E+00
  0.133637385795E+00
 -0.522288817858E-02
 -0.522287491214E-02
 -0.102986679407E+00
 -0.102986671622E+00
 -0.193654422404E+00
 -0.193654428948E+00
 -0.235594570132E+00
 -0.235594561116E+00
 -0.248619018865E+00
 -0.248619052865E+00
 -0.250026626280E+00
 -0.250026587257E+00
 -0.249234920289E+00
 -0.249234957991E+00
 -0.248796025416E+00
 -0.248796047016E+00
  0.401010847439E-01
  0.401011183057E-01