# vtk DataFile Version 3.0
MachLine results file. Generated by MachLine, USU AeroLab (c) 2022.
ASCII
DATASET POLYDATA
POINTS                 482 float
  0.000000000000E+00  0.000000000000E+00  0.000000000000E+00
  0.473465979099E+00  0.000000000000E+00 -0.436293870211E+00
  0.473465979099E+00  0.000000000000E+00  0.436293870211E+00
  0.757896304131E+00  0.757896304131E+00  0.000000000000E+00
  0.123136246204E+01  0.757896304131E+00 -0.436293989420E+00
  0.123136246204E+01  0.757896304131E+00  0.436293989420E+00
  0.157641971111E+01  0.000000000000E+00 -0.760520398617E+00
  0.157641971111E+01  0.000000000000E+00  0.760520398617E+00
  0.178897356987E+01  0.178897356987E+01  0.000000000000E+00
  0.226243972778E+01  0.178897356987E+01 -0.436294138432E+00
  0.226243972778E+01  0.178897356987E+01  0.436294138432E+00
  0.233431649208E+01  0.757896304131E+00 -0.760520577431E+00
  0.233431649208E+01  0.757896304131E+00  0.760520577431E+00
  0.317279767990E+01  0.317279767990E+01  0.000000000000E+00
  0.336539411545E+01  0.178897356987E+01 -0.760520815849E+00
  0.336539411545E+01  0.178897356987E+01  0.760520815849E+00
  0.342464399338E+01  0.000000000000E+00 -0.102348911762E+01
  0.342464399338E+01  0.000000000000E+00  0.102348911762E+01
  0.364626431465E+01  0.317279767990E+01 -0.436294317245E+00
  0.364626431465E+01  0.317279767990E+01  0.436294317245E+00
  0.418254137039E+01  0.757896304131E+00 -0.102348935604E+01
  0.418254137039E+01  0.757896304131E+00  0.102348935604E+01
  0.474921894073E+01  0.317279767990E+01 -0.760521173477E+00
  0.474921894073E+01  0.317279767990E+01  0.760521173477E+00
  0.499661636353E+01  0.499661636353E+01  0.000000000000E+00
  0.521361970901E+01  0.178897356987E+01 -0.102348971367E+01
  0.521361970901E+01  0.178897356987E+01  0.102348971367E+01
  0.547008323669E+01  0.499661636353E+01 -0.436294585466E+00
  0.547008323669E+01  0.499661636353E+01  0.436294585466E+00
  0.611307668686E+01  0.000000000000E+00 -0.114008128643E+01
  0.611307668686E+01  0.000000000000E+00  0.114008128643E+01
  0.657303857803E+01  0.499661636353E+01 -0.760521650314E+00
  0.657303857803E+01  0.499661636353E+01  0.760521650314E+00
  0.659744548798E+01  0.317279767990E+01 -0.102349019051E+01
  0.659744548798E+01  0.317279767990E+01  0.102349019051E+01
  0.687097454071E+01  0.757896304131E+00 -0.114008152485E+01
  0.687097454071E+01  0.757896304131E+00  0.114008152485E+01
  0.734362459183E+01  0.734362459183E+01  0.000000000000E+00
  0.781709194183E+01  0.734362459183E+01 -0.436294913292E+00
  0.781709194183E+01  0.734362459183E+01  0.436294913292E+00
  0.790205335617E+01  0.178897356987E+01 -0.114008200169E+01
  0.790205335617E+01  0.178897356987E+01  0.114008200169E+01
  0.842126560211E+01  0.499661636353E+01 -0.102349078655E+01
  0.842126560211E+01  0.499661636353E+01  0.102349078655E+01
  0.892004776001E+01  0.734362459183E+01 -0.760522186756E+00
  0.892004776001E+01  0.734362459183E+01  0.760522186756E+00
  0.928588008881E+01  0.317279767990E+01 -0.114008247852E+01
  0.928588008881E+01  0.317279767990E+01  0.114008247852E+01
  0.939508819580E+01  0.000000000000E+00 -0.980745851994E+00
  0.939508819580E+01  0.000000000000E+00  0.980745851994E+00
  0.101529865265E+02  0.757896304131E+00 -0.980746090412E+00
  0.101529865265E+02  0.757896304131E+00  0.980746090412E+00
  0.102728376389E+02  0.102728376389E+02  0.000000000000E+00
  0.107463054657E+02  0.102728376389E+02 -0.436295330524E+00
  0.107463054657E+02  0.102728376389E+02  0.436295330524E+00
  0.107682771683E+02  0.734362459183E+01 -0.102349150181E+01
  0.107682771683E+02  0.734362459183E+01  0.102349150181E+01
  0.111097030640E+02  0.499661636353E+01 -0.114008307457E+01
  0.111097030640E+02  0.499661636353E+01  0.114008307457E+01
  0.111840667725E+02  0.178897356987E+01 -0.980746388435E+00
  0.111840667725E+02  0.178897356987E+01  0.980746388435E+00
  0.118492631912E+02  0.102728376389E+02 -0.760522902012E+00
  0.118492631912E+02  0.102728376389E+02  0.760522902012E+00
  0.125678949356E+02  0.317279767990E+01 -0.980746865273E+00
  0.125678949356E+02  0.317279767990E+01  0.980746865273E+00
  0.126670312881E+02  0.000000000000E+00 -0.678052663803E+00
  0.126670312881E+02  0.000000000000E+00  0.678052663803E+00
  0.134249305725E+02  0.757896304131E+00 -0.678052842617E+00
  0.134249305725E+02  0.757896304131E+00  0.678052842617E+00
  0.134567155838E+02  0.734362459183E+01 -0.114008402824E+01
  0.134567155838E+02  0.734362459183E+01  0.114008402824E+01
  0.136974935532E+02  0.102728376389E+02 -0.102349245548E+01
  0.136974935532E+02  0.102728376389E+02  0.102349245548E+01
  0.137921218872E+02  0.137921218872E+02  0.000000000000E+00
  0.142655897141E+02  0.137921218872E+02 -0.436295837164E+00
  0.142655897141E+02  0.137921218872E+02  0.436295837164E+00
  0.143917188644E+02  0.499661636353E+01 -0.980747401714E+00
  0.143917188644E+02  0.499661636353E+01  0.980747401714E+00
  0.144560117722E+02  0.178897356987E+01 -0.678053081036E+00
  0.144560117722E+02  0.178897356987E+01  0.678053081036E+00
  0.153437566757E+02  0.000000000000E+00 -0.393031150103E+00
  0.153437566757E+02  0.000000000000E+00  0.393031150103E+00
  0.153685483932E+02  0.137921218872E+02 -0.760523796082E+00
  0.153685483932E+02  0.137921218872E+02  0.760523796082E+00
  0.158398418427E+02  0.317279767990E+01 -0.678053379059E+00
  0.158398418427E+02  0.317279767990E+01  0.678053379059E+00
  0.161016559601E+02  0.757896304131E+00 -0.393031239510E+00
  0.161016559601E+02  0.757896304131E+00  0.393031239510E+00
  0.163859348297E+02  0.102728376389E+02 -0.114008510113E+01
  0.163859348297E+02  0.102728376389E+02  0.114008510113E+01
  0.167387351990E+02  0.734362459183E+01 -0.980748176575E+00
  0.167387351990E+02  0.734362459183E+01  0.980748176575E+00
  0.171327381134E+02  0.178897356987E+01 -0.393031388521E+00
  0.171327381134E+02  0.178897356987E+01  0.393031388521E+00
  0.172004318237E+02  0.000000000000E+00 -0.192506864667E+00
  0.172004318237E+02  0.000000000000E+00  0.192506864667E+00
  0.172167816162E+02  0.137921218872E+02 -0.102349364758E+01
  0.172167816162E+02  0.137921218872E+02  0.102349364758E+01
  0.176636676788E+02  0.499661636353E+01 -0.678053736687E+00
  0.176636676788E+02  0.499661636353E+01  0.678053736687E+00
  0.178320064545E+02  0.178320064545E+02  0.000000000000E+00
  0.179583320618E+02  0.757896304131E+00 -0.192506924272E+00
  0.179583320618E+02  0.757896304131E+00  0.192506924272E+00
  0.183054752350E+02  0.178320064545E+02 -0.436296403408E+00
  0.183054752350E+02  0.178320064545E+02  0.436296403408E+00
  0.183450412750E+02  0.000000000000E+00 -0.698660761118E-01
  0.183450412750E+02  0.000000000000E+00  0.698660761118E-01
  0.185165691376E+02  0.317279767990E+01 -0.393031567335E+00
  0.185165691376E+02  0.317279767990E+01  0.393031567335E+00
  0.189894161224E+02  0.178897356987E+01 -0.192506983876E+00
  0.189894161224E+02  0.178897356987E+01  0.192506983876E+00
  0.190000000000E+02  0.000000000000E+00  0.000000000000E+00
  0.191029415131E+02  0.757896304131E+00 -0.698660910130E-01
  0.191029415131E+02  0.757896304131E+00  0.698660910130E-01
  0.194084339142E+02  0.178320064545E+02 -0.760524809361E+00
  0.194084339142E+02  0.178320064545E+02  0.760524809361E+00
  0.196679573059E+02  0.102728376389E+02 -0.980749070644E+00
  0.196679573059E+02  0.102728376389E+02  0.980749070644E+00
  0.197579002380E+02  0.757896304131E+00  0.000000000000E+00
  0.199052257538E+02  0.137921218872E+02 -0.114008641243E+01
  0.199052257538E+02  0.137921218872E+02  0.114008641243E+01
  0.200106849670E+02  0.734362459183E+01 -0.678054273129E+00
  0.200106849670E+02  0.734362459183E+01  0.678054273129E+00
  0.201340255737E+02  0.178897356987E+01 -0.698661133647E-01
  0.201340255737E+02  0.178897356987E+01  0.698661133647E-01
  0.203403968811E+02  0.499661636353E+01 -0.393031775951E+00
  0.203403968811E+02  0.499661636353E+01  0.393031775951E+00
  0.203732471466E+02  0.317279767990E+01 -0.192507073283E+00
  0.203732471466E+02  0.317279767990E+01  0.192507073283E+00
  0.207889842987E+02  0.178897356987E+01  0.000000000000E+00
  0.212566699982E+02  0.178320064545E+02 -0.102349495888E+01
  0.212566699982E+02  0.178320064545E+02  0.102349495888E+01
  0.215178565979E+02  0.317279767990E+01 -0.698661431670E-01
  0.215178565979E+02  0.317279767990E+01  0.698661431670E-01
  0.221728172302E+02  0.317279767990E+01  0.000000000000E+00
  0.221970767975E+02  0.499661636353E+01 -0.192507177591E+00
  0.221970767975E+02  0.499661636353E+01  0.192507177591E+00
  0.222339305878E+02  0.222339305878E+02  0.000000000000E+00
  0.226874179840E+02  0.734362459183E+01 -0.393032073975E+00
  0.226874179840E+02  0.734362459183E+01  0.393032073975E+00
  0.227074012756E+02  0.222339305878E+02 -0.436297029257E+00
  0.227074012756E+02  0.222339305878E+02  0.436297029257E+00
  0.229399108887E+02  0.102728376389E+02 -0.678054928780E+00
  0.229399108887E+02  0.102728376389E+02  0.678054928780E+00
  0.231872520447E+02  0.137921218872E+02 -0.980750203133E+00
  0.231872520447E+02  0.137921218872E+02  0.980750203133E+00
  0.233416862488E+02  0.499661636353E+01 -0.698661878705E-01
  0.233416862488E+02  0.499661636353E+01  0.698661878705E-01
  0.238103618622E+02  0.222339305878E+02 -0.760525882244E+00
  0.238103618622E+02  0.222339305878E+02  0.760525882244E+00
  0.239451179504E+02  0.178320064545E+02 -0.114008784294E+01
  0.239451179504E+02  0.178320064545E+02  0.114008784294E+01
  0.239966468811E+02  0.499661636353E+01  0.000000000000E+00
  0.245440979004E+02  0.734362459183E+01 -0.192507326603E+00
  0.245440979004E+02  0.734362459183E+01  0.192507326603E+00
  0.256166458130E+02  0.102728376389E+02 -0.393032461405E+00
  0.256166458130E+02  0.102728376389E+02  0.393032461405E+00
  0.256585998535E+02  0.222339305878E+02 -0.102349650860E+01
  0.256585998535E+02  0.222339305878E+02  0.102349650860E+01
  0.256887092590E+02  0.734362459183E+01 -0.698662400246E-01
  0.256887092590E+02  0.734362459183E+01  0.698662400246E-01
[...]
CELL_DATA                 904
SCALARS C_p_inc float 1
LOOKUP_TABLE default
  0.165092888368E+00
  0.142226724448E+00
  0.109146390898E+00
  0.919758493242E-01
  0.755725315856E-01
  0.665932249859E-01
  0.478742749948E-01
  0.410418553501E-01
  0.235262607740E-01
  0.187960631261E-01
  0.282334703290E-01
  0.224755668959E-01
  0.125149417673E+00
  0.929101037244E-01
  0.273250678547E+00
  0.228683187414E+00
  0.478409322402E+00
  0.434294584410E+00
  0.701290016178E+00
  0.693426537908E+00
 -0.282911638794E+00
  0.128818357455E+00
 -0.623048925914E+00
 -0.368382183240E+00
 -0.556339906003E+00
 -0.478008112067E+00
 -0.539914879499E+00
 -0.515885588877E+00
 -0.476754493201E+00
 -0.496947171724E+00
 -0.380341994527E+00
 -0.352246446932E+00
 -0.255282566559E+00
 -0.225153003900E+00
 -0.150437279561E+00
 -0.113975036633E+00
 -0.600800151116E-01
 -0.423296579076E-02
  0.566047551449E-01
  0.127516426333E+00
  0.160331749958E+00
  0.163716854262E+00
  0.112845759981E+00
  0.108951066268E+00
  0.846093161670E-01
  0.755619844557E-01
  0.541645487500E-01
  0.479200829712E-01
  0.257650891613E-01
  0.234773651181E-01
  0.224514861902E-01
  0.153666889149E-01
  0.941873831468E-01
  0.728919650745E-01
  0.225144446918E+00
  0.206203213531E+00
  0.402781819733E+00
  0.402337080323E+00
  0.577284648031E+00
  0.530924655487E+00
 -0.533742107844E+00
 -0.302420279318E+00
 -0.781427993588E+00
 -0.594558119695E+00
 -0.645716894918E+00
 -0.555228801727E+00
 -0.576719916642E+00
 -0.545284293067E+00
 -0.470396877906E+00
 -0.483395135349E+00
 -0.351877481735E+00
 -0.327441860351E+00
 -0.224629496685E+00
 -0.191826253736E+00
 -0.113809091966E+00
 -0.731111938406E-01
 -0.480668259107E-02
  0.288203059471E-01
  0.123179170983E+00
  0.133770175792E+00
  0.157292311996E+00
  0.159656537216E+00
  0.111053970851E+00
  0.112558635126E+00
  0.879297557072E-01
  0.845212206453E-01
  0.599540194353E-01
  0.541998746961E-01
  0.286324198449E-01
  0.257795990195E-01
  0.157180484750E-01
  0.121577700069E-01
  0.736008468593E-01
  0.633529286347E-01
  0.201685582565E+00
  0.195084351747E+00
  0.387294985195E+00
  0.393158707079E+00
  0.515109427868E+00
  0.465965493953E+00
 -0.740519861543E+00
 -0.540878464607E+00
 -0.922959074698E+00
 -0.761501591489E+00
 -0.724488091558E+00
 -0.639701405552E+00
 -0.609194884790E+00
 -0.581027782504E+00
 -0.466513440407E+00
 -0.479404525182E+00
 -0.327524745337E+00
 -0.302554360273E+00
 -0.191301989486E+00
 -0.157974351129E+00
 -0.730743314739E-01
 -0.435471247798E-01
  0.279039640188E-01
  0.430463044492E-01
  0.131703286887E+00
  0.137139011731E+00
  0.156250778767E+00
  0.156783516339E+00
  0.109481227955E+00
  0.110799457124E+00
  0.875771790437E-01
  0.877939351760E-01
  0.629132919717E-01
  0.599597582313E-01
  0.321718299898E-01
  0.287133163106E-01
  0.123306618510E-01
  0.130042721612E-01
  0.634617286894E-01
  0.617972339251E-01
  0.192334657172E+00
  0.194745174051E+00
  0.386673959628E+00
  0.395543270631E+00
  0.466929063170E+00
  0.417879884016E+00
 -0.921302519669E+00
 -0.742087652848E+00
 -0.104589636011E+01
 -0.910150374367E+00
 -0.790942393425E+00
 -0.721542618409E+00
 -0.636398920233E+00
 -0.615254605914E+00
 -0.461844997130E+00
 -0.476600163247E+00
 -0.303111411047E+00
 -0.278931020058E+00
 -0.157607459260E+00
 -0.131846764707E+00
 -0.436293174905E-01
 -0.270153972399E-01
  0.425779241494E-01
  0.508640073305E-01
  0.136334820531E+00
  0.139712527958E+00
  0.155911275816E+00
  0.155769572493E+00
  0.108653319097E+00
  0.109230912337E+00
  0.867496027237E-01
  0.874250921568E-01
  0.634923963601E-01
  0.628727075428E-01
  0.349369105850E-01
  0.322714043701E-01
  0.130426501600E-01
  0.166837902849E-01
  0.617645349619E-01
  0.662648051036E-01
  0.193758180607E+00
  0.201948754396E+00
  0.394520502544E+00
  0.404808424306E+00
  0.426529660339E+00
  0.379051570455E+00
 -0.107646447460E+01
 -0.920924093996E+00
 -0.114738201996E+01
 -0.103978475633E+01
 -0.843089226477E+00
 -0.791914957668E+00
 -0.656071411126E+00
 -0.643860157759E+00
 -0.456697342283E+00
 -0.471603568173E+00
 -0.279723651150E+00
 -0.261195515325E+00
 -0.131766549978E+00
 -0.116473240032E+00
 -0.270406436265E-01
 -0.179907716941E-01
  0.508203058314E-01
  0.558008274282E-01
  0.139732665155E+00
  0.142364812361E+00
  0.156074140580E+00
  0.155428588407E+00
  0.108374975805E+00
  0.108386775120E+00
  0.862878715843E-01
  0.865760065276E-01
  0.635109520442E-01
  0.634149169070E-01
  0.366055958652E-01
  0.350011452859E-01
  0.167050913813E-01
  0.210373625448E-01
  0.662578289226E-01
  0.736653384686E-01
  0.202062016834E+00
  0.212800449370E+00
  0.406707290279E+00
  0.416835859841E+00
  0.390706558280E+00
  0.347219934048E+00
 -0.120303443577E+01
 -0.107582347160E+01
 -0.122583122382E+01
 -0.114609154368E+01
 -0.881204321208E+00
 -0.846546500579E+00
 -0.669622861658E+00
 -0.663417649424E+00
 -0.453950064901E+00
 -0.464364825733E+00
 -0.262104270733E+00
 -0.251518759968E+00
 -0.116610972058E+00
 -0.108722999302E+00
 -0.179512276592E-01
 -0.130487008163E-01
  0.560063481903E-01
  0.590416987602E-01
  0.142821133350E+00
  0.144712707360E+00
  0.156349930176E+00
  0.155562014981E+00
  0.108288380687E+00
  0.108080897111E+00
  0.860686805546E-01
  0.860878164506E-01
  0.635800757315E-01
  0.634028140765E-01
  0.378200937063E-01
  0.366215500157E-01
  0.210677940734E-01
  0.248029563874E-01
  0.736840415316E-01
  0.810065134716E-01
  0.213302171746E+00
  0.223657907959E+00
  0.419571453616E+00
  0.428194260117E+00
  0.358259709872E+00
  0.321366855365E+00
 -0.130076872744E+01
 -0.120265903487E+01
 -0.128351721079E+01
 -0.122679271461E+01
 -0.908542836728E+00
 -0.884967007334E+00
 -0.680232174971E+00
 -0.675198045667E+00
 -0.454554722966E+00
 -0.458878398434E+00
 -0.252479329802E+00
 -0.247668010344E+00
 -0.108977614345E+00
 -0.105122518139E+00
 -0.129915546000E-01
 -0.102431050797E-01
  0.593542925766E-01
  0.613460557043E-01
  0.145378711858E+00
  0.146870805742E+00
  0.156269321820E+00
  0.155782383796E+00
  0.107890287295E+00
  0.107953847578E+00
  0.855950643392E-01
  0.858368824367E-01
  0.633975331862E-01
  0.634440824817E-01
  0.385962943331E-01
  0.377964281933E-01
  0.248249352982E-01
  0.275987873544E-01
  0.810039420460E-01
  0.867556149428E-01
  0.224077846513E+00
  0.232294712726E+00
  0.430457714979E+00
  0.436904141079E+00
  0.329679197199E+00
  0.300880663453E+00
 -0.137297969137E+01
 -0.130058190820E+01
 -0.132498869494E+01
 -0.128470821432E+01
 -0.928433725234E+00
 -0.911253683429E+00
 -0.689001259623E+00
 -0.683713195790E+00
 -0.456720385874E+00
 -0.457474107648E+00
 -0.248607902496E+00
 -0.246507244938E+00
 -0.105436417680E+00
 -0.103184419322E+00
 -0.102004304950E-01
 -0.813889563960E-02
  0.616892331069E-01
  0.635221248296E-01
  0.147629297673E+00
  0.149269686712E+00
  0.155408020101E+00
  0.155599047819E+00
  0.106604631767E+00
  0.107488291000E+00
  0.841937777004E-01
  0.853168844386E-01
  0.622687803085E-01
  0.632308937523E-01
  0.383268037930E-01
  0.385423040518E-01
  0.276032519402E-01
  0.289133375176E-01
  0.867038313630E-01
  0.902873607757E-01
  0.232470918144E+00
  0.237973254317E+00
  0.438285783291E+00
  0.442547840884E+00
  0.306178731636E+00
  0.285733739924E+00
 -0.142307438742E+01
 -0.137284047652E+01
 -0.135328054401E+01
 -0.132576057177E+01
 -0.942014028710E+00
 -0.930131762569E+00
 -0.695128700826E+00
 -0.691185368958E+00
 -0.458282006514E+00
 -0.458679558832E+00
 -0.247394287492E+00
 -0.245547729950E+00
 -0.103536173684E+00
 -0.101049925061E+00
 -0.812393174524E-02
 -0.545833237552E-02
  0.638735276177E-01
  0.664707468766E-01
  0.150099285911E+00
  0.152510047650E+00
  0.153472931283E+00
  0.154531330634E+00
  0.103817277065E+00
  0.106072204293E+00
  0.810700400392E-01
  0.838304449323E-01
  0.593046578931E-01
  0.620551005612E-01
  0.361226754785E-01
  0.382450245351E-01
  0.288918136457E-01
  0.279714985146E-01
  0.901560145766E-01
  0.910453702785E-01
  0.237859108003E+00
  0.240428567235E+00
  0.443072508159E+00
  0.445330882533E+00
  0.288604248132E+00
  0.276489231146E+00
 -0.145243170074E+01
 -0.142296752386E+01
 -0.136921500538E+01
 -0.135385647937E+01
 -0.948950622690E+00
 -0.943317345376E+00
 -0.697298196859E+00
 -0.696917765149E+00
 -0.457362525137E+00
 -0.460064783751E+00
 -0.246396004152E+00
 -0.242833322335E+00
 -0.101450369651E+00
 -0.970805216330E-01
 -0.547980317695E-02
 -0.854002893831E-03
  0.668458115627E-01
  0.712848949821E-01
  0.153476973467E+00
  0.157361106553E+00
  0.150034349852E+00
  0.152175882967E+00
  0.988405137735E-01
  0.103020136163E+00
  0.753292513118E-01
  0.805344080484E-01
  0.534673329586E-01
  0.590002983403E-01
  0.309162271513E-01
  0.360031047330E-01
  0.279007685530E-01
  0.238067567464E-01
  0.907785105263E-01
  0.883180714168E-01
  0.239941217382E+00
  0.239307939018E+00
  0.444993297467E+00
  0.445358994450E+00
  0.277354047049E+00
  0.273784844716E+00
 -0.146100592372E+01
 -0.145239849986E+01
 -0.137245558518E+01
 -0.136997101576E+01
 -0.948373716661E+00
 -0.950433333411E+00
 -0.694112204526E+00
 -0.699385958795E+00
 -0.452218353433E+00
 -0.459573101555E+00
 -0.243692634204E+00
 -0.236537393102E+00
 -0.975782381959E-01
 -0.894853454280E-01
 -0.935522676469E-03
  0.738479115726E-02
  0.717196448519E-01
  0.795717450123E-01
  0.158619152387E+00
  0.165327469469E+00
  0.145133198248E+00
  0.147952806522E+00
  0.914126176038E-01
  0.975302801142E-01
  0.663899074831E-01
  0.744483155890E-01
  0.438368001218E-01
  0.529766282752E-01
  0.215542932654E-01
  0.307264027720E-01
  0.236332583920E-01
  0.152683092427E-01
  0.878186762053E-01
  0.811995849370E-01
  0.238277022565E+00
  0.234075302276E+00
  0.443969289162E+00
  0.442481439762E+00
  0.272597172505E+00
  0.277854491326E+00
 -0.144865564793E+01
 -0.146108689632E+01
 -0.136251432019E+01
 -0.137370215463E+01
 -0.939385650341E+00
 -0.950501849785E+00
 -0.684177377848E+00
 -0.697115633100E+00
 -0.441016926223E+00
 -0.455507319559E+00
 -0.237480066168E+00
 -0.224644067948E+00
 -0.901809412815E-01
 -0.761412835001E-01
  0.717241923742E-02
  0.213284840126E-01
  0.800830067014E-01
  0.933123490001E-01
  0.167077230937E+00
  0.178361937434E+00
  0.139145197347E+00
  0.141715885861E+00
  0.820607316036E-01
  0.891817342650E-01
  0.547431418581E-01
  0.648524686589E-01
  0.304945348604E-01
  0.429624024621E-01
  0.734270046827E-02
  0.212133676110E-01
  0.148686818556E-01
  0.114294668241E-02
  0.802981163727E-01
  0.685448392204E-01
  0.232200770850E+00
  0.223982399031E+00
  0.439615855713E+00
  0.436294187783E+00
  0.274080926366E+00
  0.288243088373E+00
 -0.141617820288E+01
 -0.144887390990E+01
 -0.133941106065E+01
 -0.136449950498E+01
 -0.921343544972E+00
 -0.942601972245E+00
 -0.666115716643E+00
 -0.688817362645E+00
 -0.421666614513E+00
 -0.446316241876E+00
 -0.225750699686E+00
 -0.204899557323E+00
 -0.772256053511E-01
 -0.549711007956E-01
  0.207885992126E-01
  0.426899509590E-01
  0.937852648091E-01
  0.114106999261E+00
  0.180720205829E+00
  0.198368727535E+00
  0.131394302755E+00
  0.133617258485E+00
  0.707595313719E-01
  0.783199311248E-01
  0.414203627692E-01
  0.520689646477E-01
  0.152428792811E-01
  0.288647486829E-01
 -0.105155754918E-01
  0.664909085236E-02
  0.219202818789E-03
 -0.190733586014E-01
  0.669186315612E-01
  0.489443363433E-01
  0.220741920396E+00
  0.207925917729E+00
  0.431204676552E+00
  0.426085626877E+00
  0.280806683401E+00
  0.303725095545E+00
 -0.136572664625E+01
 -0.141653144815E+01
 -0.130393421064E+01
 -0.134233311282E+01
 -0.893913395302E+00
 -0.926147018676E+00
 -0.638446596501E+00
 -0.673428419590E+00
 -0.391710068809E+00
 -0.430547066180E+00
 -0.206272187120E+00
 -0.175579272461E+00
 -0.568295702807E-01
 -0.256464314564E-01
  0.413026816833E-01
  0.709556393098E-01
  0.113989980685E+00
  0.141477697505E+00
  0.200951344876E+00
  0.225429992570E+00
  0.117032786524E+00
  0.122323639365E+00
  0.539106541252E-01
  0.645734911827E-01
  0.249878637557E-01
  0.369406534484E-01
 -0.719764069063E-03
  0.122898013657E-01
 -0.285251886189E-01
 -0.120236617482E-01
 -0.211813180936E-01
 -0.428449251105E-01
  0.459123274728E-01
  0.212164129549E-01
  0.202331896282E+00
  0.184054427160E+00
  0.417452810111E+00
  0.410590689465E+00
  0.290772667733E+00
  0.322459618283E+00
 -0.130046998412E+01
 -0.136617871633E+01
 -0.125737551775E+01
 -0.130794523620E+01
 -0.856637194918E+00
 -0.901003289905E+00
 -0.598934825323E+00
 -0.650276180034E+00
 -0.348949940046E+00
 -0.407070037128E+00
 -0.177469718718E+00
 -0.138416090511E+00
 -0.290530150276E-01
  0.813746004162E-02
  0.675131213105E-01
  0.102668307465E+00
  0.139229374984E+00
  0.173218482558E+00
  0.226640274418E+00
  0.258938250690E+00
  0.849662003176E-01
  0.101154078399E+00
  0.230965350386E-01
  0.434501221269E-01
  0.221570813891E-03
  0.176527985328E-01
 -0.198064425913E-01
 -0.574382414274E-02
 -0.452297347749E-01
 -0.316497831622E-01
 -0.472675313101E-01
 -0.639786639732E-01
  0.153977478551E-01
 -0.125367388220E-01
  0.174000424008E+00
  0.149227865989E+00
  0.395821057326E+00
  0.387279491887E+00
  0.300684691155E+00
  0.342274068919E+00
 -0.122355088851E+01
 -0.130094302248E+01
 -0.120052176399E+01
 -0.126263251838E+01
 -0.807320959070E+00
 -0.867449060185E+00
 -0.543603558882E+00
 -0.619339037321E+00
 -0.296151128444E+00
 -0.375604007563E+00
 -0.141441365614E+00
 -0.100866838923E+00
  0.180136580692E-02
  0.399602844056E-01
  0.948105062277E-01
  0.133564974266E+00
  0.165565438517E+00
  0.208092167436E+00
  0.254969053777E+00
  0.301242440614E+00
  0.973805061874E-02
  0.540718266430E-01
 -0.383754003411E-01
  0.439418294542E-02
 -0.418548327088E-01
 -0.119823362467E-01
 -0.474872197882E-01
 -0.281096083055E-01
 -0.639846383688E-01
 -0.511573239661E-01
 -0.722948759645E-01
 -0.805260659011E-01
 -0.232743985193E-01
 -0.431802344489E-01
  0.130129840984E+00
  0.100756685986E+00
  0.360248386246E+00
  0.350338622175E+00
  0.304771420893E+00
  0.360737251158E+00
 -0.113639411027E+01
 -0.122391407081E+01
 -0.113094110067E+01
 -0.120750185841E+01
 -0.737405036382E+00
 -0.826295657581E+00
 -0.473042948814E+00
 -0.580542718144E+00
 -0.245014313109E+00
 -0.340266626828E+00
 -0.106132051897E+00
 -0.720484928043E-01
  0.281607764141E-01
  0.626002463892E-01
  0.116854287297E+00
  0.158566728032E+00
  0.188393737402E+00
  0.246803192791E+00
  0.283240278778E+00
  0.363495051705E+00
 -0.215957298964E+00
 -0.574142565601E-01
 -0.160727316592E+00
 -0.761287116466E-01
 -0.120637493899E+00
 -0.643757353926E-01
 -0.944610024828E-01
 -0.623049407549E-01
 -0.926269719611E-01
 -0.751460759792E-01
 -0.955286151947E-01
 -0.982363509997E-01
 -0.618633252126E-01
 -0.672503489520E-01
  0.651834210059E-01
  0.464560493246E-01
  0.293061157413E+00
  0.285154547385E+00
  0.287901442952E+00
  0.374024527112E+00
 -0.103468607825E+01
 -0.113645191234E+01
 -0.103175658282E+01
 -0.114272411884E+01
 -0.632056649501E+00
 -0.777997187115E+00
 -0.407101598299E+00
 -0.537195031183E+00
 -0.206506667458E+00
 -0.316569798319E+00
 -0.826070322894E-01
 -0.631723942698E-01
  0.388433661379E-01
  0.630352560726E-01
  0.122094927153E+00
  0.162752899953E+00
  0.198891114395E+00
  0.290423694365E+00
  0.303424064936E+00
  0.445307002861E+00
 -0.493366091282E+03
 -0.138153739823E+01
 -0.172092029314E+01
 -0.277456786517E+00
 -0.309797522807E+00
 -0.191768404938E+00
 -0.214727777577E+00
 -0.136490876217E+00
 -0.160976371329E+00
 -0.121498976264E+00
 -0.134447515325E+00
 -0.133578641341E+00
 -0.104830068035E+00
 -0.105131853331E+00
 -0.237117937680E-01
 -0.232090742079E-01
  0.141616939639E+00
  0.159800863478E+00
  0.150647458138E+00
  0.348177996453E+00
 -0.851487949990E+00
 -0.103455568433E+01
 -0.796972069064E+00
 -0.107888214070E+01
 -0.525283910292E+00
 -0.727581167740E+00
 -0.374691394911E+00
 -0.527847448069E+00
 -0.196816483697E+00
 -0.351128176110E+00
 -0.104478218328E+00
 -0.122686675659E+00
 -0.160048434502E-01
 -0.300828530498E-01
  0.328681760385E-01
  0.445729980279E-01
  0.108418161941E+00
 -0.336528639912E+00
  0.502063516044E+00
 -0.518853886865E+03
 -0.125804381689E+04
 -0.184429350284E+02
 -0.153640113798E+01
 -0.108956283703E+01
 -0.605236735545E+00
 -0.605903567942E+00
 -0.342577294067E+00
 -0.352979593324E+00
 -0.238012995383E+00
 -0.242397316327E+00
 -0.219894380515E+00
 -0.196195551045E+00
 -0.206615122512E+00
 -0.159302690830E+00
 -0.186809032731E+00
 -0.115002172616E+00
 -0.132162829427E+00
 -0.133687809883E+00
 -0.849590907241E+00
 -0.695173802097E+00
 -0.908568831319E+00
 -0.548639257680E+00
 -0.688874798051E+00
 -0.441013141874E+00
 -0.582035248243E+00
 -0.287832721350E+00
 -0.505256791621E+00
 -0.239672406928E+00
 -0.418577488370E+00
 -0.264813135036E+00
 -0.607772426820E+00
 -0.445054146396E+00
 -0.117741100757E+01
 -0.267351764072E+01
 -0.164847133223E+01
 -0.114346575767E+04
 -0.135237713829E+04
 -0.545065356384E+02
 -0.217831041779E+01
 -0.176961212184E+01
 -0.101884501240E+01
 -0.102591000601E+01
 -0.577598234985E+00
 -0.593839014965E+00
 -0.389195460838E+00
 -0.398203123904E+00
 -0.339643970623E+00
 -0.324942926034E+00
 -0.330433077892E+00
 -0.300013759414E+00
 -0.338311520150E+00
 -0.292669255888E+00
 -0.350344316781E+00
 -0.267050504259E+00
 -0.815596060434E+00
 -0.698417578634E+00
 -0.839348246498E+00
 -0.608941911640E+00
 -0.697381955294E+00
 -0.530276272168E+00
 -0.641743612977E+00
 -0.403432125457E+00
 -0.645883765405E+00
 -0.420683035767E+00
 -0.678920557968E+00
 -0.560087857773E+00
 -0.107564208219E+01
 -0.952248980774E+00
 -0.217132996003E+01
 -0.440770178646E+01
 -0.114957732008E+02
 -0.117524202244E+04
 -0.108362672586E+04
 -0.504990189753E+02
 -0.322745584217E+01
 -0.247056081756E+01
 -0.138642716247E+01
 -0.140990916161E+01
 -0.791448713529E+00
 -0.823008603493E+00
 -0.530135282909E+00
 -0.551349872044E+00
 -0.458429292159E+00
 -0.454586832358E+00
 -0.449091972382E+00
 -0.429392325933E+00
 -0.466643924416E+00
 -0.438286282007E+00
 -0.513148272910E+00
 -0.383839666418E+00
 -0.733253472636E+00
 -0.704193624159E+00
 -0.755323213708E+00
 -0.638694167739E+00
 -0.672802486403E+00
 -0.581315781739E+00
 -0.661830875789E+00
 -0.493079972337E+00
 -0.730062042321E+00
 -0.567069310667E+00
 -0.874220396035E+00
 -0.804178752112E+00
 -0.143924536113E+01
 -0.136803062782E+01
 -0.286296354792E+01
 -0.577619591897E+01
 -0.673233760693E+01
 -0.920261010980E+03
 -0.743856640596E+03
 -0.217860825943E+02
 -0.464482684497E+01
 -0.303100844179E+01
 -0.159555422607E+01
 -0.167085191944E+01
 -0.917236901509E+00
 -0.987943580743E+00
 -0.614661548616E+00
 -0.664471006000E+00
 -0.545072595302E+00
 -0.562141336048E+00
 -0.544031980421E+00
 -0.539664816052E+00
 -0.565283947687E+00
 -0.563016584655E+00
 -0.623239885277E+00
 -0.503761074521E+00
 -0.623595107517E+00
 -0.695423058789E+00
 -0.659015641377E+00
 -0.629099118662E+00
 -0.617600080437E+00
 -0.585694604161E+00
 -0.637624008538E+00
 -0.539145187084E+00
 -0.747504190139E+00
 -0.651276317891E+00
 -0.973391970352E+00
 -0.949568582858E+00
 -0.163835413271E+01
 -0.161669407994E+01
 -0.314721406909E+01
 -0.589427717131E+01
 -0.267374322039E+01
 -0.676430759708E+03
SCALARS sigma float 1
LOOKUP_TABLE default
  0.401011190208E-01
  0.401011414003E-01
  0.396335872354E-01
  0.396336255157E-01
  0.387900046618E-01
  0.387899661795E-01
  0.402896179244E-01
  0.402896503847E-01
  0.541026487334E-01
  0.541026402517E-01
  0.978254353536E-01
  0.978254425257E-01
  0.188631430607E+00
  0.188631423359E+00
  0.281202295153E+00
  0.281202284257E+00
  0.403419230910E+00
  0.403419216587E+00
  0.643892267737E+00
  0.643892265323E+00
  0.466029167989E+00
  0.466029185745E+00
  0.133637365540E+00
  0.133637385795E+00
 -0.522288817858E-02
 -0.522287491214E-02
 -0.102986679407E+00
 -0.102986671622E+00
 -0.193654422404E+00
 -0.193654428948E+00
 -0.235594570132E+00
 -0.235594561116E+00
 -0.248619018865E+00
 -0.248619052865E+00
 -0.250026626280E+00
 -0.250026587257E+00
 -0.249234920289E+00
 -0.249234957991E+00
 -0.248796025416E+00
 -0.248796047016E+00
  0.401010847439E-01
  0.401011183057E-01