# vtk DataFile Version 3.0
MachLine results file. Generated by MachLine, USU AeroLab (c) 2022.
ASCII
DATASET POLYDATA
POINTS                 482 float
  0.130247308752E-04  0.000000000000E+00  0.000000000000E+00
  0.473471998374E+00  0.000000000000E+00 -0.436280480279E+00
  0.473471998374E+00  0.000000000000E+00  0.436280480279E+00
  0.757906115597E+00  0.757886492666E+00  0.970884839498E-21
  0.123136895910E+01  0.757889807076E+00 -0.436282030868E+00
  0.123136895910E+01  0.757889807076E+00  0.436282030868E+00
  0.157642335882E+01  0.000000000000E+00 -0.760501285105E+00
  0.157642335882E+01  0.000000000000E+00  0.760501285105E+00
  0.178898577720E+01  0.178896136254E+01  0.402655090288E-21
  0.226244758528E+01  0.178896571238E+01 -0.436279675842E+00
  0.226244758528E+01  0.178896571238E+01  0.436279675842E+00
  0.233432052349E+01  0.757892272727E+00 -0.760501900766E+00
  0.233432052349E+01  0.757892272727E+00  0.760501900766E+00
  0.317281291859E+01  0.317278244121E+01 -0.502643732574E-21
  0.336539878957E+01  0.178896889576E+01 -0.760499161643E+00
  0.336539878957E+01  0.178896889576E+01  0.760499161643E+00
  0.342464590410E+01  0.000000000000E+00 -0.102346395851E+01
  0.342464590410E+01  0.000000000000E+00  0.102346395851E+01
  0.364627391137E+01  0.317278808318E+01 -0.436276653421E+00
  0.364627391137E+01  0.317278808318E+01  0.436276653421E+00
  0.418254366712E+01  0.757894007404E+00 -0.102346449441E+01
  0.418254366712E+01  0.757894007404E+00  0.102346449441E+01
  0.474922443846E+01  0.317279218218E+01 -0.760495703661E+00
  0.474922443846E+01  0.317279218218E+01  0.760495703661E+00
  0.499663525975E+01  0.499659746731E+01  0.623286393957E-21
  0.521362228604E+01  0.178897099285E+01 -0.102346181793E+01
  0.521362228604E+01  0.178897099285E+01  0.102346181793E+01
  0.547009495982E+01  0.499660464040E+01 -0.436273007752E+00
  0.547009495982E+01  0.499660464040E+01  0.436273007752E+00
  0.611307615049E+01  0.000000000000E+00 -0.114005132092E+01
  0.611307615049E+01  0.000000000000E+00  0.114005132092E+01
  0.657304508535E+01  0.499660985621E+01 -0.760491503240E+00
  0.657304508535E+01  0.499660985621E+01  0.760491503240E+00
  0.659744842488E+01  0.317279474301E+01 -0.102345839923E+01
  0.659744842488E+01  0.317279474301E+01  0.102345839923E+01
  0.687097446281E+01  0.757896382042E+00 -0.114005132102E+01
  0.687097446281E+01  0.757896382042E+00  0.114005132102E+01
  0.734364762990E+01  0.734360155376E+01  0.227971256176E-20
  0.781710611506E+01  0.734361041860E+01 -0.436268825882E+00
  0.781710611506E+01  0.734361041860E+01  0.436268825882E+00
  0.790205327048E+01  0.178897365557E+01 -0.114004877659E+01
  0.790205327048E+01  0.178897365557E+01  0.114004877659E+01
  0.842126898126E+01  0.499661298439E+01 -0.102345420801E+01
  0.842126898126E+01  0.499661298439E+01  0.102345420801E+01
  0.892005543328E+01  0.734361691857E+01 -0.760486638111E+00
  0.892005543328E+01  0.734361691857E+01  0.760486638111E+00
  0.928587999311E+01  0.317279777561E+01 -0.114004537243E+01
  0.928587999311E+01  0.317279777561E+01  0.114004537243E+01
  0.939508651117E+01  0.000000000000E+00 -0.980721943788E+00
  0.939508651117E+01  0.000000000000E+00  0.980721943788E+00
  0.101529844880E+02  0.757898342664E+00 -0.980717159871E+00
  0.101529844880E+02  0.757898342664E+00  0.980717159871E+00
  0.102728649761E+02  0.102728103017E+02  0.360684024404E-20
  0.107463222437E+02  0.102728208609E+02 -0.436264448741E+00
  0.107463222437E+02  0.102728208609E+02  0.436264448741E+00
  0.107682810595E+02  0.734362070066E+01 -0.102344938071E+01
  0.107682810595E+02  0.734362070066E+01  0.102344938071E+01
  0.111097029560E+02  0.499661647156E+01 -0.114004119345E+01
  0.111097029560E+02  0.499661647156E+01  0.114004119345E+01
  0.111840645989E+02  0.178897574353E+01 -0.980715540156E+00
  0.111840645989E+02  0.178897574353E+01  0.980715540156E+00
  0.118492721062E+02  0.102728287239E+02 -0.760481600830E+00
  0.118492721062E+02  0.102728287239E+02  0.760481600830E+00
  0.125678925784E+02  0.317280003715E+01 -0.980713411564E+00
  0.125678925784E+02  0.317280003715E+01  0.980713411564E+00
  0.126670289110E+02  0.000000000000E+00 -0.678028198026E+00
  0.126670289110E+02  0.000000000000E+00  0.678028198026E+00
  0.134249282109E+02  0.757898665790E+00 -0.678029104408E+00
  0.134249282109E+02  0.757898665790E+00  0.678029104408E+00
  0.134567154615E+02  0.734362471414E+01 -0.114003661032E+01
  0.134567154615E+02  0.734362471414E+01  0.114003661032E+01
  0.136974979908E+02  0.102728332013E+02 -0.102344441904E+01
  0.136974979908E+02  0.102728332013E+02  0.102344441904E+01
  0.137921531606E+02  0.137920906138E+02 -0.412617430891E-20
  0.142656089637E+02  0.137921026376E+02 -0.436260406143E+00
  0.142656089637E+02  0.137921026376E+02  0.436260406143E+00
  0.143917162623E+02  0.499661896565E+01 -0.980710472824E+00
  0.143917162623E+02  0.499661896565E+01  0.980710472824E+00
  0.144560092949E+02  0.178897604722E+01 -0.678028179987E+00
  0.144560092949E+02  0.178897604722E+01  0.678028179987E+00
  0.153437545560E+02  0.000000000000E+00 -0.393011337881E+00
  0.153437545560E+02  0.000000000000E+00  0.393011337881E+00
  0.153685584878E+02  0.137921117926E+02 -0.760477029805E+00
  0.153685584878E+02  0.137921117926E+02  0.760477029805E+00
  0.158398391737E+02  0.317280034896E+01 -0.678026550975E+00
  0.158398391737E+02  0.317280034896E+01  0.678026550975E+00
  0.161016539381E+02  0.757898326130E+00 -0.393012384982E+00
  0.161016539381E+02  0.757898326130E+00  0.393012384982E+00
  0.163859346921E+02  0.102728377765E+02 -0.114003176519E+01
  0.163859346921E+02  0.102728377765E+02  0.114003176519E+01
  0.167387322842E+02  0.734362750662E+01 -0.980706810415E+00
  0.167387322842E+02  0.734362750662E+01  0.980706810415E+00
  0.171327359313E+02  0.178897575201E+01 -0.393011040775E+00
  0.171327359313E+02  0.178897575201E+01  0.393011040775E+00
  0.172004302801E+02  0.000000000000E+00 -0.192492534141E+00
  0.172004302801E+02  0.000000000000E+00  0.192492534141E+00
  0.172167865738E+02  0.137921169296E+02 -0.102343998227E+01
  0.172167865738E+02  0.137921169296E+02  0.102343998227E+01
  0.176636647076E+02  0.499661933474E+01 -0.678023871616E+00
  0.176636647076E+02  0.499661933474E+01  0.678023871616E+00
  0.178320406685E+02  0.178319722405E+02 -0.338561949531E-20
  0.179583305519E+02  0.757897814089E+00 -0.192492887904E+00
  0.179583305519E+02  0.757897814089E+00  0.192492887904E+00
  0.183054964506E+02  0.178319852389E+02 -0.436257353844E+00
  0.183054964506E+02  0.178319852389E+02  0.436257353844E+00
  0.183450401686E+02  0.000000000000E+00 -0.698557350169E-01
  0.183450401686E+02  0.000000000000E+00  0.698557350169E-01
  0.185165666873E+02  0.317280013019E+01 -0.393008719136E+00
  0.185165666873E+02  0.317280013019E+01  0.393008719136E+00
  0.189894143765E+02  0.178897531578E+01 -0.192490754164E+00
  0.189894143765E+02  0.178897531578E+01  0.192490754164E+00
  0.189999910880E+02  0.000000000000E+00 -0.666223702100E-06
  0.191029403208E+02  0.757897496463E+00 -0.698549383524E-01
  0.191029403208E+02  0.757897496463E+00  0.698549383524E-01
  0.194084449479E+02  0.178319954208E+02 -0.760473692460E+00
  0.194084449479E+02  0.178319954208E+02  0.760473692460E+00
  0.196679540248E+02  0.102728409201E+02 -0.980702505042E+00
  0.196679540248E+02  0.102728409201E+02  0.980702505042E+00
  0.197578924863E+02  0.757904055872E+00 -0.817590626343E-06
  0.199052256017E+02  0.137921220393E+02 -0.114002743811E+01
  0.199052256017E+02  0.137921220393E+02  0.114002743811E+01
  0.200106815730E+02  0.734362798583E+01 -0.678020158371E+00
  0.200106815730E+02  0.734362798583E+01  0.678020158371E+00
  0.201340240748E+02  0.178897506881E+01 -0.698520928202E-01
  0.201340240748E+02  0.178897506881E+01  0.698520928202E-01
  0.203403940275E+02  0.499661921715E+01 -0.393005166852E+00
  0.203403940275E+02  0.499661921715E+01  0.393005166852E+00
  0.203732450409E+02  0.317279978560E+01 -0.192487498987E+00
  0.203732450409E+02  0.317279978560E+01  0.192487498987E+00
  0.207889742179E+02  0.178898365075E+01 -0.106324915596E-05
  0.212566753703E+02  0.178320010825E+02 -0.102343680753E+01
  0.212566753703E+02  0.178320010825E+02  0.102343680753E+01
  0.215178546867E+02  0.317279959111E+01 -0.698482663852E-01
  0.215178546867E+02  0.317279959111E+01  0.698482663852E-01
  0.221728041694E+02  0.317281074082E+01 -0.137756024601E-05
  0.221970742095E+02  0.499661895150E+01 -0.192483120200E+00
  0.221970742095E+02  0.499661895150E+01  0.192483120200E+00
  0.222339661801E+02  0.222338949955E+02 -0.352200781662E-20
  0.226874146054E+02  0.734362797048E+01 -0.393000569122E+00
  0.226874146054E+02  0.734362797048E+01  0.393000569122E+00
  0.227074235883E+02  0.222339082751E+02 -0.436255960272E+00
  0.227074235883E+02  0.222339082751E+02  0.436255960272E+00
  0.229399069889E+02  0.102728415388E+02 -0.678015729259E+00
  0.229399069889E+02  0.102728415388E+02  0.678015729259E+00
  0.231872483860E+02  0.137921255459E+02 -0.980698278886E+00
  0.231872483860E+02  0.137921255459E+02  0.980698278886E+00
  0.233416838233E+02  0.499661878904E+01 -0.698435004566E-01
  0.233416838233E+02  0.499661878904E+01  0.698435004566E-01
  0.238103734204E+02  0.222339190297E+02 -0.760472335773E+00
  0.238103734204E+02  0.222339190297E+02  0.760472335773E+00
  0.239451177867E+02  0.178320066182E+02 -0.114002437110E+01
  0.239451177867E+02  0.178320066182E+02  0.114002437110E+01
  0.239966302105E+02  0.499663303420E+01 -0.175828638870E-05
  0.245440947328E+02  0.734362775945E+01 -0.192477880815E+00
  0.245440947328E+02  0.734362775945E+01  0.192477880815E+00
  0.256166418408E+02  0.102728416112E+02 -0.392995421349E+00
  0.256166418408E+02  0.102728416112E+02  0.392995421349E+00
  0.256586054572E+02  0.222339249841E+02 -0.102343585009E+01
  0.256586054572E+02  0.222339249841E+02  0.102343585009E+01
  0.256887062361E+02  0.734362761471E+01 -0.698379650477E-01
  0.256887062361E+02  0.734362761471E+01  0.698379650477E-01
[...]
POINT_DATA                 482
SCALARS phi float 1
LOOKUP_TABLE default
  0.000000000000E+00
  0.000000000000E+00
  0.333066907388E-15
  0.333066907388E-15
  0.444089209850E-15
  0.999200722163E-15
 -0.222044604925E-15
  0.222044604925E-15
 -0.111022302463E-14
 -0.111022302463E-15
  0.555111512313E-15
  0.888178419700E-15
  0.000000000000E+00
 -0.111022302463E-15
  0.177635683940E-14
  0.000000000000E+00
  0.666133814775E-15
  0.777156117238E-15
  0.000000000000E+00
  0.777156117238E-15
  0.000000000000E+00
 -0.333066907388E-15
 -0.666133814775E-15
 -0.333066907388E-15
  0.666133814775E-15
 -0.111022302463E-15
  0.000000000000E+00
  0.222044604925E-15
  0.222044604925E-15
  0.000000000000E+00
 -0.555111512313E-15
 -0.888178419700E-15
  0.000000000000E+00
  0.555111512313E-15
  0.555111512313E-16
  0.122124532709E-14
  0.388578058619E-15
  0.777156117238E-15
  0.555111512313E-15
  0.555111512313E-15
 -0.444089209850E-15
  0.166533453694E-15
  0.111022302463E-15
 -0.555111512313E-16
  0.122124532709E-14
 -0.333066907388E-15
  0.166533453694E-15
 -0.555111512313E-16
 -0.888178419700E-15
  0.208166817117E-15
  0.166533453694E-15
  0.985322934355E-15
  0.999200722163E-15
 -0.555111512313E-15
 -0.122124532709E-14
 -0.133226762955E-14
  0.388578058619E-15
 -0.666133814775E-15
  0.527355936697E-15
 -0.222044604925E-15
 -0.513478148889E-15
  0.999200722163E-15
  0.000000000000E+00
 -0.111022302463E-15
  0.102695629778E-14
 -0.409394740331E-15
  0.693889390391E-15
  0.208166817117E-15
  0.222044604925E-15
  0.172084568817E-14
  0.964506252643E-15
 -0.555111512313E-15
 -0.277555756156E-15
 -0.666133814775E-15
 -0.155431223448E-14
  0.111022302463E-15
 -0.742461647718E-15
  0.471844785466E-15
  0.133226762955E-14
 -0.943689570931E-15
  0.582867087928E-15
  0.000000000000E+00
 -0.122124532709E-14
 -0.111022302463E-15
  0.804911692853E-15
 -0.194289029309E-14
 -0.832667268469E-15
  0.555111512313E-16
 -0.111022302463E-14
 -0.586770215749E-15
  0.427609336828E-15
 -0.555111512313E-15
 -0.499600361081E-15
 -0.222044604925E-15
  0.721644966006E-15
  0.277555756156E-15
 -0.777156117238E-15
  0.111022302463E-15
  0.555111512313E-15
 -0.194289029309E-14
 -0.555111512313E-15
 -0.116573417586E-14
 -0.832667268469E-15
 -0.666133814775E-15
  0.111022302463E-15
 -0.999200722163E-15
 -0.555111512313E-15
  0.000000000000E+00
 -0.477395900589E-14
 -0.499600361081E-15
 -0.388578058619E-15
  0.166533453694E-15
 -0.388578058619E-15
  0.222044604925E-15
 -0.777156117238E-15
  0.000000000000E+00
 -0.121430643318E-15
 -0.555111512313E-16
  0.499600361081E-15
  0.360822483003E-15
 -0.381639164715E-16
 -0.444089209850E-15
  0.111022302463E-14
  0.721644966006E-15
 -0.333066907388E-15
 -0.144328993201E-14
  0.166533453694E-15
  0.111022302463E-15
 -0.555111512313E-15
  0.111022302463E-14
 -0.832667268469E-15
  0.444089209850E-15
  0.216493489802E-14
 -0.277555756156E-15
  0.721644966006E-15
  0.610622663544E-15
  0.166533453694E-14
  0.555111512313E-15
 -0.183186799063E-14
 -0.555111512313E-15
  0.444089209850E-15
  0.444089209850E-15
 -0.832667268469E-16
 -0.266453525910E-14
  0.735522753814E-15
  0.499600361081E-15
 -0.222044604925E-15
  0.388578058619E-15
 -0.122124532709E-14
 -0.388578058619E-15
 -0.610622663544E-15
  0.172084568817E-14
  0.111022302463E-15
  0.333066907388E-15
  0.294209101526E-14
 -0.188737914186E-14
 -0.222044604925E-15
  0.721644966006E-15
  0.305311331772E-15
  0.499600361081E-15
 -0.111022302463E-15
 -0.111022302463E-14
 -0.111022302463E-14
  0.777156117238E-15
 -0.222044604925E-15
 -0.624500451352E-15
 -0.999200722163E-15
  0.244249065418E-14
 -0.777156117238E-15
  0.149880108324E-14
  0.999200722163E-15
  0.222044604925E-15
  0.388578058619E-15
  0.158206781009E-14
  0.381639164715E-15
  0.105471187339E-14
  0.721644966006E-15
  0.111022302463E-15
 -0.122124532709E-14
 -0.999200722163E-15
  0.499600361081E-15
  0.166533453694E-15
  0.832667268469E-15
 -0.188737914186E-14
  0.210942374679E-14
 -0.277555756156E-15
  0.000000000000E+00
  0.340005801291E-15
 -0.888178419700E-15
  0.222044604925E-15
  0.133226762955E-14
  0.277555756156E-15
  0.388578058619E-15
 -0.888178419700E-15
  0.111022302463E-15
  0.316413562018E-14
 -0.277555756156E-15
  0.784095011142E-15
  0.116573417586E-14
 -0.444089209850E-15
 -0.666133814775E-15
  0.277555756156E-15
  0.166533453694E-14
  0.188737914186E-14
 -0.388578058619E-15
  0.943689570931E-15
 -0.999200722163E-15
 -0.666133814775E-15
 -0.133226762955E-14
  0.144328993201E-14
 -0.238697950294E-14
 -0.138777878078E-14
  0.777156117238E-15
  0.333066907388E-15
  0.666133814775E-15
  0.499600361081E-15
 -0.194289029309E-15
 -0.791033905045E-15
 -0.277555756156E-15
  0.333066907388E-15
  0.444089209850E-15
  0.000000000000E+00
  0.111022302463E-14
  0.777156117238E-15
 -0.222044604925E-15
  0.111022302463E-14
 -0.832667268469E-15
  0.188737914186E-14
  0.999200722163E-15
  0.122124532709E-14
  0.555111512313E-16
  0.115185638805E-14
  0.444089209850E-15
 -0.333066907388E-15
 -0.555111512313E-16
 -0.832667268469E-15
  0.666133814775E-15
 -0.133226762955E-14
  0.122124532709E-14
 -0.344169137634E-14
 -0.111022302463E-14
 -0.666133814775E-15
  0.666133814775E-15
  0.388578058619E-15
  0.136002320517E-14
  0.888178419700E-15
  0.388578058619E-15
 -0.199840144433E-14
  0.000000000000E+00
  0.111022302463E-15
 -0.166533453694E-14
  0.666133814775E-15
  0.555111512313E-15
 -0.277555756156E-15
 -0.888178419700E-15
 -0.111022302463E-14
 -0.721644966006E-15
  0.138777878078E-16
  0.111022302463E-15
  0.471844785466E-15
 -0.943689570931E-15
  0.777156117238E-15
  0.999200722163E-15
  0.666133814775E-15
 -0.444089209850E-15
 -0.177635683940E-14
 -0.144328993201E-14
 -0.555111512313E-16
 -0.222044604925E-15
  0.233146835171E-14
 -0.555111512313E-15
  0.000000000000E+00
  0.111022302463E-15
 -0.721644966006E-15
 -0.416333634234E-15
 -0.444089209850E-15
  0.721644966006E-15
  0.832667268469E-16
 -0.263677968348E-15
 -0.777156117238E-15
 -0.183186799063E-14
 -0.402455846427E-15
  0.943689570931E-15
  0.388578058619E-15
 -0.444089209850E-15
 -0.388578058619E-15
 -0.277555756156E-15
  0.499600361081E-15
 -0.721644966006E-15
 -0.111022302463E-15
  0.000000000000E+00
  0.444089209850E-15
 -0.222044604925E-15
  0.499600361081E-15
  0.388578058619E-15
  0.610622663544E-15
 -0.777156117238E-15
  0.499600361081E-15
  0.277555756156E-15
 -0.555111512313E-16
  0.222044604925E-15
 -0.277555756156E-15
 -0.166533453694E-15
 -0.111022302463E-15
 -0.666133814775E-15
  0.499600361081E-15
  0.111022302463E-15
 -0.777156117238E-15
 -0.310862446895E-14
 -0.222044604925E-15
  0.166533453694E-14
  0.000000000000E+00
 -0.277555756156E-16
  0.111022302463E-15
  0.346944695195E-15
  0.721644966006E-15
 -0.416333634234E-15
 -0.155431223448E-14
 -0.177635683940E-14
 -0.138777878078E-15
  0.111022302463E-15
  0.444089209850E-15
  0.222044604925E-15
  0.333066907388E-15
 -0.166533453694E-14
  0.777156117238E-15
 -0.971445146547E-15
 -0.150487261541E-15
 -0.902056207508E-15
 -0.693889390391E-15
  0.138777878078E-14
  0.155431223448E-14
 -0.277555756156E-15
  0.305311331772E-15
  0.638378239159E-15
 -0.104083408559E-15
 -0.416333634234E-15
 -0.173472347598E-15
  0.485722573274E-15
 -0.172084568817E-14
 -0.305311331772E-15
 -0.145716771982E-15
 -0.860422844084E-15
  0.555111512313E-15
  0.000000000000E+00
  0.555111512313E-15
  0.943689570931E-15
 -0.205391259556E-14
 -0.888178419700E-15
  0.160982338571E-14
 -0.105471187339E-14
 -0.111022302463E-14
 -0.170978682601E-15
  0.471844785466E-15
  0.166533453694E-15
  0.119348975147E-14
 -0.915933995316E-15
 -0.166533453694E-15
 -0.763278329430E-16
  0.527355936697E-15
 -0.416333634234E-16
 -0.305311331772E-15
 -0.333066907388E-15
  0.666133814775E-15
 -0.832667268469E-16
  0.832667268469E-16
 -0.555111512313E-16
  0.999200722163E-15
 -0.111022302463E-15
 -0.999200722163E-15
 -0.999200722163E-15
 -0.127675647832E-14
  0.000000000000E+00
  0.555111512313E-15
  0.166533453694E-15
  0.249800180541E-15
 -0.177635683940E-14
 -0.133226762955E-14
  0.388578058619E-15
 -0.122124532709E-14
  0.444089209850E-15
 -0.111022302463E-14
  0.277555756156E-15
  0.122124532709E-14
  0.138777878078E-14
  0.222044604925E-15
 -0.305311331772E-15
  0.105471187339E-14
  0.333066907388E-15
 -0.111022302463E-15
 -0.943689570931E-15
  0.144328993201E-14
  0.222044604925E-15
  0.610622663544E-15
 -0.999200722163E-15
 -0.832667268469E-15
 -0.333066907388E-15
  0.111022302463E-15
  0.000000000000E+00
 -0.127675647832E-14
  0.127675647832E-14
 -0.355271367880E-14
  0.277555756156E-15
 -0.999200722163E-15
  0.333066907388E-15
  0.666133814775E-15
 -0.388578058619E-15
  0.116573417586E-14
  0.111022302463E-15
 -0.444089209850E-15
  0.166533453694E-15
  0.555111512313E-16
 -0.333066907388E-15
 -0.199840144433E-14
 -0.277555756156E-15
  0.111022302463E-15
  0.000000000000E+00
 -0.499600361081E-15
  0.222044604925E-15
  0.105471187339E-14
  0.166533453694E-15
 -0.166533453694E-15
  0.111022302463E-15
  0.444089209850E-15
  0.000000000000E+00
  0.721644966006E-15
 -0.444089209850E-15
  0.105471187339E-14
 -0.111022302463E-15
  0.166533453694E-15
  0.000000000000E+00
  0.166533453694E-15
 -0.222044604925E-15
  0.666133814775E-15
 -0.111022302463E-15
  0.666133814775E-15
 -0.555111512313E-16
  0.999200722163E-15
 -0.555111512313E-16
 -0.555111512313E-16
  0.222044604925E-15
 -0.610622663544E-15
 -0.610622663544E-15
 -0.610622663544E-15
 -0.610622663544E-15
  0.444089209850E-15
 -0.333066907388E-15
 -0.111022302463E-15
  0.499600361081E-15
  0.222044604925E-15
 -0.388578058619E-15
 -0.388578058619E-15
  0.116573417586E-14
 -0.832667268469E-16
  0.444089209850E-15
  0.388578058619E-15
  0.388578058619E-15
 -0.416333634234E-15
  0.111022302463E-14
  0.693889390391E-15
  0.388578058619E-15
 -0.222044604925E-15
 -0.277555756156E-15
  0.499600361081E-15
  0.499600361081E-15
  0.999200722163E-15
  0.205391259556E-14
  0.555111512313E-16
  0.000000000000E+00
  0.444089209850E-15
  0.238697950294E-14
  0.666133814775E-15
 -0.194289029309E-14
 -0.116573417586E-14
  0.122124532709E-14
 -0.999200722163E-15
 -0.499600361081E-15
 -0.111022302463E-15
  0.999200722163E-15
 -0.888178419700E-15
 -0.999200722163E-15
 -0.111022302463E-14
SCALARS phi_mu float 1
LOOKUP_TABLE default
  0.672026950672E+00
  0.785934877167E+00
  0.723516392506E+00
  0.800947186830E+00
  0.851644676352E+00
  0.766836954385E+00
  0.835631551826E+00
  0.695245851244E+00
  0.830583220809E+00
  0.868010734058E+00
  0.776433759174E+00
  0.840968897742E+00
  0.681736720807E+00
  0.827869901717E+00
  0.830335801356E+00
  0.662179059555E+00
  0.787266224962E+00
  0.573755635961E+00
  0.857798813997E+00
  0.763068643756E+00
  0.752730123304E+00
  0.526955143726E+00
  0.802958311067E+00
  0.630288987507E+00
  0.803381019761E+00
  0.713002171568E+00
  0.479960100932E+00
  0.828601905397E+00
  0.732411974367E+00
  0.602880000154E+00
  0.339615297831E+00
  0.763175399937E+00
  0.588464914035E+00
  0.664585756480E+00
  0.427761925954E+00
  0.541414570800E+00
  0.273483310004E+00
  0.767082243223E+00
  0.789762477954E+00
  0.692998682328E+00
  0.479751236716E+00
  0.209285606952E+00
  0.612145365847E+00
  0.373811948560E+00
  0.719049828099E+00
  0.543623067061E+00
  0.416556172284E+00
  0.145309964867E+00
  0.289978092887E+00
  0.336962910379E-01
  0.225491388114E+00
 -0.288410070326E-01
  0.729763421207E+00
  0.751543490455E+00
  0.654633797857E+00
  0.562730056988E+00
  0.324089609486E+00
  0.357217714948E+00
  0.862255169206E-01
  0.160671441160E+00
 -0.911163110261E-01
  0.679332416771E+00
  0.503796414486E+00
  0.990497003770E-01
 -0.150364215591E+00
 -0.247807041669E-01
 -0.223076988159E+00
 -0.776273899913E-01
 -0.270348476040E+00
  0.307936230116E+00
  0.375699109310E-01
  0.522736071445E+00
  0.284256521227E+00
  0.699062107292E+00
  0.720849929643E+00
  0.623954843960E+00
  0.467369059273E-01
 -0.200830045430E+00
 -0.128598838691E+00
 -0.316570083902E+00
 -0.243532700107E+00
 -0.369466374398E+00
  0.649032573190E+00
  0.473583885233E+00
 -0.172441016773E+00
 -0.357266379284E+00
 -0.278978146007E+00
 -0.398353613050E+00
  0.271923804326E+00
  0.213928401432E-02
  0.774403513147E-02
 -0.238580817279E+00
 -0.307694767921E+00
 -0.423141992433E+00
 -0.357084168611E+00
 -0.423576925414E+00
  0.494142332938E+00
  0.255899769712E+00
 -0.205438961566E+00
 -0.388407553526E+00
  0.676759689888E+00
 -0.372848590665E+00
 -0.433865438231E+00
  0.698806704400E+00
  0.601960935898E+00
 -0.400879899843E+00
 -0.426943335034E+00
 -0.327847372298E+00
 -0.441273311795E+00
 -0.378708845035E+00
 -0.437785115574E+00
 -0.401684980802E+00
 -0.393985896465E+00
 -0.417002879539E+00
  0.627762340018E+00
  0.452422416416E+00
 -0.189391011475E-01
 -0.264531512220E+00
 -0.373915162091E+00
  0.247489751763E+00
 -0.218942637521E-01
 -0.228615408418E+00
 -0.410584087395E+00
 -0.386755316608E+00
 -0.409236940628E+00
 -0.342393468207E+00
 -0.454810110644E+00
 -0.382722112671E+00
 -0.440983578073E+00
 -0.363546362119E+00
  0.474510234532E+00
  0.236454823571E+00
 -0.384948363524E+00
 -0.407194644201E+00
 -0.359879572729E+00
 -0.388208357322E+00
 -0.446066132637E+00
  0.660740021798E+00
 -0.354353992101E+00
 -0.466256828514E+00
  0.682996698954E+00
  0.586197462695E+00
 -0.245311578394E+00
 -0.426759147815E+00
 -0.372224859026E-01
 -0.282407208092E+00
 -0.386995844807E+00
 -0.409116211452E+00
  0.612511511310E+00
  0.437261403491E+00
  0.230661535917E+00
 -0.384707958911E-01
 -0.360537833198E+00
 -0.394926518346E+00
 -0.452568360981E+00
 -0.364719176122E+00
 -0.476350547017E+00
  0.460287003422E+00
  0.222367929836E+00
 -0.391435236608E+00
 -0.413484245518E+00
 -0.363937164222E+00
 -0.257996133285E+00
 -0.439164543716E+00
  0.648210104959E+00
 -0.505592000184E-01
 -0.295508497683E+00
  0.670568875285E+00
  0.573811621896E+00
 -0.402119062907E+00
 -0.459640983787E+00
  0.600359335908E+00
  0.425186928624E+00
  0.218006596835E+00
 -0.509563735630E-01
 -0.397101352520E+00
 -0.419108777107E+00
 -0.373817940213E+00
 -0.485298958359E+00
 -0.368855793112E+00
  0.448621651104E+00
  0.210816918340E+00
 -0.268271385563E+00
 -0.449277789282E+00
 -0.409272498008E+00
 -0.466725093210E+00
  0.636927898138E+00
 -0.613595483205E-01
 -0.306152594279E+00
  0.659283002439E+00
  0.562570598124E+00
 -0.403249664438E+00
 -0.425231955333E+00
  0.589093325678E+00
  0.414004138257E+00
 -0.374488940005E+00
  0.207061941791E+00
 -0.617595118320E-01
 -0.382035162199E+00
 -0.493425490937E+00
  0.437399100775E+00
  0.199718931268E+00
 -0.277411229858E+00
 -0.458306383188E+00
 -0.416291265349E+00
 -0.473700409972E+00
  0.625202876878E+00
  0.647435984286E+00
  0.550782575033E+00
 -0.714342975006E-01
 -0.316091796390E+00
 -0.409612392890E+00
 -0.431578398393E+00
  0.576992947153E+00
  0.402015488489E+00
 -0.380502209468E+00
  0.195923338138E+00
 -0.727368957102E-01
 -0.389973917492E+00
 -0.501298941920E+00
  0.424880324564E+00
  0.187374367438E+00
  0.611684851249E+00
  0.633630448723E+00
  0.537065873731E+00
 -0.286618100402E+00
 -0.467410355796E+00
 -0.423466924185E+00
 -0.480843626095E+00
  0.562556730700E+00
  0.387752710366E+00
 -0.823760342601E-01
 -0.326867437619E+00
 -0.416339336176E+00
 -0.438293038965E+00
 -0.386978408942E+00
  0.182853416964E+00
 -0.855657699931E-01
  0.595221062139E+00
 -0.398426136897E+00
 -0.509686953426E+00
  0.616615106926E+00
  0.520193176554E+00
  0.409384784556E+00
  0.172164266149E+00
  0.544301472804E+00
  0.369787944606E+00
 -0.297116971366E+00
 -0.477772569683E+00
 -0.431342251783E+00
 -0.488685940602E+00
  0.574777996112E+00
  0.595175924363E+00
  0.498990660690E+00
 -0.957957340886E-01
 -0.340017021669E+00
  0.165976698229E+00
 -0.102014332256E+00
  0.389028223551E+00
  0.152321001182E+00
 -0.423827465828E+00
 -0.445768841400E+00
  0.520574160769E+00
  0.346571745900E+00
 -0.394231860478E+00
  0.549337804332E+00
  0.567965567127E+00
  0.472186356255E+00
 -0.408231710273E+00
 -0.519402054968E+00
  0.517564613158E+00
  0.489224367493E+00
  0.316180861021E+00
  0.361461168091E+00
  0.125751302118E+00
  0.532974953056E+00
  0.437945034769E+00
  0.143099355754E+00
 -0.124041735121E+00
 -0.310073903305E+00
 -0.490490461472E+00
 -0.113366934915E+00
 -0.357064980752E+00
  0.476530317018E+00
 -0.440422778137E+00
 -0.497718516351E+00
  0.485524223271E+00
  0.392194514327E+00
  0.446848516617E+00
  0.275850703872E+00
  0.409220701877E+00
  0.323816682001E+00
  0.902480119210E-01
  0.408425244892E+00
  0.322822114356E+00
 -0.432345003372E+00
 -0.454268627591E+00
  0.379084866615E+00
  0.303607511729E+00
  0.352024677353E+00
  0.295483153637E+00
  0.388685271263E+00
  0.223196900264E+00
  0.327795603501E+00
  0.297055467457E+00
  0.308341127542E+00
  0.112159151318E+00
 -0.153136604717E+00
 -0.402384435009E+00
 -0.419821159966E+00
 -0.530826865533E+00
  0.315704025738E+00
  0.166670532774E+00
  0.274805094473E+00
  0.463233152543E-01
  0.277363273119E+00
  0.148621687256E+00
 -0.136133379455E+00
 -0.378709138257E+00
  0.240492540694E+00
  0.145113388056E+00
  0.205777124756E+00
  0.154278931074E+00
  0.175470712240E+00
 -0.325947002283E+00
 -0.505876697761E+00
  0.220250791452E+00
  0.317326963692E-02
  0.739111848899E-01
 -0.187212335273E+00
 -0.450426181975E+00
 -0.507633479988E+00
  0.166513573227E+00
 -0.288625540830E-01
  0.129632146197E+00
 -0.379332866066E-01
  0.907808968251E-01
 -0.330495639837E-01
  0.345449747517E-01
 -0.217930286795E+00
  0.512478750239E-01
 -0.155299977491E-01
 -0.162104587285E+00
 -0.402210415062E+00
  0.138717510840E-01
 -0.441109244722E+00
 -0.463000010586E+00
 -0.431873800078E+00
 -0.542543632135E+00
 -0.410355468705E+00
 -0.342561677280E+00
 -0.521451546218E+00
 -0.461132390689E-03
 -0.237771324366E+00
 -0.314372559139E-01
 -0.244809459882E+00
 -0.185142374159E+00
 -0.420211880492E+00
 -0.576798027442E-01
 -0.240080219215E+00
 -0.905409802020E-01
 -0.225317642575E+00
 -0.458651929224E+00
 -0.515682098037E+00
 -0.127960141778E+00
 -0.200664820561E+00
 -0.166749339305E+00
 -0.200712959386E+00
 -0.426679385952E+00
 -0.353857205158E+00
 -0.530641860786E+00
 -0.439492121650E+00
 -0.549483154674E+00
 -0.446634462238E+00
 -0.468460161934E+00
 -0.209611345226E+00
 -0.420637126268E+00
 -0.414259705007E+00
 -0.215384458631E+00
 -0.402897600098E+00
 -0.354258583589E+00
 -0.527173398635E+00
 -0.224575432363E+00
 -0.384987938145E+00
 -0.459064329788E+00
 -0.515755719494E+00
 -0.243351554479E+00
 -0.361824828830E+00
 -0.269713607025E+00
 -0.333549465341E+00
 -0.435958360359E+00
 -0.544694274917E+00
 -0.301402592602E+00
 -0.343547823740E+00
 -0.509756092881E+00
 -0.442617305171E+00
 -0.464322661552E+00
 -0.407798382955E+00
 -0.326055614217E+00
 -0.480651764431E+00
 -0.418191883423E+00
 -0.524787069389E+00
 -0.445840452707E+00
 -0.501947998343E+00
 -0.307820095467E+00
 -0.441225693066E+00
 -0.305587950373E+00
 -0.419878431933E+00
 -0.312261456681E+00
 -0.396665379328E+00
 -0.326628635829E+00
 -0.372074107006E+00
 -0.347571379713E+00
 -0.424217026567E+00
 -0.445724194412E+00
 -0.388277721048E+00
 -0.491239642050E+00
 -0.386817930784E+00
 -0.417907670884E+00
 -0.473082077752E+00
 -0.351203620017E+00
 -0.447296549606E+00
 -0.391699135982E+00
 -0.412905701729E+00
 -0.313829884421E+00
 -0.392937132818E+00
 -0.378349344695E+00
 -0.432010951099E+00
 -0.308467860946E+00
 -0.376313851696E+00
 -0.309261645269E+00
 -0.359372390809E+00
 -0.315692858304E+00
 -0.342667654741E+00
 -0.327356637635E+00
 -0.352407868881E+00
 -0.331123516031E+00
 -0.381836257065E+00
 -0.348802099385E+00
 -0.369551216670E+00
 -0.280276449155E+00
 -0.319642941730E+00
 -0.308847254962E+00
 -0.276012690291E+00
 -0.309802079900E+00
 -0.275135889649E+00
 -0.300099317849E+00
 -0.277494364359E+00
 -0.290933348738E+00
 -0.282997586559E+00
 -0.298839460411E+00
 -0.318754485064E+00
 -0.259784528872E+00
 -0.239858249397E+00
 -0.254358540565E+00
 -0.237680423298E+00
 -0.250138067738E+00
 -0.236867900079E+00
 -0.246075733923E+00
 -0.237411263438E+00
 -0.242369761694E+00
 -0.239322299440E+00
 -0.199941161085E+00
 -0.259784847731E+00