# vtk DataFile Version 3.0
MachLine results file. Generated by MachLine, USU AeroLab (c) 2022.
ASCII
DATASET POLYDATA
POINTS                1848 float
  0.000000000000E+00  0.000000000000E+00  0.000000000000E+00
  0.147665724158E+00  0.000000000000E+00 -0.234920635819E+00
  0.147665724158E+00  0.000000000000E+00  0.234920635819E+00
  0.339639574289E+00  0.339639574289E+00  0.000000000000E+00
  0.473465979099E+00  0.000000000000E+00 -0.436293870211E+00
  0.473465979099E+00  0.000000000000E+00  0.436293870211E+00
  0.487305283546E+00  0.339639574289E+00 -0.234920650721E+00
  0.487305283546E+00  0.339639574289E+00  0.234920650721E+00
  0.735364913940E+00  0.735364913940E+00  0.000000000000E+00
  0.813105583191E+00  0.339639574289E+00 -0.436293929815E+00
  0.813105583191E+00  0.339639574289E+00  0.436293929815E+00
  0.883030653000E+00  0.735364913940E+00 -0.234920680523E+00
  0.883030653000E+00  0.735364913940E+00  0.234920680523E+00
  0.944064557552E+00  0.000000000000E+00 -0.604293465614E+00
  0.944064557552E+00  0.000000000000E+00  0.604293465614E+00
  0.119528055191E+01  0.119528055191E+01  0.000000000000E+00
  0.120883107185E+01  0.735364913940E+00 -0.436293989420E+00
  0.120883107185E+01  0.735364913940E+00  0.436293989420E+00
  0.128370416164E+01  0.339639574289E+00 -0.604293525219E+00
  0.128370416164E+01  0.339639574289E+00  0.604293525219E+00
  0.134294629097E+01  0.119528055191E+01 -0.234920725226E+00
  0.134294629097E+01  0.119528055191E+01  0.234920725226E+00
  0.157641971111E+01  0.000000000000E+00 -0.760520398617E+00
  0.157641971111E+01  0.000000000000E+00  0.760520398617E+00
  0.166874670982E+01  0.119528055191E+01 -0.436294049025E+00
  0.166874670982E+01  0.119528055191E+01  0.436294049025E+00
  0.167942965031E+01  0.735364913940E+00 -0.604293584824E+00
  0.167942965031E+01  0.735364913940E+00  0.604293584824E+00
  0.172824025154E+01  0.172824025154E+01  0.000000000000E+00
  0.187590610981E+01  0.172824025154E+01 -0.234920769930E+00
  0.187590610981E+01  0.172824025154E+01  0.234920769930E+00
  0.191605937481E+01  0.339639574289E+00 -0.760520458221E+00
  0.191605937481E+01  0.339639574289E+00  0.760520458221E+00
  0.213934540749E+01  0.119528055191E+01 -0.604293704033E+00
  0.213934540749E+01  0.119528055191E+01  0.604293704033E+00
  0.220170640945E+01  0.172824025154E+01 -0.436294138432E+00
  0.220170640945E+01  0.172824025154E+01  0.436294138432E+00
  0.231178498268E+01  0.735364913940E+00 -0.760520577431E+00
  0.231178498268E+01  0.735364913940E+00  0.760520577431E+00
  0.234375929832E+01  0.234375929832E+01  0.000000000000E+00
  0.239635515213E+01  0.000000000000E+00 -0.902061045170E+00
  0.239635515213E+01  0.000000000000E+00  0.902061045170E+00
  0.249142503738E+01  0.234375929832E+01 -0.234920814633E+00
  0.249142503738E+01  0.234375929832E+01  0.234920814633E+00
  0.267230534554E+01  0.172824025154E+01 -0.604293823242E+00
  0.267230534554E+01  0.172824025154E+01  0.604293823242E+00
  0.273599505424E+01  0.339639574289E+00 -0.902061164379E+00
  0.273599505424E+01  0.339639574289E+00  0.902061164379E+00
  0.277170085907E+01  0.119528055191E+01 -0.760520696640E+00
  0.277170085907E+01  0.119528055191E+01  0.760520696640E+00
  0.281722569466E+01  0.234375929832E+01 -0.436294227839E+00
  0.281722569466E+01  0.234375929832E+01  0.436294227839E+00
  0.305185556412E+01  0.305185556412E+01  0.000000000000E+00
  0.313172078133E+01  0.735364913940E+00 -0.902061283588E+00
  0.313172078133E+01  0.735364913940E+00  0.902061283588E+00
  0.319952154160E+01  0.305185556412E+01 -0.234920859337E+00
  0.319952154160E+01  0.305185556412E+01  0.234920859337E+00
  0.328782463074E+01  0.234375929832E+01 -0.604293942451E+00
  0.328782463074E+01  0.234375929832E+01  0.604293942451E+00
  0.330466079712E+01  0.172824025154E+01 -0.760520815849E+00
  0.330466079712E+01  0.172824025154E+01  0.760520815849E+00
  0.342464399338E+01  0.000000000000E+00 -0.102348911762E+01
  0.342464399338E+01  0.000000000000E+00  0.102348911762E+01
  0.352532196045E+01  0.305185556412E+01 -0.436294317245E+00
  0.352532196045E+01  0.305185556412E+01  0.436294317245E+00
  0.359163665771E+01  0.119528055191E+01 -0.902061402798E+00
  0.359163665771E+01  0.119528055191E+01  0.902061402798E+00
  0.376428389549E+01  0.339639574289E+00 -0.102348923683E+01
  0.376428389549E+01  0.339639574289E+00  0.102348923683E+01
  0.386280250549E+01  0.386280250549E+01  0.000000000000E+00
  0.392018008232E+01  0.234375929832E+01 -0.760520994663E+00
  0.392018008232E+01  0.234375929832E+01  0.760520994663E+00
  0.399592113495E+01  0.305185556412E+01 -0.604294061661E+00
  0.399592113495E+01  0.305185556412E+01  0.604294061661E+00
  0.401046848297E+01  0.386280250549E+01 -0.234920918941E+00
  0.401046848297E+01  0.386280250549E+01  0.234920918941E+00
  0.412459707260E+01  0.172824025154E+01 -0.902061522007E+00
  0.412459707260E+01  0.172824025154E+01  0.902061522007E+00
  0.416000986099E+01  0.735364913940E+00 -0.102348935604E+01
  0.416000986099E+01  0.735364913940E+00  0.102348935604E+01
  0.433626890182E+01  0.386280250549E+01 -0.436294436455E+00
  0.433626890182E+01  0.386280250549E+01  0.436294436455E+00
  0.461992597580E+01  0.119528055191E+01 -0.102348947525E+01
  0.461992597580E+01  0.119528055191E+01  0.102348947525E+01
  0.462827682495E+01  0.305185556412E+01 -0.760521173477E+00
  0.462827682495E+01  0.305185556412E+01  0.760521173477E+00
  0.466872262955E+01  0.000000000000E+00 -0.111146688461E+01
  0.466872262955E+01  0.000000000000E+00  0.111146688461E+01
  0.474011659622E+01  0.234375929832E+01 -0.902061700821E+00
  0.474011659622E+01  0.234375929832E+01  0.902061700821E+00
  0.478677463531E+01  0.478677463531E+01  0.000000000000E+00
  0.480686807632E+01  0.386280250549E+01 -0.604294240475E+00
  0.480686807632E+01  0.386280250549E+01  0.604294240475E+00
  0.493444061279E+01  0.478677463531E+01 -0.234920993447E+00
  0.493444061279E+01  0.478677463531E+01  0.234920993447E+00
  0.500836277008E+01  0.339639574289E+00 -0.111146700382E+01
  0.500836277008E+01  0.339639574289E+00  0.111146700382E+01
  0.515288639069E+01  0.172824025154E+01 -0.102348971367E+01
  0.515288639069E+01  0.172824025154E+01  0.102348971367E+01
  0.526024150848E+01  0.478677463531E+01 -0.436294555664E+00
  0.526024150848E+01  0.478677463531E+01  0.436294555664E+00
  0.540408849716E+01  0.735364913940E+00 -0.111146712303E+01
  0.540408849716E+01  0.735364913940E+00  0.111146712303E+01
  0.543922424316E+01  0.386280250549E+01 -0.760521352291E+00
  0.543922424316E+01  0.386280250549E+01  0.760521352291E+00
  0.544821310043E+01  0.305185556412E+01 -0.902061939240E+00
  0.544821310043E+01  0.305185556412E+01  0.902061939240E+00
  0.573084068298E+01  0.478677463531E+01 -0.604294419289E+00
  0.573084068298E+01  0.478677463531E+01  0.604294419289E+00
  0.576840591431E+01  0.234375929832E+01 -0.102348983288E+01
  0.576840591431E+01  0.234375929832E+01  0.102348983288E+01
  0.583337688446E+01  0.583337688446E+01  0.000000000000E+00
  0.586400508881E+01  0.119528055191E+01 -0.111146736145E+01
  0.586400508881E+01  0.119528055191E+01  0.111146736145E+01
  0.598104286194E+01  0.583337688446E+01 -0.234921067953E+00
  0.598104286194E+01  0.583337688446E+01  0.234921067953E+00
  0.611307668686E+01  0.000000000000E+00 -0.114008128643E+01
  0.611307668686E+01  0.000000000000E+00  0.114008128643E+01
  0.625916051865E+01  0.386280250549E+01 -0.902062177658E+00
  0.625916051865E+01  0.386280250549E+01  0.902062177658E+00
  0.630684375763E+01  0.583337688446E+01 -0.436294704676E+00
  0.630684375763E+01  0.583337688446E+01  0.436294704676E+00
  0.636319684982E+01  0.478677463531E+01 -0.760521590710E+00
  0.636319684982E+01  0.478677463531E+01  0.760521590710E+00
  0.639696550369E+01  0.172824025154E+01 -0.111146748066E+01
  0.639696550369E+01  0.172824025154E+01  0.111146748066E+01
  0.645271682739E+01  0.339639574289E+00 -0.114008140564E+01
  0.645271682739E+01  0.339639574289E+00  0.114008140564E+01
  0.647650289536E+01  0.305185556412E+01 -0.102349007130E+01
  0.647650289536E+01  0.305185556412E+01  0.102349007130E+01
  0.677744340897E+01  0.583337688446E+01 -0.604294598103E+00
  0.677744340897E+01  0.583337688446E+01  0.604294598103E+00
  0.684844303131E+01  0.735364913940E+00 -0.114008152485E+01
  0.684844303131E+01  0.735364913940E+00  0.114008152485E+01
  0.701104879379E+01  0.701104879379E+01  0.000000000000E+00
  0.701248550415E+01  0.234375929832E+01 -0.111146771908E+01
  0.701248550415E+01  0.234375929832E+01  0.111146771908E+01
  0.715871477127E+01  0.701104879379E+01 -0.234921157360E+00
  0.715871477127E+01  0.701104879379E+01  0.234921157360E+00
  0.718313360214E+01  0.478677463531E+01 -0.902062416077E+00
  0.718313360214E+01  0.478677463531E+01  0.902062416077E+00
  0.728745079041E+01  0.386280250549E+01 -0.102349042892E+01
  0.728745079041E+01  0.386280250549E+01  0.102349042892E+01
  0.730835962296E+01  0.119528055191E+01 -0.114008176327E+01
  0.730835962296E+01  0.119528055191E+01  0.114008176327E+01
  0.740979957581E+01  0.583337688446E+01 -0.760521829128E+00
  0.740979957581E+01  0.583337688446E+01  0.760521829128E+00
  0.748451566696E+01  0.701104879379E+01 -0.436294883490E+00
  0.748451566696E+01  0.701104879379E+01  0.436294883490E+00
  0.771254587173E+01  0.000000000000E+00 -0.108925735950E+01
  0.771254587173E+01  0.000000000000E+00  0.108925735950E+01
  0.772058296204E+01  0.305185556412E+01 -0.111146795750E+01
  0.772058296204E+01  0.305185556412E+01  0.111146795750E+01
  0.784132003784E+01  0.172824025154E+01 -0.114008188248E+01
  0.784132003784E+01  0.172824025154E+01  0.114008188248E+01
  0.795511531830E+01  0.701104879379E+01 -0.604294836521E+00
  0.795511531830E+01  0.701104879379E+01  0.604294836521E+00
  0.805218601227E+01  0.339639574289E+00 -0.108925747871E+01
  0.805218601227E+01  0.339639574289E+00  0.108925747871E+01
  0.821142387390E+01  0.478677463531E+01 -0.102349066734E+01
  0.821142387390E+01  0.478677463531E+01  0.102349066734E+01
[...]
CELL_DATA                3576
SCALARS C_p_inc float 1
LOOKUP_TABLE default
  0.200547289351E+00
  0.174135765161E+00
  0.144491380269E+00
  0.123570115942E+00
  0.115336487740E+00
  0.103778947817E+00
  0.965497082248E-01
  0.898961249064E-01
  0.825117913963E-01
  0.779062200319E-01
  0.700990164296E-01
  0.665224429791E-01
  0.578842259770E-01
  0.546991352930E-01
  0.451197240056E-01
  0.421064813863E-01
  0.324021093692E-01
  0.296861265307E-01
  0.240918288118E-01
  0.228371589649E-01
  0.253351688739E-01
  0.243972818652E-01
  0.432020469593E-01
  0.378810794171E-01
  0.951650392979E-01
  0.802044788189E-01
  0.168446996328E+00
  0.148207003891E+00
  0.246650493250E+00
  0.223089126270E+00
  0.331570689436E+00
  0.302534072490E+00
  0.433271917543E+00
  0.397911040793E+00
  0.559318554893E+00
  0.523971641475E+00
  0.717018506076E+00
  0.710873385313E+00
  0.765721027341E+00
  0.723896162983E+00
  0.448237334366E-01
  0.301653630508E+00
 -0.434439630869E+00
 -0.129534619037E+00
 -0.510683126468E+00
 -0.346383821725E+00
 -0.504642699749E+00
 -0.422666541685E+00
 -0.509752671084E+00
 -0.468005089373E+00
 -0.518680297970E+00
 -0.495164864988E+00
 -0.535773409492E+00
 -0.519989767356E+00
 -0.548040239268E+00
 -0.541652976392E+00
 -0.525298798550E+00
 -0.533416410139E+00
 -0.468894421692E+00
 -0.481167656959E+00
 -0.417592794049E+00
 -0.404512534084E+00
 -0.351230350863E+00
 -0.337124358453E+00
 -0.286011434026E+00
 -0.271994079043E+00
 -0.227794737570E+00
 -0.213441693212E+00
 -0.176129921097E+00
 -0.160550318092E+00
 -0.129184105219E+00
 -0.110878270660E+00
 -0.844603535962E-01
 -0.612266829676E-01
 -0.391857948899E-01
 -0.620278876301E-02
  0.130351576294E-01
  0.627442654490E-01
  0.103608772507E+00
  0.163475826756E+00
  0.194081861169E+00
  0.198827078302E+00
  0.146869548183E+00
  0.144199122586E+00
  0.124204331852E+00
  0.115274969993E+00
  0.104047395334E+00
  0.965303924160E-01
  0.877391911239E-01
  0.825053245496E-01
  0.739824768889E-01
  0.701000042792E-01
  0.610413167490E-01
  0.578916131028E-01
  0.477759601152E-01
  0.451310857415E-01
  0.343475677310E-01
  0.324021470000E-01
  0.244735462888E-01
  0.240294924429E-01
  0.243124482415E-01
  0.222543615782E-01
  0.379202401470E-01
  0.314362439719E-01
  0.806885810824E-01
  0.676221862850E-01
  0.148556449446E+00
  0.132002607365E+00
  0.222462667066E+00
  0.205084359634E+00
  0.299475216677E+00
  0.282722552186E+00
  0.387822283564E+00
  0.374598307024E+00
  0.494122859736E+00
  0.489020302906E+00
  0.622582877206E+00
  0.621192486553E+00
  0.584464672183E+00
  0.518743614489E+00
 -0.179275642892E+00
 -0.414465160214E-01
 -0.586400510391E+00
 -0.413115826545E+00
 -0.627351431526E+00
 -0.496816177304E+00
 -0.585130860597E+00
 -0.501440939935E+00
 -0.562566581428E+00
 -0.510369447127E+00
 -0.552769849372E+00
 -0.520205445118E+00
 -0.557721686710E+00
 -0.537536269889E+00
 -0.558711304602E+00
 -0.550419669614E+00
 -0.523384185660E+00
 -0.527869479301E+00
 -0.459962990081E+00
 -0.470641451889E+00
 -0.404424583595E+00
 -0.392987364256E+00
 -0.336916005679E+00
 -0.323681529209E+00
 -0.271826064646E+00
 -0.257592151148E+00
 -0.213334346494E+00
 -0.197915771069E+00
 -0.160494762429E+00
 -0.143039499089E+00
 -0.110868669803E+00
 -0.899419198858E-01
 -0.612771733185E-01
 -0.351433378632E-01
 -0.640351684608E-02
  0.236253467552E-01
  0.618728161685E-01
  0.841313416474E-01
  0.159247727841E+00
  0.167524102441E+00
  0.188164629311E+00
  0.193330675540E+00
  0.144389928700E+00
  0.146500484708E+00
  0.125999774023E+00
  0.124026393428E+00
  0.109233983424E+00
  0.103984115487E+00
  0.929713423908E-01
  0.877169796615E-01
  0.781340875680E-01
  0.739781434026E-01
  0.643264242028E-01
  0.610488187076E-01
  0.504003473355E-01
  0.477918129192E-01
  0.361508769254E-01
  0.343548270225E-01
  0.247790984364E-01
  0.244139451950E-01
  0.222645789875E-01
  0.202028998189E-01
  0.317910586504E-01
  0.259188644610E-01
  0.684187064802E-01
  0.577758330490E-01
  0.132245866878E+00
  0.118963304522E+00
  0.203668127674E+00
  0.190633191495E+00
  0.278271174352E+00
  0.267693614938E+00
  0.364350228065E+00
  0.358509823597E+00
  0.468881095900E+00
  0.468977551210E+00
  0.587904700581E+00
  0.583840886390E+00
  0.491246770626E+00
  0.426422884338E+00
 -0.336881581851E+00
 -0.218192062834E+00
 -0.719187780714E+00
 -0.575396613575E+00
 -0.726922594921E+00
 -0.612794829527E+00
 -0.656927925074E+00
 -0.577029397024E+00
 -0.613627569794E+00
 -0.558999386398E+00
 -0.588119036487E+00
 -0.551828156265E+00
 -0.580766282964E+00
 -0.558459696167E+00
 -0.570039885275E+00
 -0.561189843681E+00
 -0.523631448124E+00
 -0.526887927016E+00
 -0.452733237181E+00
 -0.462942592125E+00
 -0.392899192417E+00
 -0.381895421202E+00
 -0.323402807451E+00
 -0.310147352924E+00
 -0.257350126190E+00
 -0.242494870103E+00
 -0.197754097799E+00
 -0.181137752467E+00
 -0.142957111762E+00
 -0.123888346098E+00
 -0.899508685783E-01
 -0.679403779043E-01
 -0.353177650069E-01
 -0.124159278070E-01
  0.230368476032E-01
  0.407564645752E-01
  0.827735963885E-01
  0.925697275170E-01
  0.164834044870E+00
  0.169889123921E+00
  0.189078300349E+00
  0.187785992761E+00
  0.142983897017E+00
  0.144116722647E+00
  0.125339894646E+00
  0.125804561794E+00
  0.110979539431E+00
  0.109123531467E+00
  0.967355071929E-01
  0.929242523140E-01
  0.821087179246E-01
  0.781207727112E-01
  0.676853034171E-01
  0.643323958506E-01
  0.530601731851E-01
  0.504185648416E-01
  0.379611431438E-01
  0.361638109731E-01
  0.252177088557E-01
  0.247346881922E-01
  0.202460129859E-01
  0.185465799492E-01
  0.262927386583E-01
  0.214388913460E-01
  0.584232284431E-01
  0.500888151783E-01
  0.118947741409E+00
  0.108743177115E+00
  0.188935427588E+00
  0.179490393471E+00
  0.263356665690E+00
  0.256835564286E+00
  0.350151405690E+00
  0.348121322867E+00
  0.455298882154E+00
  0.457252507453E+00
  0.565849335246E+00
  0.560132649179E+00
  0.417656824831E+00
  0.354683022744E+00
 -0.472450642947E+00
 -0.361472042615E+00
 -0.838169235480E+00
 -0.709875029177E+00
 -0.817565392225E+00
 -0.714128978185E+00
 -0.724104949419E+00
 -0.648498096990E+00
 -0.663309689231E+00
 -0.609025414939E+00
 -0.623650637205E+00
 -0.586415345710E+00
 -0.604240834646E+00
 -0.581380947253E+00
 -0.581941526213E+00
 -0.572891520244E+00
 -0.525056766890E+00
 -0.527705781226E+00
 -0.446453670553E+00
 -0.456485325049E+00
 -0.381943648732E+00
 -0.371056730420E+00
 -0.309883943938E+00
 -0.296400255772E+00
 -0.242218962393E+00
 -0.226695865531E+00
 -0.180937383853E+00
 -0.163366911706E+00
 -0.123791458421E+00
 -0.104262180931E+00
 -0.679979582235E-01
 -0.482612414980E-01
 -0.127453911499E-01
  0.324871875184E-02
  0.400295933919E-01
  0.500534676859E-01
  0.913733573029E-01
  0.959438429654E-01
  0.167746128483E+00
  0.165673735440E+00
  0.186559544403E+00
  0.188550363005E+00
  0.141708106972E+00
  0.142739625691E+00
  0.124415058904E+00
  0.125166501694E+00
  0.111011466029E+00
  0.110857184578E+00
  0.984595523529E-01
  0.966642546154E-01
  0.851239348007E-01
  0.820809638240E-01
  0.708417083099E-01
  0.676864749239E-01
  0.557268756741E-01
  0.530795177324E-01
  0.398475577184E-01
  0.379816381857E-01
  0.258988336808E-01
  0.251967649387E-01
  0.185884474929E-01
  0.174611224161E-01
  0.217513921846E-01
  0.181083711240E-01
  0.505564889842E-01
  0.444386387859E-01
  0.108584112720E+00
  0.101345654700E+00
  0.177865429362E+00
  0.171572694827E+00
  0.253119916741E+00
  0.249615502045E+00
  0.341690675097E+00
  0.342009218135E+00
  0.447929062224E+00
  0.450722030345E+00
  0.550017125655E+00
  0.543274809336E+00
  0.353646458720E+00
  0.292307131179E+00
 -0.596318398700E+00
 -0.489246619326E+00
 -0.948555922479E+00
 -0.830042180257E+00
 -0.902168715279E+00
 -0.806627708308E+00
 -0.787543167185E+00
 -0.716372806032E+00
 -0.710993161822E+00
 -0.658765834818E+00
 -0.658147143737E+00
 -0.621952363990E+00
 -0.627156176285E+00
 -0.605110996136E+00
 -0.593979566585E+00
 -0.585201776174E+00
 -0.527105229675E+00
 -0.529591772307E+00
 -0.440741055133E+00
 -0.450784445093E+00
 -0.371291716992E+00
 -0.360363971640E+00
 -0.296201410990E+00
 -0.282434985709E+00
 -0.226421092602E+00
 -0.210425302184E+00
 -0.163153617389E+00
 -0.145459816987E+00
 -0.104179139675E+00
 -0.862807439105E-01
 -0.483824146778E-01
 -0.331744957379E-01
  0.287304980812E-02
  0.134227611864E-01
  0.494265516573E-01
  0.556719966824E-01
  0.950872424486E-01
  0.983641275519E-01
  0.164631204373E+00
  0.166876441115E+00
  0.186626246974E+00
  0.186220110090E+00
  0.140865781877E+00
  0.141487835661E+00
  0.123491304564E+00
  0.124252581754E+00
  0.110470560068E+00
  0.110891646564E+00
  0.988367513169E-01
  0.983771076948E-01
  0.867822846703E-01
  0.850805320023E-01
  0.733406811218E-01
  0.708338370379E-01
  0.582371739043E-01
  0.557450855637E-01
  0.418124124991E-01
  0.398763586488E-01
  0.268912388746E-01
  0.259055069654E-01
  0.174895749323E-01
  0.170613589036E-01
  0.183404264825E-01
  0.160159148894E-01
  0.447510644005E-01
  0.407513806326E-01
  0.101130416922E+00
  0.965931305328E-01
  0.170202069787E+00
  0.166686899778E+00
  0.246695404658E+00
  0.245627016636E+00
  0.337304995331E+00
  0.339290568099E+00
  0.444524508713E+00
  0.447772286008E+00
  0.537928047043E+00
  0.530487687818E+00
  0.295228711830E+00
  0.235273514816E+00
 -0.712618210158E+00
 -0.608148006536E+00
 -0.105263884899E+01
 -0.941492442020E+00
 -0.981848677074E+00
 -0.893061927462E+00
 -0.847345428717E+00
 -0.780993280577E+00
 -0.756086086424E+00
 -0.707161396776E+00
 -0.690826436105E+00
 -0.656969685949E+00
 -0.648912323393E+00
 -0.628506254670E+00
 -0.605596507296E+00
 -0.597630197207E+00
 -0.529248402630E+00
 -0.531998725692E+00
 -0.435266534027E+00
 -0.445483363526E+00
 -0.360783921328E+00
 -0.349736760877E+00
 -0.282320834117E+00
 -0.268399622203E+00
 -0.210176565768E+00
 -0.194305170729E+00
 -0.145262702583E+00
 -0.128862576180E+00
 -0.862342043631E-01
 -0.716188796292E-01
 -0.333197409946E-01
 -0.223371245462E-01
  0.131080004599E-01
  0.204142015121E-01
  0.552248803116E-01
  0.597503917612E-01
  0.977936116364E-01
  0.100222644989E+00
  0.166005304592E+00
  0.165976624331E+00
  0.184635902436E+00
  0.186230900506E+00
  0.139842680216E+00
  0.140654204910E+00
  0.122639373741E+00
  0.123336407204E+00
  0.109787873608E+00
  0.110353096590E+00
  0.985915642346E-01
  0.987503729505E-01
  0.873675756191E-01
  0.867275906490E-01
  0.748943559035E-01
  0.733208869529E-01
  0.603134517571E-01
  0.582503676820E-01
  0.437571697058E-01
  0.418474533935E-01
  0.281963323392E-01
  0.269239856057E-01
  0.170740509950E-01
  0.173781958385E-01
  0.161686812498E-01
  0.151680984015E-01
  0.409408958885E-01
  0.389057495711E-01
  0.963807340921E-01
  0.942249844375E-01
  0.165640439926E+00
  0.164530917825E+00
  0.243516886678E+00
  0.244475998656E+00
  0.336086716687E+00
  0.339363094860E+00
  0.443961456543E+00
  0.447486969150E+00
  0.528383259377E+00
  0.520411603836E+00
  0.240546679039E+00
  0.181869158906E+00
 -0.822948580873E+00
 -0.720996639312E+00
 -0.115112701818E+01
 -0.104663352667E+01
 -0.105677729336E+01
 -0.974547175766E+00
 -0.903248860146E+00
 -0.842215003041E+00
 -0.798060323311E+00
 -0.753307496624E+00
 -0.721128995388E+00
 -0.690434168719E+00
 -0.669048244282E+00
 -0.650843642568E+00
 -0.616314919054E+00
 -0.609627492613E+00
 -0.531066682710E+00
 -0.534409389571E+00
 -0.429804196326E+00
 -0.440256727902E+00
 -0.350305808658E+00
 -0.339211460019E+00
 -0.268370024085E+00
 -0.254720944130E+00
 -0.194103601947E+00
 -0.179361789739E+00
 -0.128709986798E+00
 -0.114883108436E+00
 -0.716057843573E-01
 -0.604897365532E-01
 -0.224583726959E-01
 -0.145031365529E-01
  0.201993975311E-01
  0.255735173469E-01
  0.594708056490E-01
  0.630409818622E-01
  0.998952779998E-01
  0.102409455903E+00
  0.165623214509E+00
  0.168162780062E+00
  0.185193564393E+00
  0.184363964548E+00
  0.139531552798E+00
  0.139652761706E+00
  0.122046905389E+00
  0.122489685947E+00
  0.109159670391E+00
  0.109670826344E+00
  0.981352792545E-01
  0.985022332868E-01
  0.873588897924E-01
  0.873053429501E-01
  0.756121599531E-01
  0.748629323138E-01
  0.617486988629E-01
  0.603174759559E-01
  0.454942586553E-01
  0.437934717268E-01
  0.297215101800E-01
  0.282486606160E-01
  0.173801551503E-01
  0.183508171852E-01
  0.152557905558E-01
  0.154786968596E-01
  0.390071812174E-01
  0.387213842209E-01
  0.940501042647E-01
  0.939347687119E-01
  0.163809521377E+00
  0.164715719783E+00
  0.243101547192E+00
  0.245724645686E+00
  0.337424729213E+00
  0.341714121051E+00
  0.445555023450E+00
  0.449240234468E+00
  0.520680177908E+00
  0.512278816431E+00
  0.188687330258E+00
  0.131378258019E+00
 -0.927649987169E+00
 -0.828816295626E+00
 -0.124389078298E+01
 -0.114620204310E+01
 -0.112666609403E+01
 -0.105122500494E+01
 -0.954872646579E+00
 -0.899599631431E+00
 -0.836490530986E+00
 -0.796444866184E+00
 -0.748652734756E+00
 -0.721593695944E+00
 -0.687173030839E+00
 -0.671560354318E+00
 -0.625754450113E+00
 -0.620672150585E+00
 -0.532282234691E+00
 -0.536373152645E+00
 -0.424295198940E+00
 -0.434851872875E+00
 -0.339876109667E+00
 -0.329050559503E+00
 -0.254768672623E+00
 -0.242127481434E+00
 -0.179228441037E+00
 -0.166614645443E+00
 -0.114788714776E+00
 -0.103963476557E+00
 -0.604916938718E-01
 -0.522498208566E-01
 -0.145781773312E-01
 -0.869865386660E-02
  0.254580232255E-01
  0.295496187373E-01
  0.629018215029E-01
  0.656731493964E-01
  0.102239827015E+00
  0.103873238598E+00
  0.167870926825E+00
  0.167938069995E+00
  0.185194333337E+00
  0.184860266350E+00
  0.139370558204E+00
  0.139336650714E+00
  0.121704992832E+00
  0.121897488807E+00
  0.108708862812E+00
  0.109041144818E+00
  0.976949268751E-01
  0.980421696249E-01
  0.871164700581E-01
  0.872902390155E-01
  0.758123633173E-01
  0.755707272808E-01
  0.625736667828E-01
  0.617412927997E-01
  0.468606492168E-01
  0.455255296059E-01
  0.312949369339E-01
  0.297836907049E-01
  0.183508242832E-01
  0.198252479181E-01
  0.155217522068E-01
  0.167674964143E-01
  0.387667361198E-01
  0.399457056560E-01
  0.938135274139E-01
  0.953719083254E-01
  0.164283269234E+00
  0.166807235696E+00
  0.244966066037E+00
  0.248892673988E+00
  0.340796003828E+00
  0.345835242127E+00
  0.448770010269E+00
  0.452502732283E+00
  0.514304283528E+00
  0.505570734346E+00
  0.139207925669E+00
  0.835690815717E-01
 -0.102642118591E+01
 -0.931668508979E+00
 -0.133041820690E+01
 -0.124003991264E+01
 -0.119106888722E+01
 -0.112273958741E+01
 -0.100185447277E+01
 -0.952624719330E+00
 -0.871059266725E+00
 -0.835983245058E+00
 -0.773112951688E+00
 -0.749913278582E+00
 -0.703017403946E+00
 -0.690181380945E+00
 -0.633695586080E+00
 -0.630317559503E+00
 -0.532817515191E+00
 -0.537557684575E+00
 -0.418916788789E+00
 -0.429168100209E+00
 -0.329758531553E+00
 -0.319765556356E+00
 -0.242249083880E+00
 -0.231393690158E+00
 -0.166562781227E+00
 -0.156551611531E+00
 -0.103922821307E+00
 -0.958096876050E-01
 -0.522529665309E-01
 -0.461854262643E-01
 -0.872632516654E-02
 -0.435868766993E-02
  0.295170427063E-01
  0.326000273013E-01
  0.656465933655E-01
  0.677790694913E-01
  0.103863515546E+00
  0.105274335691E+00
  0.167985821596E+00
  0.168804483914E+00
  0.184870399235E+00
  0.184863958847E+00
  0.139129802020E+00
  0.139167458013E+00
  0.121416278443E+00
  0.121548491416E+00
  0.108364992653E+00
  0.108584601899E+00
  0.973368335147E-01
  0.975962034175E-01
  0.868410434096E-01
  0.870411447658E-01
  0.757841384831E-01
  0.757619894744E-01
  0.629914664680E-01
  0.625546907899E-01
  0.478377095043E-01
  0.468819113940E-01
  0.327491395802E-01
  0.313565152040E-01
  0.198311292266E-01
  0.215824050487E-01
  0.167863781062E-01
  0.187729528124E-01
  0.399608787071E-01
  0.422562201601E-01
  0.953064484942E-01
  0.981423735653E-01
  0.166609699489E+00
  0.170346160419E+00
  0.248613723793E+00
  0.253479857412E+00
  0.345691952799E+00
  0.351212299831E+00
  0.453114566260E+00
  0.456778474176E+00
  0.508827259273E+00
  0.499887264958E+00
  0.919494911851E-01
  0.384672930260E-01
 -0.111867074111E+01
 -0.102909507122E+01
 -0.141009323044E+01
 -0.132757903803E+01
 -0.124955514684E+01
 -0.118856961960E+01
 -0.104392567126E+01
 -0.100082286414E+01
 -0.901580705853E+00
 -0.871494108211E+00
 -0.794375849059E+00
 -0.775012468600E+00
 -0.716495502058E+00
 -0.706357102984E+00
 -0.640143061213E+00
 -0.638272339257E+00
 -0.532843847397E+00
 -0.537831814996E+00
 -0.414067451361E+00
 -0.423361605056E+00
 -0.320481639901E+00
 -0.311937695784E+00
 -0.231588310406E+00
 -0.222958147840E+00
 -0.156578936114E+00
 -0.149063788987E+00
 -0.958110849991E-01
 -0.898799631436E-01
 -0.461849521853E-01
 -0.417404028624E-01
 -0.434664798321E-02
 -0.107474310882E-02
  0.326355546626E-01
  0.350562121645E-01
  0.678481061339E-01
  0.696756977825E-01
  0.105388618056E+00
  0.106824594025E+00
  0.169002965729E+00
  0.170260390001E+00
  0.184644183617E+00
  0.184553297709E+00
  0.138957855351E+00
  0.138925991123E+00
  0.121205408869E+00
  0.121255020570E+00
  0.108109447919E+00
  0.108234478895E+00
  0.970633716174E-01
  0.972313354144E-01
  0.866096988113E-01
  0.867584479450E-01
  0.757014750026E-01
  0.757252562290E-01
  0.632150989964E-01
  0.629616689693E-01
  0.485354220676E-01
  0.478466921275E-01
  0.340120270861E-01
  0.328018209191E-01
  0.215969401272E-01
  0.234117367698E-01
  0.187832958864E-01
  0.211934347138E-01
  0.422591027908E-01
  0.452837013998E-01
  0.981244162786E-01
  0.101820439812E+00
  0.170321752229E+00
  0.174860537048E+00
  0.253543837005E+00
  0.258985446285E+00
  0.351610478821E+00
  0.357342586281E+00
  0.458121667120E+00
  0.461604205833E+00
  0.503895139933E+00
  0.494910712731E+00
  0.469619653580E-01
 -0.376084230818E-02
 -0.120374060160E+01
 -0.112039529577E+01
 -0.148238215571E+01
 -0.140814367050E+01
 -0.130182978388E+01
 -0.124822183053E+01
 -0.108097761782E+01
 -0.104385261202E+01
 -0.928052559454E+00
 -0.902715756045E+00
 -0.812511047231E+00
 -0.796685231166E+00
 -0.727752621224E+00
 -0.719935271628E+00
 -0.645346523019E+00
 -0.644489165296E+00
 -0.532736347607E+00
 -0.537350764300E+00
 -0.410188929052E+00
 -0.417874796823E+00
 -0.312646398233E+00
 -0.305927870080E+00
 -0.223219133977E+00
 -0.216794051627E+00
 -0.149156710253E+00
 -0.143729655828E+00
 -0.899129197724E-01
 -0.856455707293E-01
 -0.417372098726E-01
 -0.384806153698E-01
 -0.103425588801E-02
  0.144949171450E-02
  0.351389532190E-01
  0.370664668452E-01
  0.698061345208E-01
  0.713451450723E-01
  0.107010849208E+00
  0.108293567782E+00
  0.170543265479E+00
  0.171729918039E+00
  0.184766820099E+00
  0.184333015272E+00
  0.138976892502E+00
  0.138753091777E+00
  0.121134103922E+00
  0.121040417067E+00
  0.107971237073E+00
  0.107973507503E+00
  0.968904922528E-01
  0.969513924354E-01
  0.864540568118E-01
  0.865198763342E-01
  0.756451412672E-01
  0.756344444172E-01
  0.633823425026E-01
  0.631753826803E-01
  0.490877986283E-01
  0.485319869800E-01
  0.351087048461E-01
  0.340513043121E-01
  0.234320369153E-01
  0.251809951880E-01
  0.212033636770E-01
  0.237569658651E-01
  0.452837818328E-01
  0.486614460969E-01
  0.101835009067E+00
  0.105981425502E+00
  0.174946606222E+00
  0.179889369608E+00
  0.259264309856E+00
  0.264931404656E+00
  0.358070142069E+00
  0.363758713237E+00
  0.463362868748E+00
  0.466567591701E+00
  0.499237777700E+00
  0.490398112841E+00
  0.444533065066E-02
 -0.428945637561E-01
 -0.128108061701E+01
 -0.120482261286E+01
 -0.154698128030E+01
 -0.148115144678E+01
 -0.134783812803E+01
 -0.130135959451E+01
 -0.111312552832E+01
 -0.108156186090E+01
 -0.950699031173E+00
 -0.929601243333E+00
 -0.827813881897E+00
 -0.814960474218E+00
 -0.737149599886E+00
 -0.731033322387E+00
 -0.649722425260E+00
 -0.649220719774E+00
 -0.532901167405E+00
 -0.536547193018E+00
 -0.407534827054E+00
 -0.413264504304E+00
 -0.306623618527E+00
 -0.301742151154E+00
 -0.217107062149E+00
 -0.212567917579E+00
 -0.143871598702E+00
 -0.140062171757E+00
 -0.857024107306E-01
 -0.826678530738E-01