# vtk DataFile Version 3.0
MachLine results file. Generated by MachLine, USU AeroLab (c) 2022.
ASCII
DATASET POLYDATA
POINTS                 482 float
  0.000000000000E+00  0.000000000000E+00  0.000000000000E+00
  0.473465979099E+00  0.000000000000E+00 -0.436293870211E+00
  0.473465979099E+00  0.000000000000E+00  0.436293870211E+00
  0.757896304131E+00  0.757896304131E+00  0.000000000000E+00
  0.123136246204E+01  0.757896304131E+00 -0.436293989420E+00
  0.123136246204E+01  0.757896304131E+00  0.436293989420E+00
  0.157641971111E+01  0.000000000000E+00 -0.760520398617E+00
  0.157641971111E+01  0.000000000000E+00  0.760520398617E+00
  0.178897356987E+01  0.178897356987E+01  0.000000000000E+00
  0.226243972778E+01  0.178897356987E+01 -0.436294138432E+00
  0.226243972778E+01  0.178897356987E+01  0.436294138432E+00
  0.233431649208E+01  0.757896304131E+00 -0.760520577431E+00
  0.233431649208E+01  0.757896304131E+00  0.760520577431E+00
  0.317279767990E+01  0.317279767990E+01  0.000000000000E+00
  0.336539411545E+01  0.178897356987E+01 -0.760520815849E+00
  0.336539411545E+01  0.178897356987E+01  0.760520815849E+00
  0.342464399338E+01  0.000000000000E+00 -0.102348911762E+01
  0.342464399338E+01  0.000000000000E+00  0.102348911762E+01
  0.364626431465E+01  0.317279767990E+01 -0.436294317245E+00
  0.364626431465E+01  0.317279767990E+01  0.436294317245E+00
  0.418254137039E+01  0.757896304131E+00 -0.102348935604E+01
  0.418254137039E+01  0.757896304131E+00  0.102348935604E+01
  0.474921894073E+01  0.317279767990E+01 -0.760521173477E+00
  0.474921894073E+01  0.317279767990E+01  0.760521173477E+00
  0.499661636353E+01  0.499661636353E+01  0.000000000000E+00
  0.521361970901E+01  0.178897356987E+01 -0.102348971367E+01
  0.521361970901E+01  0.178897356987E+01  0.102348971367E+01
  0.547008323669E+01  0.499661636353E+01 -0.436294585466E+00
  0.547008323669E+01  0.499661636353E+01  0.436294585466E+00
  0.611307668686E+01  0.000000000000E+00 -0.114008128643E+01
  0.611307668686E+01  0.000000000000E+00  0.114008128643E+01
  0.657303857803E+01  0.499661636353E+01 -0.760521650314E+00
  0.657303857803E+01  0.499661636353E+01  0.760521650314E+00
  0.659744548798E+01  0.317279767990E+01 -0.102349019051E+01
  0.659744548798E+01  0.317279767990E+01  0.102349019051E+01
  0.687097454071E+01  0.757896304131E+00 -0.114008152485E+01
  0.687097454071E+01  0.757896304131E+00  0.114008152485E+01
  0.734362459183E+01  0.734362459183E+01  0.000000000000E+00
  0.781709194183E+01  0.734362459183E+01 -0.436294913292E+00
  0.781709194183E+01  0.734362459183E+01  0.436294913292E+00
  0.790205335617E+01  0.178897356987E+01 -0.114008200169E+01
  0.790205335617E+01  0.178897356987E+01  0.114008200169E+01
  0.842126560211E+01  0.499661636353E+01 -0.102349078655E+01
  0.842126560211E+01  0.499661636353E+01  0.102349078655E+01
  0.892004776001E+01  0.734362459183E+01 -0.760522186756E+00
  0.892004776001E+01  0.734362459183E+01  0.760522186756E+00
  0.928588008881E+01  0.317279767990E+01 -0.114008247852E+01
  0.928588008881E+01  0.317279767990E+01  0.114008247852E+01
  0.939508819580E+01  0.000000000000E+00 -0.980745851994E+00
  0.939508819580E+01  0.000000000000E+00  0.980745851994E+00
  0.101529865265E+02  0.757896304131E+00 -0.980746090412E+00
  0.101529865265E+02  0.757896304131E+00  0.980746090412E+00
  0.102728376389E+02  0.102728376389E+02  0.000000000000E+00
  0.107463054657E+02  0.102728376389E+02 -0.436295330524E+00
  0.107463054657E+02  0.102728376389E+02  0.436295330524E+00
  0.107682771683E+02  0.734362459183E+01 -0.102349150181E+01
  0.107682771683E+02  0.734362459183E+01  0.102349150181E+01
  0.111097030640E+02  0.499661636353E+01 -0.114008307457E+01
  0.111097030640E+02  0.499661636353E+01  0.114008307457E+01
  0.111840667725E+02  0.178897356987E+01 -0.980746388435E+00
  0.111840667725E+02  0.178897356987E+01  0.980746388435E+00
  0.118492631912E+02  0.102728376389E+02 -0.760522902012E+00
  0.118492631912E+02  0.102728376389E+02  0.760522902012E+00
  0.125678949356E+02  0.317279767990E+01 -0.980746865273E+00
  0.125678949356E+02  0.317279767990E+01  0.980746865273E+00
  0.126670312881E+02  0.000000000000E+00 -0.678052663803E+00
  0.126670312881E+02  0.000000000000E+00  0.678052663803E+00
  0.134249305725E+02  0.757896304131E+00 -0.678052842617E+00
  0.134249305725E+02  0.757896304131E+00  0.678052842617E+00
  0.134567155838E+02  0.734362459183E+01 -0.114008402824E+01
  0.134567155838E+02  0.734362459183E+01  0.114008402824E+01
  0.136974935532E+02  0.102728376389E+02 -0.102349245548E+01
  0.136974935532E+02  0.102728376389E+02  0.102349245548E+01
  0.137921218872E+02  0.137921218872E+02  0.000000000000E+00
  0.142655897141E+02  0.137921218872E+02 -0.436295837164E+00
  0.142655897141E+02  0.137921218872E+02  0.436295837164E+00
  0.143917188644E+02  0.499661636353E+01 -0.980747401714E+00
  0.143917188644E+02  0.499661636353E+01  0.980747401714E+00
  0.144560117722E+02  0.178897356987E+01 -0.678053081036E+00
  0.144560117722E+02  0.178897356987E+01  0.678053081036E+00
  0.153437566757E+02  0.000000000000E+00 -0.393031150103E+00
  0.153437566757E+02  0.000000000000E+00  0.393031150103E+00
  0.153685483932E+02  0.137921218872E+02 -0.760523796082E+00
  0.153685483932E+02  0.137921218872E+02  0.760523796082E+00
  0.158398418427E+02  0.317279767990E+01 -0.678053379059E+00
  0.158398418427E+02  0.317279767990E+01  0.678053379059E+00
  0.161016559601E+02  0.757896304131E+00 -0.393031239510E+00
  0.161016559601E+02  0.757896304131E+00  0.393031239510E+00
  0.163859348297E+02  0.102728376389E+02 -0.114008510113E+01
  0.163859348297E+02  0.102728376389E+02  0.114008510113E+01
  0.167387351990E+02  0.734362459183E+01 -0.980748176575E+00
  0.167387351990E+02  0.734362459183E+01  0.980748176575E+00
  0.171327381134E+02  0.178897356987E+01 -0.393031388521E+00
  0.171327381134E+02  0.178897356987E+01  0.393031388521E+00
  0.172004318237E+02  0.000000000000E+00 -0.192506864667E+00
  0.172004318237E+02  0.000000000000E+00  0.192506864667E+00
  0.172167816162E+02  0.137921218872E+02 -0.102349364758E+01
  0.172167816162E+02  0.137921218872E+02  0.102349364758E+01
  0.176636676788E+02  0.499661636353E+01 -0.678053736687E+00
  0.176636676788E+02  0.499661636353E+01  0.678053736687E+00
  0.178320064545E+02  0.178320064545E+02  0.000000000000E+00
  0.179583320618E+02  0.757896304131E+00 -0.192506924272E+00
  0.179583320618E+02  0.757896304131E+00  0.192506924272E+00
  0.183054752350E+02  0.178320064545E+02 -0.436296403408E+00
  0.183054752350E+02  0.178320064545E+02  0.436296403408E+00
  0.183450412750E+02  0.000000000000E+00 -0.698660761118E-01
  0.183450412750E+02  0.000000000000E+00  0.698660761118E-01
  0.185165691376E+02  0.317279767990E+01 -0.393031567335E+00
  0.185165691376E+02  0.317279767990E+01  0.393031567335E+00
  0.189894161224E+02  0.178897356987E+01 -0.192506983876E+00
  0.189894161224E+02  0.178897356987E+01  0.192506983876E+00
  0.190000000000E+02  0.000000000000E+00  0.000000000000E+00
  0.191029415131E+02  0.757896304131E+00 -0.698660910130E-01
  0.191029415131E+02  0.757896304131E+00  0.698660910130E-01
  0.194084339142E+02  0.178320064545E+02 -0.760524809361E+00
  0.194084339142E+02  0.178320064545E+02  0.760524809361E+00
  0.196679573059E+02  0.102728376389E+02 -0.980749070644E+00
  0.196679573059E+02  0.102728376389E+02  0.980749070644E+00
  0.197579002380E+02  0.757896304131E+00  0.000000000000E+00
  0.199052257538E+02  0.137921218872E+02 -0.114008641243E+01
  0.199052257538E+02  0.137921218872E+02  0.114008641243E+01
  0.200106849670E+02  0.734362459183E+01 -0.678054273129E+00
  0.200106849670E+02  0.734362459183E+01  0.678054273129E+00
  0.201340255737E+02  0.178897356987E+01 -0.698661133647E-01
  0.201340255737E+02  0.178897356987E+01  0.698661133647E-01
  0.203403968811E+02  0.499661636353E+01 -0.393031775951E+00
  0.203403968811E+02  0.499661636353E+01  0.393031775951E+00
  0.203732471466E+02  0.317279767990E+01 -0.192507073283E+00
  0.203732471466E+02  0.317279767990E+01  0.192507073283E+00
  0.207889842987E+02  0.178897356987E+01  0.000000000000E+00
  0.212566699982E+02  0.178320064545E+02 -0.102349495888E+01
  0.212566699982E+02  0.178320064545E+02  0.102349495888E+01
  0.215178565979E+02  0.317279767990E+01 -0.698661431670E-01
  0.215178565979E+02  0.317279767990E+01  0.698661431670E-01
  0.221728172302E+02  0.317279767990E+01  0.000000000000E+00
  0.221970767975E+02  0.499661636353E+01 -0.192507177591E+00
  0.221970767975E+02  0.499661636353E+01  0.192507177591E+00
  0.222339305878E+02  0.222339305878E+02  0.000000000000E+00
  0.226874179840E+02  0.734362459183E+01 -0.393032073975E+00
  0.226874179840E+02  0.734362459183E+01  0.393032073975E+00
  0.227074012756E+02  0.222339305878E+02 -0.436297029257E+00
  0.227074012756E+02  0.222339305878E+02  0.436297029257E+00
  0.229399108887E+02  0.102728376389E+02 -0.678054928780E+00
  0.229399108887E+02  0.102728376389E+02  0.678054928780E+00
  0.231872520447E+02  0.137921218872E+02 -0.980750203133E+00
  0.231872520447E+02  0.137921218872E+02  0.980750203133E+00
  0.233416862488E+02  0.499661636353E+01 -0.698661878705E-01
  0.233416862488E+02  0.499661636353E+01  0.698661878705E-01
  0.238103618622E+02  0.222339305878E+02 -0.760525882244E+00
  0.238103618622E+02  0.222339305878E+02  0.760525882244E+00
  0.239451179504E+02  0.178320064545E+02 -0.114008784294E+01
  0.239451179504E+02  0.178320064545E+02  0.114008784294E+01
  0.239966468811E+02  0.499661636353E+01  0.000000000000E+00
  0.245440979004E+02  0.734362459183E+01 -0.192507326603E+00
  0.245440979004E+02  0.734362459183E+01  0.192507326603E+00
  0.256166458130E+02  0.102728376389E+02 -0.393032461405E+00
  0.256166458130E+02  0.102728376389E+02  0.393032461405E+00
  0.256585998535E+02  0.222339305878E+02 -0.102349650860E+01
  0.256585998535E+02  0.222339305878E+02  0.102349650860E+01
  0.256887092590E+02  0.734362459183E+01 -0.698662400246E-01
  0.256887092590E+02  0.734362459183E+01  0.698662400246E-01
[...]
CELL_DATA                 904
SCALARS C_p_inc float 1
LOOKUP_TABLE default
  0.165166684454E+00
  0.142406902580E+00
  0.109223486849E+00
  0.920466584710E-01
  0.756275694743E-01
  0.666426177416E-01
  0.479138444429E-01
  0.410778391555E-01
  0.235525492472E-01
  0.188194858968E-01
  0.282449644336E-01
  0.224897685336E-01
  0.125151961968E+00
  0.929148870082E-01
  0.273248315383E+00
  0.228682298115E+00
  0.478405480121E+00
  0.434291396575E+00
  0.701286925154E+00
  0.693423146644E+00
 -0.282920139827E+00
  0.128811390662E+00
 -0.623057724196E+00
 -0.368391652282E+00
 -0.556344960247E+00
 -0.478015224568E+00
 -0.539913382582E+00
 -0.515886801484E+00
 -0.476743321943E+00
 -0.496938850136E+00
 -0.380322395418E+00
 -0.352224495598E+00
 -0.255254627302E+00
 -0.225123436251E+00
 -0.150407491194E+00
 -0.113946295730E+00
 -0.600643568194E-01
 -0.422027243992E-02
  0.565053606900E-01
  0.127537985930E+00
  0.160383362017E+00
  0.163790447126E+00
  0.112906732364E+00
  0.109027657784E+00
  0.846665560018E-01
  0.756169448871E-01
  0.542087067032E-01
  0.479596832916E-01
  0.257954479744E-01
  0.235038036577E-01
  0.224655652560E-01
  0.153846956291E-01
  0.941918996711E-01
  0.728997015363E-01
  0.225143247975E+00
  0.206204096511E+00
  0.402778010778E+00
  0.402334127192E+00
  0.577279528655E+00
  0.530918369774E+00
 -0.533751355344E+00
 -0.302429639555E+00
 -0.781434275190E+00
 -0.594567016213E+00
 -0.645718540676E+00
 -0.555234072619E+00
 -0.576714310453E+00
 -0.545283046529E+00
 -0.470381402058E+00
 -0.483384005361E+00
 -0.351855226305E+00
 -0.327416376685E+00
 -0.224599879938E+00
 -0.191793812800E+00
 -0.113780367285E+00
 -0.730772194646E-01
 -0.479336534452E-02
  0.288597432396E-01
  0.123200649227E+00
  0.133822510324E+00
  0.157349058554E+00
  0.159708770761E+00
  0.111113279100E+00
  0.112619428517E+00
  0.879864839352E-01
  0.845782291160E-01
  0.600024580712E-01
  0.542440158690E-01
  0.286680121781E-01
  0.258101599520E-01
  0.157357872520E-01
  0.121805910947E-01
  0.736082369085E-01
  0.633644100251E-01
  0.201686157854E+00
  0.195087525362E+00
  0.387291599894E+00
  0.393156233990E+00
  0.515101956918E+00
  0.465956293846E+00
 -0.740528783301E+00
 -0.540888249987E+00
 -0.922961160077E+00
 -0.761507944195E+00
 -0.724484742935E+00
 -0.639703341106E+00
 -0.609183576506E+00
 -0.581022573108E+00
 -0.466492111752E+00
 -0.479389205665E+00
 -0.327498623579E+00
 -0.302523611589E+00
 -0.191269404735E+00
 -0.157935669497E+00
 -0.730403391414E-01
 -0.435010521856E-01
  0.279430341549E-01
  0.430988889826E-01
  0.131753332550E+00
  0.137192563375E+00
  0.156316002151E+00
  0.156840083351E+00
  0.109546638614E+00
  0.110858532133E+00
  0.876380456490E-01
  0.878503854175E-01
  0.629662366070E-01
  0.600080667210E-01
  0.322134064447E-01
  0.287490809677E-01
  0.123532839607E-01
  0.130329750471E-01
  0.634729538868E-01
  0.618133320789E-01
  0.192337513544E+00
  0.194751055312E+00
  0.386670802844E+00
  0.395541026693E+00
  0.466917826060E+00
  0.417866298975E+00
 -0.921310276403E+00
 -0.742096984124E+00
 -0.104589203128E+01
 -0.910152087625E+00
 -0.790931955504E+00
 -0.721539187969E+00
 -0.636379730662E+00
 -0.615243389243E+00
 -0.461815539325E+00
 -0.476578765302E+00
 -0.303079569531E+00
 -0.278892171400E+00
 -0.157568426364E+00
 -0.131798104430E+00
 -0.435833974670E-01
 -0.269587713405E-01
  0.426297367269E-01
  0.509237964591E-01
  0.136387019401E+00
  0.139767396817E+00
  0.155983393296E+00
  0.155834029699E+00
  0.108726965049E+00
  0.109295799602E+00
  0.868182613968E-01
  0.874855273254E-01
  0.635522311261E-01
  0.629253829568E-01
  0.349852768574E-01
  0.323130387223E-01
  0.130713133340E-01
  0.167191318358E-01
  0.617804941956E-01
  0.662860694505E-01
  0.193763587570E+00
  0.201957373030E+00
  0.394516856006E+00
  0.404805534557E+00
  0.426512141018E+00
  0.379031119404E+00
 -0.107647020387E+01
 -0.920932037740E+00
 -0.114736850713E+01
 -0.103977897646E+01
 -0.843069119914E+00
 -0.791903449341E+00
 -0.656041647724E+00
 -0.643840221219E+00
 -0.456656725441E+00
 -0.471573466835E+00
 -0.279683053515E+00
 -0.261145341372E+00
 -0.131717259421E+00
 -0.116413072855E+00
 -0.269842446875E-01
 -0.179238522773E-01
  0.508793024881E-01
  0.558692134776E-01
  0.139786288714E+00
  0.142425716538E+00
  0.156152603969E+00
  0.155499321152E+00
  0.108457906077E+00
  0.108459472624E+00
  0.863661774827E-01
  0.866439143743E-01
  0.635797545857E-01
  0.634742630339E-01
  0.366619078214E-01
  0.350494022016E-01
  0.167405204333E-01
  0.210796866312E-01
  0.662789822636E-01
  0.736915405645E-01
  0.202069642895E+00
  0.212810919629E+00
  0.406701428438E+00
  0.416830318753E+00
  0.390678524912E+00
  0.347188766543E+00
 -0.120303732534E+01
 -0.107582890978E+01
 -0.122580537032E+01
 -0.114607443561E+01
 -0.881171741872E+00
 -0.846523349607E+00
 -0.669579647011E+00
 -0.663385436599E+00
 -0.453895301091E+00
 -0.464322357361E+00
 -0.262051406502E+00
 -0.251454924482E+00
 -0.116549778850E+00
 -0.108649798023E+00
 -0.178844726405E-01
 -0.129695127697E-01
  0.560737872288E-01
  0.591213394588E-01
  0.142880248199E+00
  0.144782336848E+00
  0.156433503435E+00
  0.155638059199E+00
  0.108381671221E+00
  0.108162169545E+00
  0.861579436147E-01
  0.861648108019E-01
  0.636587639363E-01
  0.634707305388E-01
  0.378845118834E-01
  0.366775196965E-01
  0.211102279031E-01
  0.248515339809E-01
  0.737098877436E-01
  0.810359501358E-01
  0.213310417889E+00
  0.223667595153E+00
  0.419559835479E+00
  0.428182114727E+00
  0.358214280518E+00
  0.321319069065E+00
 -0.130076867974E+01
 -0.120266068130E+01
 -0.128347634953E+01
 -0.122675930896E+01
 -0.908495834221E+00
 -0.884927732481E+00
 -0.680173705642E+00
 -0.675149164978E+00
 -0.454484128146E+00
 -0.458819406917E+00
 -0.252411382457E+00
 -0.247588926598E+00
 -0.108902692321E+00
 -0.105034221379E+00
 -0.129123913481E-01
 -0.101488580054E-01
  0.594326617677E-01
  0.614402741456E-01
  0.145445616531E+00
  0.146952766988E+00
  0.156364519347E+00
  0.155861828527E+00
  0.107998723025E+00
  0.108044227132E+00
  0.856979146642E-01
  0.859238154643E-01
  0.634863190023E-01
  0.635211562395E-01
  0.386667640933E-01
  0.378601102964E-01
  0.248735127186E-01
  0.276500478219E-01
  0.810322874506E-01
  0.867834237650E-01
  0.224082800888E+00
  0.232297676773E+00
  0.430433716663E+00
  0.436878106557E+00
  0.329605312926E+00
  0.300806946232E+00
 -0.137297939838E+01
 -0.130057884620E+01
 -0.132493291623E+01
 -0.128465273109E+01
 -0.928373508796E+00
 -0.911193409028E+00
 -0.688928827958E+00
 -0.683643154721E+00
 -0.456634729832E+00
 -0.457394825641E+00
 -0.248522295372E+00
 -0.246412493660E+00
 -0.105345157076E+00
 -0.103078981715E+00
 -0.101059390114E-01
 -0.802635061480E-02
  0.617816274211E-01
  0.636337395569E-01
  0.147706865943E+00
  0.149362153811E+00
  0.155519906830E+00
  0.155686550586E+00
  0.106736295191E+00
  0.107591283494E+00
  0.843150667770E-01
  0.854153738287E-01
  0.623669675926E-01
  0.633166337215E-01
  0.383971081341E-01
  0.386112870316E-01
  0.276541049995E-01
  0.289578510410E-01
  0.867289613234E-01
  0.903021715790E-01
  0.232464426594E+00
  0.237957201147E+00
  0.438237556832E+00
  0.442494791081E+00
  0.306058404349E+00
  0.285619184242E+00
 -0.142308302405E+01
 -0.137283398525E+01
 -0.135321675798E+01
 -0.132567773716E+01
 -0.941948946450E+00
 -0.930046537206E+00
 -0.695050259110E+00
 -0.691090570862E+00
 -0.458187307305E+00
 -0.458576805198E+00
 -0.247288673130E+00
 -0.245439683442E+00
 -0.103425452611E+00
 -0.100924762013E+00
 -0.801055436481E-02
 -0.532001343090E-02
  0.639825320741E-01
  0.666103524554E-01
  0.150184964859E+00
  0.152622821593E+00
  0.153622197358E+00
  0.154628125642E+00
  0.103992555733E+00
  0.106192882657E+00
  0.812194287181E-01
  0.839428798112E-01
  0.594075713174E-01
  0.621471290570E-01
  0.361755126641E-01
  0.383122587534E-01
  0.289347147902E-01
  0.279863122471E-01
  0.901648833663E-01
  0.910221736949E-01
  0.237824908992E+00
  0.240368861054E+00
  0.442979073749E+00
  0.445227318955E+00
  0.288407974860E+00
  0.276310222603E+00
 -0.145247098634E+01
 -0.142296437006E+01
 -0.136916469520E+01
 -0.135374388628E+01
 -0.948904407320E+00
 -0.943206177750E+00
 -0.697236843742E+00
 -0.696796816100E+00
 -0.457278130281E+00
 -0.459936505547E+00
 -0.246268846019E+00
 -0.242722696027E+00
 -0.101315174116E+00
 -0.969336720892E-01
 -0.533917318361E-02
 -0.675051459282E-03
  0.669815484003E-01
  0.714748201999E-01
  0.153578244636E+00
  0.157510160240E+00
  0.150255224514E+00
  0.152291139866E+00
  0.990984553921E-01
  0.103170137357E+00
  0.755176609646E-01
  0.806635247539E-01
  0.535497284826E-01
  0.590894528187E-01
  0.308994258203E-01
  0.360492070042E-01
  0.279105876872E-01
  0.237338382345E-01
  0.907425556449E-01
  0.882015288154E-01
  0.239847317696E+00
  0.239155375106E+00
  0.444817576804E+00
  0.445162892085E+00
  0.277033973051E+00
  0.273504938144E+00
 -0.146112132910E+01
 -0.145241648788E+01
 -0.137247118456E+01
 -0.136983404483E+01
 -0.948403928122E+00
 -0.950302753393E+00
 -0.694127541674E+00
 -0.699243235006E+00
 -0.452201366426E+00
 -0.459420714159E+00
 -0.243546305428E+00
 -0.236464633015E+00
 -0.974105464481E-01
 -0.893272242287E-01
 -0.749902979622E-03
  0.763077517284E-02
  0.719042174668E-01
  0.798665700097E-01
  0.158747802538E+00
  0.165567792551E+00
  0.145529588701E+00
  0.148086212618E+00
  0.918371235414E-01
  0.977212166976E-01
  0.666051238937E-01
  0.745836031351E-01
  0.437879895095E-01
  0.530246309825E-01
  0.213069455806E-01
  0.306937222059E-01
  0.235456643983E-01
  0.149588492718E-01
  0.876748161972E-01
  0.808680975754E-01
  0.238060794802E+00
  0.233733535278E+00
  0.443646860896E+00
  0.442119206387E+00
  0.272079352241E+00
  0.277420256924E+00
 -0.144893509391E+01
 -0.146116580180E+01
 -0.136270976950E+01
 -0.137356691372E+01
 -0.939620048074E+00
 -0.950378589266E+00
 -0.684413527455E+00
 -0.696973015031E+00
 -0.441227701984E+00
 -0.455346303168E+00
 -0.237337431457E+00
 -0.224747780276E+00
 -0.899751276461E-01
 -0.760481260781E-01
  0.743976217143E-02
  0.216670050786E-01
  0.803738590314E-01
  0.938267050110E-01
  0.167279819121E+00
  0.178811171380E+00
  0.139969618389E+00
  0.141850516985E+00
  0.827935436432E-01
  0.894006449570E-01
  0.548025159132E-01
  0.649089772111E-01
  0.298793001108E-01
  0.428183344114E-01
  0.638767211570E-02
  0.209262179549E-01
  0.145158454593E-01
  0.233906192741E-03
  0.799079699461E-01
  0.677471237506E-01
  0.231743181744E+00
  0.223275811936E+00
  0.439040535457E+00
  0.435645455353E+00
  0.273262817765E+00
  0.287582928536E+00
 -0.141677326260E+01
 -0.144909517944E+01
 -0.134000215750E+01
 -0.136444242243E+01
 -0.922033172427E+00
 -0.942563580361E+00
 -0.666886458871E+00
 -0.688746827988E+00
 -0.422513477131E+00
 -0.446210967695E+00
 -0.225716435930E+00
 -0.205601745004E+00
 -0.770139211675E-01
 -0.552760203867E-01
  0.212035167999E-01
  0.430712809897E-01
  0.943218821003E-01
  0.115121090946E+00
  0.181109321105E+00
  0.199404446405E+00
  0.133339430010E+00
  0.133537737668E+00
  0.718670196784E-01
  0.783300181721E-01
  0.402269447417E-01
  0.516020977484E-01
  0.124659400568E-01
  0.279694993551E-01
 -0.134842956876E-01
  0.559231872048E-02
 -0.819018011576E-03
 -0.213721535958E-01
  0.659952513538E-01
  0.472209495227E-01
  0.219833319307E+00
  0.206573410820E+00
  0.430217815235E+00
  0.424976603838E+00
  0.279569868349E+00
  0.302755038889E+00
 -0.136685708869E+01
 -0.141704278689E+01
 -0.130525949368E+01
 -0.134252837993E+01
 -0.895472542977E+00
 -0.926375546735E+00
 -0.640332932612E+00
 -0.673619801198E+00
 -0.394085444781E+00
 -0.430695562272E+00
 -0.206716626084E+00
 -0.177999342545E+00
 -0.568231784657E-01
 -0.275790146460E-01
  0.419822110457E-01
  0.708119825265E-01
  0.115202425386E+00
  0.143684152776E+00
  0.201964645589E+00
  0.228406819517E+00
  0.122301885742E+00
  0.120531775363E+00
  0.537551746152E-01
  0.627238330393E-01
  0.167700434359E-01
  0.338758651583E-01
 -0.111541899257E-01
  0.871526761526E-02
 -0.366803176850E-01
 -0.152277506133E-01
 -0.238493929939E-01
 -0.479644206133E-01
  0.439226903677E-01
  0.178667881604E-01
  0.200645507716E+00
  0.181679395409E+00
  0.415848001232E+00
  0.408810350948E+00
  0.289012976119E+00
  0.321096859025E+00
 -0.130238850013E+01
 -0.136720337187E+01
 -0.125985288940E+01
 -0.130870286120E+01
 -0.859610689167E+00
 -0.901839417970E+00
 -0.602795286021E+00
 -0.651128154691E+00
 -0.354428388912E+00
 -0.407945715681E+00
 -0.179484110709E+00
 -0.145054847215E+00
 -0.301690769413E-01
  0.499781891535E-03
  0.685695777424E-01
  0.984902042849E-01
  0.142628520783E+00
  0.177925214356E+00
  0.230174762288E+00
  0.269371647640E+00
  0.100646939094E+00
  0.859102488625E-01
  0.273738474763E-02
  0.284051588419E-01
 -0.451610299942E-01
  0.259648550382E-02
 -0.554080228023E-01
 -0.180556379539E-01
 -0.651041244866E-01
 -0.401592934971E-01
 -0.533366410740E-01
 -0.738994860577E-01
  0.115046641427E-01
 -0.183419276217E-01
  0.171096985923E+00
  0.145419174837E+00
  0.393367635537E+00
  0.384615902081E+00
  0.298339078127E+00
  0.340450638489E+00
 -0.122647474270E+01
 -0.130274643184E+01
 -0.120453687881E+01
 -0.126437085170E+01
 -0.812244571896E+00
 -0.869380993814E+00
 -0.550362139375E+00
 -0.621482982302E+00
 -0.306835557220E+00
 -0.378061416545E+00
 -0.147731789330E+00
 -0.116118398514E+00
 -0.397824123336E-02
  0.147733999877E-01
  0.951886964264E-01
  0.106069908397E+00
  0.176495424793E+00
  0.212319949976E+00
  0.269821561567E+00
  0.346017500905E+00
  0.553745350233E-02
 -0.155633167819E+00
 -0.361251944676E+00
 -0.117380651864E+00
 -0.288792480067E+00
 -0.803159940618E-01
 -0.158372235061E+00
 -0.658456417575E-01
 -0.106382842739E+00
 -0.707984227577E-01
 -0.843878358229E-01
 -0.971459672591E-01
 -0.300993300630E-01
 -0.520938871284E-01
  0.125495710641E+00
  0.951558480397E-01
  0.356707206641E+00
  0.346598900281E+00
  0.301805822488E+00
  0.358397116393E+00
 -0.114045354582E+01
 -0.122673231477E+01
 -0.113673825937E+01
 -0.121062938102E+01
 -0.744601548764E+00
 -0.829815468320E+00
 -0.483290892941E+00
 -0.584653370315E+00
 -0.262929520962E+00
 -0.345388774575E+00
 -0.122254967324E+00
 -0.101115075873E+00
  0.526209760741E-02
 -0.798378086519E-02
  0.103576217781E+00
  0.569372199749E-02
  0.212754152865E+00
  0.845316368258E-01
  0.319007955816E+00
  0.583889842527E+00
 -0.935356925007E+02
  0.193021517893E+00
 -0.710974479663E+00
 -0.182773838063E+01
 -0.216068063123E+01
 -0.350990748395E+00
 -0.405367551323E+00
 -0.163886681529E+00
 -0.171552012634E+00
 -0.113984892810E+00
 -0.116690159551E+00
 -0.122638152092E+00
 -0.725729634394E-01
 -0.794747367627E-01
  0.583048743599E-01
  0.388872136060E-01
  0.288114735355E+00
  0.280111365488E+00
  0.284220624792E+00
  0.371075611283E+00
 -0.103994680189E+01
 -0.114043909989E+01
 -0.103939883440E+01
 -0.114748101654E+01
 -0.641415654833E+00
 -0.783333431614E+00
 -0.420913610750E+00
 -0.543588758435E+00
 -0.232985083609E+00
 -0.324950490145E+00
 -0.117446532052E+00
 -0.108062440229E+00
 -0.389723332526E-01
 -0.986214868491E-01
 -0.264128212160E-02
 -0.112633092977E+01
 -0.430334114703E+00
 -0.302502678706E+00
 -0.596051717463E+00
 -0.915806531509E+02
 -0.153754150593E+09
 -0.930625604530E+05
 -0.547696835914E+05
 -0.509381856203E+00
 -0.177726439076E+00
 -0.172672235492E+01
 -0.119792264644E+01
 -0.375025836114E+00
 -0.301193118007E+00
 -0.187744958059E+00
 -0.169077866306E+00
 -0.166360254341E+00
 -0.120603067503E+00
 -0.120677216241E+00
 -0.334650613100E-01
 -0.327932929489E-01
  0.134555632600E+00
  0.153100539273E+00
  0.145545100907E+00
  0.344141535656E+00
 -0.858165730241E+00
 -0.103984374842E+01
 -0.806001022030E+00
 -0.108506121786E+01
 -0.536328599535E+00
 -0.734208784029E+00
 -0.391897428982E+00
 -0.535476403351E+00
 -0.232791753683E+00
 -0.359397115398E+00
 -0.167395969555E+00
 -0.171074439754E+00
 -0.236986791011E+00
 -0.331063008394E+00
 -0.123480566410E+01
 -0.203154386175E+01
 -0.766389720023E-01
 -0.543798842914E+05
 -0.923961004692E+05
 -0.153768366330E+09
 -0.350455986716E+09
 -0.210887280308E+07
 -0.912966662315E+05
 -0.111473529372E+03
 -0.377059592522E+01
 -0.306766200160E+01
 -0.848053247247E+00
 -0.586210445613E+00
 -0.336671111400E+00
 -0.297509013405E+00
 -0.258517881424E+00
 -0.218696688111E+00
 -0.224982685733E+00
 -0.172623004036E+00
 -0.198333257511E+00
 -0.124775549960E+00
 -0.140823704450E+00
 -0.141100914502E+00
 -0.856400589871E+00
 -0.704331899095E+00
 -0.915687823345E+00
 -0.560280658012E+00
 -0.696139563925E+00
 -0.460386070306E+00
 -0.589710848741E+00
 -0.330379858513E+00
 -0.507320020043E+00
 -0.344282740179E+00
 -0.413347645831E+00
 -0.937626512904E+00
 -0.505290846349E+00
  0.440714188987E+00
 -0.163227204029E+03
 -0.920625985933E+05
 -0.209995508936E+07
 -0.350395568323E+09
 -0.368027784769E+09
 -0.807522912424E+07
 -0.131559420570E+06
 -0.813085732135E+03
 -0.738225116151E+01
 -0.433222184199E+01
 -0.116674577722E+01
 -0.870705050098E+00
 -0.503666163563E+00
 -0.466852383094E+00
 -0.383608924947E+00
 -0.351890882005E+00
 -0.351216109104E+00
 -0.315267102017E+00
 -0.351185162497E+00
 -0.303564918111E+00
 -0.360016995559E+00
 -0.275216719829E+00
 -0.822567416370E+00
 -0.707780301160E+00
 -0.846664207807E+00
 -0.621433454693E+00
 -0.705214826627E+00
 -0.551998369980E+00
 -0.650761542896E+00
 -0.452757661113E+00
 -0.650108890807E+00
 -0.549936764620E+00
 -0.675310243518E+00
 -0.146608263688E+01
 -0.775697094611E+00
  0.340883132320E+00
 -0.985555262701E+03
 -0.132821854774E+06
 -0.805232767016E+07
 -0.367934033668E+09
 -0.293855244552E+09
 -0.622192895155E+07
 -0.176722656213E+06
 -0.626032121619E+03
 -0.129326607518E+02
 -0.449115616083E+01
 -0.152940463739E+01
 -0.109898077636E+01
 -0.661561894888E+00
 -0.623133481689E+00
 -0.507562253317E+00
 -0.483034004902E+00
 -0.471846247859E+00
 -0.445181602056E+00
 -0.480362349642E+00
 -0.449423010411E+00
 -0.523308779263E+00
 -0.392209315805E+00
 -0.740527992115E+00
 -0.713890445206E+00
 -0.763492896706E+00
 -0.651992085833E+00
 -0.682485263545E+00
 -0.604709267221E+00
 -0.675177694347E+00
 -0.546432775134E+00
 -0.747537758425E+00
 -0.716017946368E+00
 -0.906494982167E+00
 -0.189938956633E+01
 -0.124840713392E+01
 -0.238789028243E+01
 -0.803391203237E+03
 -0.178103337179E+06
 -0.619863866392E+07
 -0.293768691826E+09
 -0.211332059927E+09
 -0.121023880094E+07
 -0.197407543287E+06
 -0.934722062066E+02
 -0.130057974376E+02
 -0.354580575490E+01
 -0.187458386819E+01
 -0.119926297989E+01
 -0.763420206940E+00
 -0.725712570316E+00
 -0.597624276898E+00
 -0.588110660950E+00
 -0.567771629839E+00
 -0.554415539559E+00
 -0.579216330100E+00
 -0.573596588582E+00
 -0.633419021682E+00
 -0.511915541731E+00
 -0.631303189662E+00
 -0.705420241278E+00
 -0.668425228189E+00
 -0.642842880682E+00
 -0.629990619568E+00
 -0.609530483150E+00
 -0.657770883088E+00
 -0.592694633256E+00
 -0.788027092002E+00
 -0.810430290210E+00
 -0.108238998373E+01
 -0.208824837771E+01
 -0.211962371135E+01
 -0.740298601145E+01
 -0.171369072627E+03
 -0.198064522218E+06
 -0.120010507866E+07
 -0.211296324918E+09
SCALARS sigma float 1
LOOKUP_TABLE default
  0.000000000000E+00
  0.000000000000E+00
  0.000000000000E+00
  0.000000000000E+00
  0.000000000000E+00
  0.000000000000E+00
  0.000000000000E+00
  0.000000000000E+00
  0.000000000000E+00
  0.000000000000E+00
  0.000000000000E+00
  0.000000000000E+00
  0.000000000000E+00
  0.000000000000E+00
  0.000000000000E+00
  0.000000000000E+00
  0.000000000000E+00
  0.000000000000E+00
  0.000000000000E+00
  0.000000000000E+00
  0.000000000000E+00
  0.000000000000E+00
  0.000000000000E+00
  0.000000000000E+00
  0.000000000000E+00
  0.000000000000E+00
  0.000000000000E+00
  0.000000000000E+00
  0.000000000000E+00
  0.000000000000E+00
  0.000000000000E+00
  0.000000000000E+00
  0.000000000000E+00
  0.000000000000E+00
  0.000000000000E+00
  0.000000000000E+00
  0.000000000000E+00
  0.000000000000E+00
  0.000000000000E+00
  0.000000000000E+00
  0.000000000000E+00
  0.000000000000E+00