# vtk DataFile Version 3.0
TriPan results file. Generated by TriPan, USU AeroLab (c) 2021.
ASCII
DATASET POLYDATA
POINTS                 144 float
  0.000000000000E+00  0.000000000000E+00  0.000000000000E+00
  0.113538098335E+01  0.000000000000E+00 -0.658124566078E+00
  0.113538098335E+01  0.000000000000E+00  0.658124566078E+00
  0.192375373840E+01  0.192375373840E+01  0.000000000000E+00
  0.305913543701E+01  0.192375373840E+01 -0.658124983311E+00
  0.305913543701E+01  0.192375373840E+01  0.658124983311E+00
  0.423028087616E+01  0.000000000000E+00 -0.108747220039E+01
  0.423028087616E+01  0.000000000000E+00  0.108747220039E+01
  0.547033166885E+01  0.547033166885E+01  0.000000000000E+00
  0.615403699875E+01  0.192375373840E+01 -0.108747279644E+01
  0.615403699875E+01  0.192375373840E+01  0.108747279644E+01
  0.660571479797E+01  0.547033166885E+01 -0.658125698566E+00
  0.660571479797E+01  0.547033166885E+01  0.658125698566E+00
  0.939508819580E+01  0.000000000000E+00 -0.980745851994E+00
  0.939508819580E+01  0.000000000000E+00  0.980745851994E+00
  0.970061969757E+01  0.547033166885E+01 -0.108747410774E+01
  0.970061969757E+01  0.547033166885E+01  0.108747410774E+01
  0.113188476562E+02  0.192375373840E+01 -0.980746448040E+00
  0.113188476562E+02  0.192375373840E+01  0.980746448040E+00
  0.113820018768E+02  0.113820018768E+02  0.000000000000E+00
  0.125173873901E+02  0.113820018768E+02 -0.658127009869E+00
  0.125173873901E+02  0.113820018768E+02  0.658127009869E+00
  0.145402030945E+02  0.000000000000E+00 -0.479613035917E+00
  0.145402030945E+02  0.000000000000E+00  0.479613035917E+00
  0.148654365540E+02  0.547033166885E+01 -0.980747580528E+00
  0.148654365540E+02  0.547033166885E+01  0.980747580528E+00
  0.156122989655E+02  0.113820018768E+02 -0.108747613430E+01
  0.156122989655E+02  0.113820018768E+02  0.108747613430E+01
  0.164639663696E+02  0.192375373840E+01 -0.479613333941E+00
  0.164639663696E+02  0.192375373840E+01  0.479613333941E+00
  0.176505107880E+02  0.000000000000E+00 -0.144198849797E+00
  0.176505107880E+02  0.000000000000E+00  0.144198849797E+00
  0.190000000000E+02  0.000000000000E+00  0.000000000000E+00
  0.195742740631E+02  0.192375373840E+01 -0.144198939204E+00
  0.195742740631E+02  0.192375373840E+01  0.144198939204E+00
  0.197561950684E+02  0.197561950684E+02  0.000000000000E+00
  0.200105609894E+02  0.547033166885E+01 -0.479613870382E+00
  0.200105609894E+02  0.547033166885E+01  0.479613870382E+00
  0.207771244049E+02  0.113820018768E+02 -0.980749428272E+00
  0.207771244049E+02  0.113820018768E+02  0.980749428272E+00
  0.208915824890E+02  0.197561950684E+02 -0.658128738403E+00
  0.208915824890E+02  0.197561950684E+02  0.658128738403E+00
  0.209237651825E+02  0.192375373840E+01  0.000000000000E+00
  0.231208724976E+02  0.547033166885E+01 -0.144199103117E+00
  0.231208724976E+02  0.547033166885E+01  0.144199103117E+00
  0.239865016937E+02  0.197561950684E+02 -0.108747911453E+01
  0.239865016937E+02  0.197561950684E+02  0.108747911453E+01
  0.244703655243E+02  0.547033166885E+01  0.000000000000E+00
  0.259222583771E+02  0.113820018768E+02 -0.479614794254E+00
  0.259222583771E+02  0.113820018768E+02  0.479614794254E+00
  0.290325775146E+02  0.113820018768E+02 -0.144199386239E+00
  0.290325775146E+02  0.113820018768E+02  0.144199386239E+00
  0.291513423920E+02  0.197561950684E+02 -0.980752110481E+00
  0.291513423920E+02  0.197561950684E+02  0.980752110481E+00
  0.292438049316E+02  0.292438049316E+02  0.000000000000E+00
  0.303791980743E+02  0.292438049316E+02 -0.658130764961E+00
  0.303791980743E+02  0.292438049316E+02  0.658130764961E+00
  0.303820724487E+02  0.113820018768E+02  0.000000000000E+00
  0.334741249084E+02  0.292438049316E+02 -0.108748245239E+01
  0.334741249084E+02  0.292438049316E+02  0.108748245239E+01
  0.342964897156E+02  0.197561950684E+02 -0.479616105556E+00
  0.342964897156E+02  0.197561950684E+02  0.479616105556E+00
  0.374068183899E+02  0.197561950684E+02 -0.144199773669E+00
  0.374068183899E+02  0.197561950684E+02  0.144199773669E+00
  0.376179962158E+02  0.376179962158E+02  0.000000000000E+00
  0.386389808655E+02  0.292438049316E+02 -0.980755090714E+00
  0.386389808655E+02  0.292438049316E+02  0.980755090714E+00
  0.387533912659E+02  0.376179962158E+02 -0.658132553101E+00
  0.387533912659E+02  0.376179962158E+02  0.658132553101E+00
  0.387563171387E+02  0.197561950684E+02  0.000000000000E+00
  0.418483314514E+02  0.376179962158E+02 -0.108748543262E+01
  0.418483314514E+02  0.376179962158E+02  0.108748543262E+01
  0.435296669006E+02  0.435296669006E+02  0.000000000000E+00
  0.437841453552E+02  0.292438049316E+02 -0.479617565870E+00
  0.437841453552E+02  0.292438049316E+02  0.479617565870E+00
  0.446650657654E+02  0.435296669006E+02 -0.658133804798E+00
  0.446650657654E+02  0.435296669006E+02  0.658133804798E+00
  0.468944816589E+02  0.292438049316E+02 -0.144200220704E+00
  0.468944816589E+02  0.292438049316E+02  0.144200220704E+00
  0.470131988525E+02  0.376179962158E+02 -0.980757772923E+00
  0.470131988525E+02  0.376179962158E+02  0.980757772923E+00
  0.470762481689E+02  0.470762481689E+02  0.000000000000E+00
  0.477600097656E+02  0.435296669006E+02 -0.108748745918E+01
  0.477600097656E+02  0.435296669006E+02  0.108748745918E+01
  0.482116432190E+02  0.470762481689E+02 -0.658134579659E+00
  0.482116432190E+02  0.470762481689E+02  0.658134579659E+00
  0.482439842224E+02  0.292438049316E+02  0.000000000000E+00
  0.490000000000E+02  0.490000000000E+02  0.000000000000E+00
  0.501353988647E+02  0.490000000000E+02 -0.658134996891E+00
  0.501353988647E+02  0.490000000000E+02  0.658134996891E+00
  0.506007728577E+02  0.494653701782E+02 -0.465371757746E+00
  0.506007728577E+02  0.494653701782E+02  0.465371757746E+00
  0.507935333252E+02  0.496581344604E+02 -0.771266485397E-15
  0.513065910339E+02  0.470762481689E+02 -0.108748877048E+01
  0.513065910339E+02  0.470762481689E+02  0.108748877048E+01
  0.521583786011E+02  0.376179962158E+02 -0.479618877172E+00
  0.521583786011E+02  0.376179962158E+02  0.479618877172E+00
  0.529248886108E+02  0.435296669006E+02 -0.980759620667E+00
  0.529248886108E+02  0.435296669006E+02  0.980759620667E+00
  0.532303466797E+02  0.490000000000E+02 -0.108748936653E+01
  0.532303466797E+02  0.490000000000E+02  0.108748936653E+01
  0.539993209839E+02  0.497689704895E+02 -0.768971264362E+00
  0.539993209839E+02  0.497689704895E+02  0.768971264362E+00
  0.543178405762E+02  0.500874900818E+02 -0.157378642191E-15
  0.552687225342E+02  0.376179962158E+02 -0.144200608134E+00
  0.552687225342E+02  0.376179962158E+02  0.144200608134E+00
  0.564714775085E+02  0.470762481689E+02 -0.980760753155E+00
  0.564714775085E+02  0.470762481689E+02  0.980760753155E+00
  0.566182289124E+02  0.376179962158E+02  0.000000000000E+00
  0.580700759888E+02  0.435296669006E+02 -0.479619771242E+00
  0.580700759888E+02  0.435296669006E+02  0.479619771242E+00
  0.583952369690E+02  0.490000000000E+02 -0.980761349201E+00
  0.583952369690E+02  0.490000000000E+02  0.980761349201E+00
  0.590887413025E+02  0.496935043335E+02 -0.693503141403E+00
  0.590887413025E+02  0.496935043335E+02  0.693503141403E+00
  0.593759994507E+02  0.499807624817E+02  0.000000000000E+00
  0.611804275513E+02  0.435296669006E+02 -0.144200876355E+00
  0.611804275513E+02  0.435296669006E+02  0.144200876355E+00
  0.616166725159E+02  0.470762481689E+02 -0.479620337486E+00
  0.616166725159E+02  0.470762481689E+02  0.479620337486E+00
  0.625299339294E+02  0.435296669006E+02  0.000000000000E+00
  0.635404319763E+02  0.490000000000E+02 -0.479620635509E+00
  0.635404319763E+02  0.490000000000E+02  0.479620635509E+00
  0.638795776367E+02  0.493391418457E+02 -0.339143037796E+00
  0.638795776367E+02  0.493391418457E+02  0.339143037796E+00
  0.640200576782E+02  0.494796218872E+02  0.296956834055E-15
  0.647270278931E+02  0.470762481689E+02 -0.144201040268E+00
  0.647270278931E+02  0.470762481689E+02  0.144201040268E+00
  0.660765380859E+02  0.470762481689E+02  0.000000000000E+00
  0.666507873535E+02  0.490000000000E+02 -0.144201144576E+00
  0.666507873535E+02  0.490000000000E+02  0.144201144576E+00
  0.667527542114E+02  0.491019668579E+02 -0.101965606213E+00
  0.667527542114E+02  0.491019668579E+02  0.101965606213E+00
  0.667949905396E+02  0.491441993713E+02 -0.260488604752E-16
  0.680002975464E+02  0.490000000000E+02  0.000000000000E+00
  0.209237651825E+02  0.192375373840E+01  0.000000000000E+00
  0.190000000000E+02  0.000000000000E+00  0.000000000000E+00
  0.244703655243E+02  0.547033166885E+01  0.000000000000E+00
  0.303820724487E+02  0.113820018768E+02  0.000000000000E+00
  0.387563171387E+02  0.197561950684E+02  0.000000000000E+00
  0.482439842224E+02  0.292438049316E+02  0.000000000000E+00
  0.566182289124E+02  0.376179962158E+02  0.000000000000E+00
  0.625299339294E+02  0.435296669006E+02  0.000000000000E+00
  0.660765380859E+02  0.470762481689E+02  0.000000000000E+00
POLYGONS                 256                1024
3                  32                  33                  42
3                  32                  30                  33
3                  30                  28                  33
3                  30                  22                  28
3                  22                  17                  28
3                  22                  13                  17
3                  13                   6                  17
3                  17                   6                   9
3                   6                   1                   9
3                   9                   1                   4
3                   1                   0                   4
3                   4                   0                   3
3                   0                   5                   3
3                   0                   2                   5
3                   2                  10                   5
3                   2                   7                  10
[...]
CELL_DATA                 256
SCALARS sigma float 1
LOOKUP_TABLE default
  0.000000000000E+00
  0.000000000000E+00
  0.000000000000E+00
  0.000000000000E+00
  0.000000000000E+00
  0.000000000000E+00
  0.000000000000E+00
  0.000000000000E+00
  0.000000000000E+00
  0.000000000000E+00
  0.000000000000E+00
  0.000000000000E+00
  0.000000000000E+00
  0.000000000000E+00
  0.000000000000E+00
  0.000000000000E+00
  0.000000000000E+00
  0.000000000000E+00
  0.000000000000E+00
  0.000000000000E+00
  0.000000000000E+00
  0.000000000000E+00
  0.000000000000E+00
  0.000000000000E+00
  0.000000000000E+00
  0.000000000000E+00
  0.000000000000E+00
  0.000000000000E+00
  0.000000000000E+00
  0.000000000000E+00
  0.000000000000E+00
  0.000000000000E+00
  0.000000000000E+00
  0.000000000000E+00
  0.000000000000E+00
  0.000000000000E+00
  0.000000000000E+00
  0.000000000000E+00
  0.000000000000E+00
  0.000000000000E+00
  0.000000000000E+00
  0.000000000000E+00
  0.000000000000E+00
  0.000000000000E+00
  0.000000000000E+00
  0.000000000000E+00
  0.000000000000E+00
  0.000000000000E+00
  0.000000000000E+00
  0.000000000000E+00
  0.000000000000E+00
  0.000000000000E+00
  0.000000000000E+00
  0.000000000000E+00
  0.000000000000E+00
  0.000000000000E+00
  0.000000000000E+00
  0.000000000000E+00
  0.000000000000E+00
  0.000000000000E+00
  0.000000000000E+00
  0.000000000000E+00
  0.000000000000E+00
  0.000000000000E+00
  0.000000000000E+00
  0.000000000000E+00
  0.000000000000E+00
  0.000000000000E+00
  0.000000000000E+00
  0.000000000000E+00
  0.000000000000E+00
  0.000000000000E+00
  0.000000000000E+00
  0.000000000000E+00
  0.000000000000E+00
  0.000000000000E+00
  0.000000000000E+00
  0.000000000000E+00
  0.000000000000E+00
  0.000000000000E+00
  0.000000000000E+00
  0.000000000000E+00
  0.000000000000E+00
  0.000000000000E+00
  0.000000000000E+00
  0.000000000000E+00
  0.000000000000E+00
  0.000000000000E+00
  0.000000000000E+00
  0.000000000000E+00
  0.000000000000E+00
  0.000000000000E+00
  0.000000000000E+00
  0.000000000000E+00
  0.000000000000E+00
  0.000000000000E+00
  0.000000000000E+00
  0.000000000000E+00
  0.000000000000E+00
  0.000000000000E+00
  0.000000000000E+00
  0.000000000000E+00
  0.000000000000E+00
  0.000000000000E+00
  0.000000000000E+00
  0.000000000000E+00
  0.000000000000E+00
  0.000000000000E+00
  0.000000000000E+00
  0.000000000000E+00
  0.000000000000E+00
  0.000000000000E+00
  0.000000000000E+00
  0.000000000000E+00
  0.000000000000E+00
  0.000000000000E+00
  0.000000000000E+00
  0.000000000000E+00
  0.000000000000E+00
  0.000000000000E+00
  0.000000000000E+00
  0.000000000000E+00
  0.000000000000E+00
  0.000000000000E+00
  0.000000000000E+00
  0.000000000000E+00
  0.000000000000E+00
  0.000000000000E+00
  0.000000000000E+00
  0.000000000000E+00
  0.000000000000E+00
  0.000000000000E+00
  0.000000000000E+00
  0.000000000000E+00
  0.000000000000E+00
  0.000000000000E+00
  0.000000000000E+00
  0.000000000000E+00
  0.000000000000E+00
  0.000000000000E+00
  0.000000000000E+00
  0.000000000000E+00
  0.000000000000E+00
  0.000000000000E+00
  0.000000000000E+00
  0.000000000000E+00
  0.000000000000E+00
  0.000000000000E+00
  0.000000000000E+00
  0.000000000000E+00
  0.000000000000E+00
  0.000000000000E+00
  0.000000000000E+00
  0.000000000000E+00
  0.000000000000E+00
  0.000000000000E+00
  0.000000000000E+00
  0.000000000000E+00
  0.000000000000E+00
  0.000000000000E+00
  0.000000000000E+00
  0.000000000000E+00
  0.000000000000E+00
  0.000000000000E+00
  0.000000000000E+00
  0.000000000000E+00
  0.000000000000E+00
  0.000000000000E+00
  0.000000000000E+00
  0.000000000000E+00
  0.000000000000E+00
  0.000000000000E+00
  0.000000000000E+00
  0.000000000000E+00
  0.000000000000E+00
  0.000000000000E+00
  0.000000000000E+00
  0.000000000000E+00
  0.000000000000E+00
  0.000000000000E+00
  0.000000000000E+00
  0.000000000000E+00
  0.000000000000E+00
  0.000000000000E+00
  0.000000000000E+00
  0.000000000000E+00
  0.000000000000E+00
  0.000000000000E+00
  0.000000000000E+00
  0.000000000000E+00
  0.000000000000E+00
  0.000000000000E+00
  0.000000000000E+00
  0.000000000000E+00
  0.000000000000E+00
  0.000000000000E+00
  0.000000000000E+00
  0.000000000000E+00
  0.000000000000E+00
  0.000000000000E+00
  0.000000000000E+00
  0.000000000000E+00
  0.000000000000E+00
  0.000000000000E+00
  0.000000000000E+00
  0.000000000000E+00
  0.000000000000E+00
  0.000000000000E+00
  0.000000000000E+00
  0.000000000000E+00
  0.000000000000E+00
  0.000000000000E+00
  0.000000000000E+00
  0.000000000000E+00
  0.000000000000E+00
  0.000000000000E+00
  0.000000000000E+00
  0.000000000000E+00
  0.000000000000E+00
  0.000000000000E+00
  0.000000000000E+00
  0.000000000000E+00
  0.000000000000E+00
  0.000000000000E+00
  0.000000000000E+00
  0.000000000000E+00
  0.000000000000E+00
  0.000000000000E+00
  0.000000000000E+00
  0.000000000000E+00
  0.000000000000E+00
  0.000000000000E+00
  0.000000000000E+00
  0.000000000000E+00
  0.000000000000E+00
  0.000000000000E+00
  0.000000000000E+00
  0.000000000000E+00
  0.000000000000E+00
  0.000000000000E+00
  0.000000000000E+00
  0.000000000000E+00
  0.000000000000E+00
  0.000000000000E+00
  0.000000000000E+00
  0.000000000000E+00
  0.000000000000E+00
  0.000000000000E+00
  0.000000000000E+00
  0.000000000000E+00
  0.000000000000E+00
  0.000000000000E+00
  0.000000000000E+00
  0.000000000000E+00
  0.000000000000E+00
  0.000000000000E+00
SCALARS inclination float 1
LOOKUP_TABLE default
  0.100000000000E+01
  0.100000000000E+01
  0.100000000000E+01
  0.100000000000E+01
  0.100000000000E+01
  0.100000000000E+01
  0.100000000000E+01
  0.100000000000E+01
  0.100000000000E+01
  0.100000000000E+01
  0.100000000000E+01
  0.100000000000E+01
  0.100000000000E+01
  0.100000000000E+01
  0.100000000000E+01
  0.100000000000E+01
  0.100000000000E+01
  0.100000000000E+01
  0.100000000000E+01
  0.100000000000E+01
  0.100000000000E+01
  0.100000000000E+01
  0.100000000000E+01
  0.100000000000E+01
  0.100000000000E+01
  0.100000000000E+01
  0.100000000000E+01
  0.100000000000E+01
  0.100000000000E+01
  0.100000000000E+01
  0.100000000000E+01
  0.100000000000E+01
  0.100000000000E+01
  0.100000000000E+01
  0.100000000000E+01
  0.100000000000E+01
  0.100000000000E+01
  0.100000000000E+01
  0.100000000000E+01
  0.100000000000E+01
  0.100000000000E+01
  0.100000000000E+01
  0.100000000000E+01
  0.100000000000E+01
  0.100000000000E+01
  0.100000000000E+01
  0.100000000000E+01
  0.100000000000E+01
  0.100000000000E+01
  0.100000000000E+01
  0.100000000000E+01
  0.100000000000E+01
  0.100000000000E+01
  0.100000000000E+01
  0.100000000000E+01
  0.100000000000E+01
  0.100000000000E+01
  0.100000000000E+01
  0.100000000000E+01
  0.100000000000E+01
  0.100000000000E+01
  0.100000000000E+01
  0.100000000000E+01
  0.100000000000E+01
  0.100000000000E+01
  0.100000000000E+01
  0.100000000000E+01
  0.100000000000E+01
  0.100000000000E+01
  0.100000000000E+01
  0.100000000000E+01
  0.100000000000E+01
  0.100000000000E+01
  0.100000000000E+01
  0.100000000000E+01
  0.100000000000E+01
  0.100000000000E+01
  0.100000000000E+01
  0.100000000000E+01
  0.100000000000E+01
  0.100000000000E+01
  0.100000000000E+01
  0.100000000000E+01
  0.100000000000E+01
  0.100000000000E+01
  0.100000000000E+01
  0.100000000000E+01
  0.100000000000E+01
  0.100000000000E+01
  0.100000000000E+01
  0.100000000000E+01
  0.100000000000E+01
  0.100000000000E+01
  0.100000000000E+01
  0.100000000000E+01
  0.100000000000E+01
  0.100000000000E+01
  0.100000000000E+01
  0.100000000000E+01
  0.100000000000E+01
  0.100000000000E+01
  0.100000000000E+01
  0.100000000000E+01
  0.100000000000E+01
  0.100000000000E+01
  0.100000000000E+01
  0.100000000000E+01
  0.100000000000E+01
  0.100000000000E+01
  0.100000000000E+01
  0.100000000000E+01
  0.100000000000E+01
  0.100000000000E+01
  0.100000000000E+01
  0.100000000000E+01
  0.100000000000E+01
  0.100000000000E+01
  0.100000000000E+01
  0.100000000000E+01
  0.100000000000E+01
  0.100000000000E+01
  0.100000000000E+01
  0.100000000000E+01
  0.100000000000E+01
  0.100000000000E+01
  0.100000000000E+01
  0.100000000000E+01
  0.100000000000E+01
  0.100000000000E+01
  0.100000000000E+01
  0.100000000000E+01
  0.100000000000E+01
  0.100000000000E+01
  0.100000000000E+01
  0.100000000000E+01
  0.100000000000E+01
  0.100000000000E+01
  0.100000000000E+01
  0.100000000000E+01
  0.100000000000E+01
  0.100000000000E+01
  0.100000000000E+01
  0.100000000000E+01
  0.100000000000E+01
  0.100000000000E+01
  0.100000000000E+01
  0.100000000000E+01
  0.100000000000E+01
  0.100000000000E+01
  0.100000000000E+01
  0.100000000000E+01
  0.100000000000E+01
  0.100000000000E+01
  0.100000000000E+01
  0.100000000000E+01
  0.100000000000E+01
  0.100000000000E+01
  0.100000000000E+01
  0.100000000000E+01
  0.100000000000E+01
  0.100000000000E+01
  0.100000000000E+01
  0.100000000000E+01
  0.100000000000E+01
  0.100000000000E+01
  0.100000000000E+01
  0.100000000000E+01
  0.100000000000E+01
  0.100000000000E+01
  0.100000000000E+01
  0.100000000000E+01
  0.100000000000E+01
  0.100000000000E+01
  0.100000000000E+01
  0.100000000000E+01
  0.100000000000E+01
  0.100000000000E+01
  0.100000000000E+01
  0.100000000000E+01
  0.100000000000E+01
  0.100000000000E+01
  0.100000000000E+01
  0.100000000000E+01
  0.100000000000E+01
  0.100000000000E+01
  0.100000000000E+01
  0.100000000000E+01
  0.100000000000E+01
  0.100000000000E+01
  0.100000000000E+01
  0.100000000000E+01
  0.100000000000E+01
  0.100000000000E+01
  0.100000000000E+01
  0.100000000000E+01
  0.100000000000E+01
  0.100000000000E+01
  0.100000000000E+01
  0.100000000000E+01
  0.100000000000E+01
  0.100000000000E+01
  0.100000000000E+01
  0.100000000000E+01
  0.100000000000E+01
  0.100000000000E+01
  0.100000000000E+01
  0.100000000000E+01
  0.100000000000E+01
  0.100000000000E+01
  0.100000000000E+01
  0.100000000000E+01
  0.100000000000E+01
  0.100000000000E+01
  0.100000000000E+01
  0.100000000000E+01
  0.100000000000E+01
  0.100000000000E+01
  0.100000000000E+01
  0.100000000000E+01
  0.100000000000E+01
  0.100000000000E+01
  0.100000000000E+01
  0.100000000000E+01
  0.100000000000E+01
  0.100000000000E+01
  0.100000000000E+01
  0.100000000000E+01
  0.100000000000E+01
  0.100000000000E+01
  0.100000000000E+01
  0.100000000000E+01
  0.100000000000E+01
  0.100000000000E+01
  0.100000000000E+01
  0.100000000000E+01
  0.100000000000E+01
  0.100000000000E+01
  0.100000000000E+01
  0.100000000000E+01
  0.100000000000E+01
  0.100000000000E+01
  0.100000000000E+01
  0.100000000000E+01
  0.100000000000E+01
  0.100000000000E+01
  0.100000000000E+01
  0.100000000000E+01
  0.100000000000E+01
  0.100000000000E+01
  0.100000000000E+01
  0.100000000000E+01
  0.100000000000E+01
  0.100000000000E+01
  0.100000000000E+01
  0.100000000000E+01
  0.100000000000E+01
VECTORS v float
  0.150750867855E+03  0.333175613845E+01  0.157523649947E+02
  0.152548794448E+03  0.281359533147E+01  0.159998621012E+02
  0.155849499038E+03 -0.487125581314E+00  0.168592822221E+02
  0.157446962988E+03  0.509463727487E+00  0.169240691535E+02
  0.160409104443E+03 -0.245269257673E+01  0.158626947409E+02
  0.161536612209E+03 -0.583481853937E+00  0.157904541842E+02
  0.158922547836E+03  0.203058640662E+01  0.324203812567E+01
  0.160731552784E+03 -0.464488549782E+01  0.341736272386E+01
  0.139629225074E+03  0.164574620121E+02 -0.170873094253E+02
  0.146276226141E+03 -0.164954246177E+01 -0.205213649430E+02
  0.825755974738E+02  0.620511117600E+02 -0.118970359279E+02
  0.831358863630E+02  0.608011757437E+02 -0.129463343223E+02
  0.167024082823E+03 -0.230870207160E+02  0.110198065546E+03
  0.144146779722E+03  0.279494464957E+02  0.673538844437E+02
  0.204451733984E+03 -0.323555227050E+02  0.328516623908E+02
  0.194748351557E+03 -0.592267194358E+01  0.278385827236E+02
  0.197043075319E+03 -0.821738861009E+01 -0.424153284133E+01
  0.197661702047E+03 -0.105002047689E+02 -0.430149257286E+01
  0.187437051944E+03 -0.275519922164E+00 -0.182831544979E+02
  0.182865385515E+03 -0.785454178893E+01 -0.185760722324E+02
  0.173774797721E+03  0.123609107478E+01 -0.186064958570E+02
  0.167687481685E+03 -0.256152946302E+01 -0.183595898816E+02
  0.161046859980E+03  0.407912508784E+01 -0.167726895878E+02
  0.153790054000E+03  0.617053281609E+01 -0.157737778051E+02
  0.151086482634E+03  0.663011901237E+01  0.154357759693E+02
  0.150790152112E+03  0.681162016869E+01  0.153847218203E+02
  0.155661371630E+03  0.194037254301E+01  0.165772106604E+02
  0.155877127991E+03  0.191627738672E+01  0.166030781136E+02
  0.159744198501E+03 -0.195081145010E+01  0.157490508510E+02
  0.160416716667E+03 -0.164267630611E+01  0.157845402678E+02
  0.160732699345E+03 -0.195866392831E+01  0.336187716196E+01
  0.161099345444E+03 -0.286003911727E+01  0.338808172226E+01
  0.146528495131E+03  0.117108226186E+02 -0.187029145678E+02
  0.146322518020E+03  0.121066510784E+02 -0.186194329993E+02
  0.860481566592E+02  0.723810389082E+02 -0.792215429631E+01
  0.807624347142E+02  0.808370120229E+02  0.432287940086E-01
  0.183161858798E+03 -0.215624120606E+02  0.118668580073E+03
  0.171927488272E+03 -0.358993472399E+01  0.101738826117E+03
  0.210978082774E+03 -0.426405315546E+02  0.351838692629E+02
  0.204492854067E+03 -0.301777747144E+02  0.325552532612E+02
  0.196784423345E+03 -0.224693199161E+02 -0.453070019307E+01
  0.197036727376E+03 -0.230895925829E+02 -0.454872899983E+01
  0.182855482720E+03 -0.890829956183E+01 -0.186777439318E+02
  0.178793326102E+03 -0.107695039619E+02 -0.184633742694E+02
  0.167720416880E+03  0.303457304419E+00 -0.180541808325E+02
  0.164094080555E+03  0.708440767211E+00 -0.176194425297E+02
  0.153844105186E+03  0.109584752855E+02 -0.152679377758E+02
  0.152374480763E+03  0.118586128089E+02 -0.150147136191E+02
  0.151158704108E+03  0.796029048497E+01  0.153013662400E+02
  0.151101990103E+03  0.800379694628E+01  0.152906487026E+02
  0.155833747124E+03  0.327201211982E+01  0.164521862169E+02
  0.155677514829E+03  0.334464668468E+01  0.164275142850E+02
  0.159582446332E+03 -0.560302902287E+00  0.155978600758E+02
  0.159757068353E+03 -0.581330633643E+00  0.156169164762E+02
  0.161099744971E+03 -0.192401508684E+01  0.336874742444E+01
  0.160278710066E+03 -0.384788102763E+00  0.331997409863E+01
  0.146349663092E+03  0.135442727652E+02 -0.184237611086E+02
  0.144126894366E+03  0.169878101614E+02 -0.176376810370E+02
  0.806650295270E+02  0.804497044791E+02 -0.124812366623E+00
  0.753792186982E+02  0.875499811996E+02  0.705479102828E+01
  0.190626894671E+03 -0.276976947729E+02  0.126552001543E+03
  0.183893558764E+03 -0.186530008883E+02  0.117406268331E+03
  0.214262381476E+03 -0.490218179078E+02  0.365247318261E+02
  0.210954358256E+03 -0.438969948123E+02  0.353548845205E+02
  0.196078098379E+03 -0.290206984221E+02 -0.465148522913E+01
  0.196781064502E+03 -0.303385771374E+02 -0.469324468356E+01
  0.178778604233E+03 -0.123360587896E+02 -0.186145232509E+02
  0.176887733625E+03 -0.121083627573E+02 -0.184081751296E+02
  0.164093818113E+03  0.685611453843E+00 -0.176218761596E+02
  0.162904243492E+03  0.123865681163E+01 -0.174339428497E+02
  0.152373474629E+03  0.117694875659E+02 -0.150241295614E+02
  0.151719143320E+03  0.122714409546E+02 -0.149005836148E+02
  0.151328976998E+03  0.920407152624E+01  0.151866543471E+02
  0.151174204944E+03  0.933338039318E+01  0.151563011322E+02
  0.156087508078E+03  0.442004933746E+01  0.163557420860E+02
  0.155848651428E+03  0.456851881495E+01  0.163139780699E+02
  0.159674332581E+03  0.742820104004E+00  0.154798873416E+02
  0.159594974161E+03  0.772783330035E+00  0.154692372416E+02
  0.160278912226E+03  0.888393455346E-01  0.331019099144E+01
  0.159808051068E+03  0.850432447055E+00  0.328472255595E+01
  0.144118439814E+03  0.165400541009E+02 -0.176986246612E+02
  0.142328724858E+03  0.190215886986E+02 -0.171060929475E+02
  0.750619352267E+02  0.862883985248E+02  0.650742091310E+01
  0.716518124582E+02  0.905084646946E+02  0.109302820532E+02
  0.193884073071E+03 -0.317237959183E+02  0.130773883432E+03
  0.190627797516E+03 -0.276941084015E+02  0.126550443975E+03
  0.215568661283E+03 -0.526349594075E+02  0.372072061751E+02
  0.214229226185E+03 -0.507777604782E+02  0.367637277576E+02
  0.195909488351E+03 -0.324579870183E+02 -0.471903036268E+01
  0.196076515916E+03 -0.327281453069E+02 -0.472806536952E+01
  0.176874411406E+03 -0.135259795150E+02 -0.185449539501E+02
  0.176270650149E+03 -0.132980172505E+02 -0.184639466541E+02
  0.162890943973E+03  0.817497319612E-01 -0.175572697643E+02
  0.162242354696E+03  0.484901688238E+00 -0.174438447601E+02
  0.151705041444E+03  0.110222748295E+02 -0.150325565136E+02
  0.151093886722E+03  0.115328818427E+02 -0.149126889576E+02
  0.152032177736E+03  0.105566658017E+02  0.151172672183E+02
  0.151350821101E+03  0.111390589901E+02  0.149822255339E+02
  0.156974573096E+03  0.551527540275E+01  0.163333026885E+02
  0.156106741025E+03  0.609309789661E+01  0.161773942250E+02
  0.160415083430E+03  0.178473459250E+01  0.154505487263E+02
  0.159687203889E+03  0.211245549018E+01  0.153477380368E+02
  0.159808537949E+03  0.199111726800E+01  0.326116091642E+01
  0.160228030340E+03  0.134301324517E+01  0.328322342058E+01
  0.142332815805E+03  0.192382458005E+02 -0.170766038653E+02
  0.142124952817E+03  0.195169696781E+02 -0.170091104324E+02
  0.715476603076E+02  0.900943106833E+02  0.107506013393E+02
  0.706295788149E+02  0.912037832805E+02  0.119258399704E+02
  0.194674947381E+03 -0.328415852853E+02  0.131879984169E+03
  0.193852814393E+03 -0.318480801305E+02  0.130827810130E+03
  0.215619629038E+03 -0.536148879366E+02  0.373502440650E+02
  0.215551873738E+03 -0.535240335171E+02  0.373282171218E+02
  0.195330495034E+03 -0.333026115616E+02 -0.472452164709E+01
  0.195908746516E+03 -0.341959939013E+02 -0.475493001256E+01
  0.176258921091E+03 -0.145461048778E+02 -0.185843685149E+02
  0.175245825087E+03 -0.140899685851E+02 -0.184412600261E+02
  0.162224496300E+03 -0.106857710011E+01 -0.176094463572E+02
  0.160841750072E+03 -0.147912077819E+00 -0.173610568459E+02
  0.151072310021E+03  0.962158285906E+01 -0.151146152885E+02
  0.149611918778E+03  0.108698601968E+02 -0.148251856322E+02
  0.152992138749E+03  0.135479122730E+02  0.149002110137E+02
  0.152074600029E+03  0.143144961343E+02  0.147202567862E+02
  0.158764504257E+03  0.762455236151E+01  0.162988678731E+02
  0.157011348129E+03  0.871428148124E+01  0.159922865708E+02
  0.162574961628E+03  0.315064003134E+01  0.155278769517E+02
  0.160435510930E+03  0.395842490651E+01  0.152408201707E+02
  0.160229234727E+03  0.416469791877E+01  0.322493949419E+01
  0.162285303997E+03  0.839106008051E+00  0.333615015346E+01
  0.142152426916E+03  0.209720126035E+02 -0.168110669006E+02
  0.143937471776E+03  0.184969493842E+02 -0.174020358017E+02
  0.707503665955E+02  0.916840775412E+02  0.121342204703E+02
  0.723052550757E+02  0.897598848955E+02  0.101175886629E+02
  0.193244520902E+03 -0.311793809308E+02  0.130087475260E+03
  0.194654242431E+03 -0.329239177916E+02  0.131915703906E+03
  0.214098926943E+03 -0.523685864580E+02  0.369663249797E+02
  0.215603763453E+03 -0.544551295843E+02  0.374646091070E+02
  0.193482695834E+03 -0.323340066640E+02 -0.466632577899E+01
  0.195329633371E+03 -0.353213381240E+02 -0.476622006732E+01
  0.175235141783E+03 -0.152267780447E+02 -0.185509452022E+02
  0.172624520289E+03 -0.142410953689E+02 -0.182006616085E+02
  0.160815492644E+03 -0.243200864427E+01 -0.176045428573E+02
  0.157119613040E+03 -0.134718256734E+00 -0.169582454622E+02
  0.149572883566E+03  0.741205582676E+01 -0.151904979640E+02
  0.145470379964E+03  0.108396091297E+02 -0.143858742523E+02
  0.143027281946E+03  0.312324944235E+02  0.119457606415E+02
  0.153104511049E+03  0.235020343857E+02  0.138485709528E+02
  0.161667617052E+03  0.149388787422E+02  0.158231502306E+02
  0.158863574008E+03  0.162424930792E+02  0.153801910250E+02
  0.167150286076E+03  0.795574359980E+01  0.155055003802E+02