# vtk DataFile Version 3.0
TriPan results file. Generated by TriPan, USU AeroLab (c) 2021.
ASCII
DATASET POLYDATA
POINTS                7064 float
  0.000000000000E+00  0.000000000000E+00  0.000000000000E+00
  0.389988087118E-01  0.000000000000E+00 -0.109218262136E+00
  0.389988087118E-01  0.000000000000E+00  0.109218262136E+00
  0.147665724158E+00  0.000000000000E+00 -0.234920635819E+00
  0.147665724158E+00  0.000000000000E+00  0.234920635819E+00
  0.161138445139E+00  0.161138445139E+00  0.000000000000E+00
  0.200137257576E+00  0.161138445139E+00 -0.109218269587E+00
  0.200137257576E+00  0.161138445139E+00  0.109218269587E+00
  0.290265858173E+00  0.000000000000E+00 -0.347333192825E+00
  0.290265858173E+00  0.000000000000E+00  0.347333192825E+00
  0.308804154396E+00  0.161138445139E+00 -0.234920650721E+00
  0.308804154396E+00  0.161138445139E+00  0.234920650721E+00
  0.335006117821E+00  0.335006117821E+00  0.000000000000E+00
  0.374004930258E+00  0.335006117821E+00 -0.109218277037E+00
  0.374004930258E+00  0.335006117821E+00  0.109218277037E+00
  0.451404303312E+00  0.161138445139E+00 -0.347333222628E+00
  0.451404303312E+00  0.161138445139E+00  0.347333222628E+00
  0.473465979099E+00  0.000000000000E+00 -0.436293870211E+00
  0.473465979099E+00  0.000000000000E+00  0.436293870211E+00
  0.482671856880E+00  0.335006117821E+00 -0.234920650721E+00
  0.482671856880E+00  0.335006117821E+00  0.234920650721E+00
  0.522506594658E+00  0.522506594658E+00  0.000000000000E+00
  0.561505436897E+00  0.522506594658E+00 -0.109218284488E+00
  0.561505436897E+00  0.522506594658E+00  0.109218284488E+00
  0.625271975994E+00  0.335006117821E+00 -0.347333222628E+00
  0.625271975994E+00  0.335006117821E+00  0.347333222628E+00
  0.634604454041E+00  0.161138445139E+00 -0.436293900013E+00
  0.634604454041E+00  0.161138445139E+00  0.436293900013E+00
  0.670172333717E+00  0.522506594658E+00 -0.234920665622E+00
  0.670172333717E+00  0.522506594658E+00  0.234920665622E+00
  0.689334988594E+00  0.000000000000E+00 -0.522850036621E+00
  0.689334988594E+00  0.000000000000E+00  0.522850036621E+00
  0.724590361118E+00  0.724590361118E+00  0.000000000000E+00
  0.763589203358E+00  0.724590361118E+00 -0.109218291938E+00
  0.763589203358E+00  0.724590361118E+00  0.109218291938E+00
  0.808472156525E+00  0.335006117821E+00 -0.436293929815E+00
  0.808472156525E+00  0.335006117821E+00  0.436293929815E+00
  0.812772512436E+00  0.522506594658E+00 -0.347333252430E+00
  0.812772512436E+00  0.522506594658E+00  0.347333252430E+00
  0.850473463535E+00  0.161138445139E+00 -0.522850036621E+00
  0.850473463535E+00  0.161138445139E+00  0.522850036621E+00
  0.872256100178E+00  0.724590361118E+00 -0.234920680523E+00
  0.872256100178E+00  0.724590361118E+00  0.234920680523E+00
  0.942254066467E+00  0.942254066467E+00  0.000000000000E+00
  0.944064557552E+00  0.000000000000E+00 -0.604293465614E+00
  0.944064557552E+00  0.000000000000E+00  0.604293465614E+00
  0.981252849102E+00  0.942254066467E+00 -0.109218299389E+00
  0.981252849102E+00  0.942254066467E+00  0.109218299389E+00
  0.995972692966E+00  0.522506594658E+00 -0.436293959618E+00
  0.995972692966E+00  0.522506594658E+00  0.436293959618E+00
  0.101485633850E+01  0.724590361118E+00 -0.347333282232E+00
  0.101485633850E+01  0.724590361118E+00  0.347333282232E+00
  0.102434122562E+01  0.335006117821E+00 -0.522850096226E+00
  0.102434122562E+01  0.335006117821E+00  0.522850096226E+00
  0.108991980553E+01  0.942254066467E+00 -0.234920710325E+00
  0.108991980553E+01  0.942254066467E+00  0.234920710325E+00
  0.110520303249E+01  0.161138445139E+00 -0.604293525219E+00
  0.110520303249E+01  0.161138445139E+00  0.604293525219E+00
  0.117653930187E+01  0.117653930187E+01  0.000000000000E+00
  0.119805645943E+01  0.724590361118E+00 -0.436293989420E+00
  0.119805645943E+01  0.724590361118E+00  0.436293989420E+00
  0.121184170246E+01  0.522506594658E+00 -0.522850096226E+00
  0.121184170246E+01  0.522506594658E+00  0.522850096226E+00
  0.121553814411E+01  0.117653930187E+01 -0.109218306839E+00
  0.121553814411E+01  0.117653930187E+01  0.109218306839E+00
  0.123251998425E+01  0.942254066467E+00 -0.347333312035E+00
  0.123251998425E+01  0.942254066467E+00  0.347333312035E+00
  0.123833239079E+01  0.000000000000E+00 -0.683996438980E+00
  0.123833239079E+01  0.000000000000E+00  0.683996438980E+00
  0.127907073498E+01  0.335006117821E+00 -0.604293525219E+00
  0.127907073498E+01  0.335006117821E+00  0.604293525219E+00
  0.132420504093E+01  0.117653930187E+01 -0.234920725226E+00
  0.132420504093E+01  0.117653930187E+01  0.234920725226E+00
  0.139947092533E+01  0.161138445139E+00 -0.683996498585E+00
  0.139947092533E+01  0.161138445139E+00  0.683996498585E+00
  0.141392552853E+01  0.724590361118E+00 -0.522850155830E+00
  0.141392552853E+01  0.724590361118E+00  0.522850155830E+00
  0.141572022438E+01  0.942254066467E+00 -0.436294019222E+00
  0.141572022438E+01  0.942254066467E+00  0.436294019222E+00
  0.142853081226E+01  0.142853081226E+01  0.000000000000E+00
  0.146657133102E+01  0.522506594658E+00 -0.604293584824E+00
  0.146657133102E+01  0.522506594658E+00  0.604293584824E+00
  0.146680521965E+01  0.117653930187E+01 -0.347333341837E+00
  0.146680521965E+01  0.117653930187E+01  0.347333341837E+00
  0.146752965450E+01  0.142853081226E+01 -0.109218314290E+00
  0.146752965450E+01  0.142853081226E+01  0.109218314290E+00
  0.157333862782E+01  0.335006117821E+00 -0.683996558189E+00
  0.157333862782E+01  0.335006117821E+00  0.683996558189E+00
  0.157619655132E+01  0.142853081226E+01 -0.234920740128E+00
  0.157619655132E+01  0.142853081226E+01  0.234920740128E+00
  0.157641971111E+01  0.000000000000E+00 -0.760520398617E+00
  0.157641971111E+01  0.000000000000E+00  0.760520398617E+00
  0.163158929348E+01  0.942254066467E+00 -0.522850155830E+00
  0.163158929348E+01  0.942254066467E+00  0.522850155830E+00
  0.165000545979E+01  0.117653930187E+01 -0.436294049025E+00
  0.165000545979E+01  0.117653930187E+01  0.436294049025E+00
  0.166865515709E+01  0.724590361118E+00 -0.604293584824E+00
  0.166865515709E+01  0.724590361118E+00  0.604293584824E+00
  0.169935321808E+01  0.169935321808E+01  0.000000000000E+00
  0.171879673004E+01  0.142853081226E+01 -0.347333371639E+00
  0.171879673004E+01  0.142853081226E+01  0.347333371639E+00
  0.173755824566E+01  0.161138445139E+00 -0.760520458221E+00
  0.173755824566E+01  0.161138445139E+00  0.760520458221E+00
  0.173835194111E+01  0.169935321808E+01 -0.109218329191E+00
  0.173835194111E+01  0.169935321808E+01  0.109218329191E+00
  0.176083922386E+01  0.522506594658E+00 -0.683996558189E+00
  0.176083922386E+01  0.522506594658E+00  0.683996558189E+00
  0.184701895714E+01  0.169935321808E+01 -0.234920755029E+00
  0.184701895714E+01  0.169935321808E+01  0.234920755029E+00
  0.186587452888E+01  0.117653930187E+01 -0.522850215435E+00
  0.186587452888E+01  0.117653930187E+01  0.522850215435E+00
  0.188631892204E+01  0.942254066467E+00 -0.604293644428E+00
  0.188631892204E+01  0.942254066467E+00  0.604293644428E+00
  0.190199697018E+01  0.142853081226E+01 -0.436294078827E+00
  0.190199697018E+01  0.142853081226E+01  0.436294078827E+00
  0.191142594814E+01  0.335006117821E+00 -0.760520458221E+00
  0.191142594814E+01  0.335006117821E+00  0.760520458221E+00
  0.196138751507E+01  0.000000000000E+00 -0.833668828011E+00
  0.196138751507E+01  0.000000000000E+00  0.833668828011E+00
  0.196292304993E+01  0.724590361118E+00 -0.683996617794E+00
  0.196292304993E+01  0.724590361118E+00  0.683996617794E+00
  0.198961913586E+01  0.169935321808E+01 -0.347333401442E+00
  0.198961913586E+01  0.169935321808E+01  0.347333401442E+00
  0.199016737938E+01  0.199016737938E+01  0.000000000000E+00
  0.202916622162E+01  0.199016737938E+01 -0.109218336642E+00
  0.202916622162E+01  0.199016737938E+01  0.109218336642E+00
  0.209892654419E+01  0.522506594658E+00 -0.760520517826E+00
  0.209892654419E+01  0.522506594658E+00  0.760520517826E+00
  0.211786603928E+01  0.142853081226E+01 -0.522850275040E+00
  0.211786603928E+01  0.142853081226E+01  0.522850275040E+00
  0.212060427666E+01  0.117653930187E+01 -0.604293704033E+00
  0.212060427666E+01  0.117653930187E+01  0.604293704033E+00
  0.212252616882E+01  0.161138445139E+00 -0.833668828011E+00
  0.212252616882E+01  0.161138445139E+00  0.833668828011E+00
  0.213783311844E+01  0.199016737938E+01 -0.234920784831E+00
  0.213783311844E+01  0.199016737938E+01  0.234920784831E+00
  0.217281937599E+01  0.169935321808E+01 -0.436294138432E+00
  0.217281937599E+01  0.169935321808E+01  0.436294138432E+00
  0.218058681488E+01  0.942254066467E+00 -0.683996677399E+00
  0.218058681488E+01  0.942254066467E+00  0.683996677399E+00
  0.228043341637E+01  0.199016737938E+01 -0.347333431244E+00
  0.228043341637E+01  0.199016737938E+01  0.347333431244E+00
  0.229639387131E+01  0.335006117821E+00 -0.833668887615E+00
  0.229639387131E+01  0.335006117821E+00  0.833668887615E+00
  0.230101037025E+01  0.724590361118E+00 -0.760520577431E+00
  0.230101037025E+01  0.724590361118E+00  0.760520577431E+00
  0.230216526985E+01  0.230216526985E+01  0.000000000000E+00
  0.234116411209E+01  0.230216526985E+01 -0.109218344092E+00
  0.234116411209E+01  0.230216526985E+01  0.109218344092E+00
  0.237259578705E+01  0.142853081226E+01 -0.604293763638E+00
  0.237259578705E+01  0.142853081226E+01  0.604293763638E+00
  0.238868856430E+01  0.169935321808E+01 -0.522850275040E+00
  0.238868856430E+01  0.169935321808E+01  0.522850275040E+00
  0.239635515213E+01  0.000000000000E+00 -0.902061045170E+00
  0.239635515213E+01  0.000000000000E+00  0.902061045170E+00
  0.241487216949E+01  0.117653930187E+01 -0.683996737003E+00
  0.241487216949E+01  0.117653930187E+01  0.683996737003E+00
  0.244983124733E+01  0.230216526985E+01 -0.234920799732E+00
  0.244983124733E+01  0.230216526985E+01  0.234920799732E+00
  0.246363353729E+01  0.199016737938E+01 -0.436294168234E+00
  0.246363353729E+01  0.199016737938E+01  0.436294168234E+00
[...]
CELL_DATA               13888
SCALARS sigma float 1
LOOKUP_TABLE default
  0.402366172765E-01
  0.402381670574E-01
  0.401652156028E-01
  0.401652216911E-01
  0.400813441157E-01
  0.400801855760E-01
  0.399830963668E-01
  0.399830964189E-01
  0.398714444035E-01
  0.398714759257E-01
  0.397418487323E-01
  0.397426022180E-01
  0.396021999647E-01
  0.396015160075E-01
  0.394181814926E-01
  0.394182237907E-01
  0.391274576499E-01
  0.391279722247E-01
  0.387320898683E-01
  0.387316639873E-01
  0.385617446381E-01
  0.385618909680E-01
  0.387998158062E-01
  0.387996842542E-01
  0.390778242435E-01
  0.390778242275E-01
  0.391171930014E-01
  0.391172377522E-01
  0.405327022131E-01
  0.405327602670E-01
  0.420556676302E-01
  0.420556151142E-01
  0.441695918193E-01
  0.441695918181E-01
  0.502631450937E-01
  0.502631835310E-01
  0.556835964703E-01
  0.556836654632E-01
  0.654233385802E-01
  0.654232502620E-01
  0.749347525165E-01
  0.749347421080E-01
  0.890422359383E-01
  0.890422693922E-01
  0.105695581635E+00
  0.105695605840E+00
  0.123707959814E+00
  0.123707806627E+00
  0.153002950656E+00
  0.153002950669E+00
  0.178974452597E+00
  0.178974452584E+00
  0.203663626875E+00
  0.203663666467E+00
  0.227183701538E+00
  0.227183847604E+00
  0.249273483090E+00
  0.249273351156E+00
  0.270331524120E+00
  0.270331575199E+00
  0.294439867135E+00
  0.294439938375E+00
  0.322611712527E+00
  0.322611562011E+00
  0.352385606591E+00
  0.352385606585E+00
  0.386635796792E+00
  0.386635765280E+00
  0.421311495512E+00
  0.421311612729E+00
  0.472124566291E+00
  0.472124513533E+00
  0.516419867122E+00
  0.516419844927E+00
  0.618271068830E+00
  0.618271069575E+00
  0.673034546614E+00
  0.673034533161E+00
  0.713998216012E+00
  0.713998218037E+00
  0.642474347834E+00
  0.642474347866E+00
  0.520654250606E+00
  0.520654229842E+00
  0.423183603250E+00
  0.423183598130E+00
  0.275576426321E+00
  0.275576468211E+00
  0.217975524220E+00
  0.217975612530E+00
  0.155094708815E+00
  0.155094532385E+00
  0.113800285807E+00
  0.113800330845E+00
  0.741275365523E-01
  0.741275365608E-01
  0.404550398939E-01
  0.404552373001E-01
  0.923980400628E-02
  0.923971390283E-02
 -0.170049651059E-01
 -0.170050277633E-01
 -0.395927126685E-01
 -0.395925552105E-01
 -0.629624380385E-01
 -0.629626068162E-01
 -0.874934295973E-01
 -0.874934736368E-01
 -0.112865245839E+00
 -0.112865245824E+00
 -0.139148782467E+00
 -0.139148782481E+00
 -0.168309735537E+00
 -0.168309589218E+00
 -0.185988886468E+00
 -0.185988908689E+00
 -0.202167106790E+00
 -0.202167136341E+00
 -0.215747669989E+00
 -0.215747661099E+00
 -0.224839871251E+00
 -0.224839776030E+00
 -0.234096924418E+00
 -0.234096999293E+00
 -0.239225639893E+00
 -0.239225681643E+00
 -0.244971437386E+00
 -0.244971437384E+00
 -0.246959867860E+00
 -0.246959811166E+00
 -0.248390715679E+00
 -0.248390777902E+00
 -0.249719560418E+00
 -0.249719607986E+00
 -0.249756549736E+00
 -0.249756549719E+00
 -0.250017517965E+00
 -0.250017380818E+00
 -0.250240582117E+00
 -0.250240733181E+00
 -0.250081332189E+00
 -0.250080896764E+00
 -0.249709457514E+00
 -0.249709978780E+00
 -0.249437109237E+00
 -0.249437151717E+00
 -0.249265076954E+00
 -0.249264395507E+00
 -0.249132603519E+00
 -0.249133348802E+00
 -0.249011661203E+00
 -0.249011692178E+00
 -0.248906871208E+00
 -0.248906871259E+00
 -0.248815716419E+00
 -0.248814590577E+00
 -0.248735835571E+00
 -0.248735841460E+00
 -0.248667342077E+00
 -0.248668835111E+00
  0.402381592394E-01
  0.402366162227E-01
  0.401652076332E-01
  0.401652198122E-01
  0.400801845389E-01
  0.400813434085E-01
  0.399840716398E-01
  0.399830951361E-01
  0.398705739424E-01
  0.398714382868E-01
  0.397426015643E-01
  0.397418476962E-01
  0.396021799533E-01
  0.396022040157E-01
  0.394175939660E-01
  0.394181752180E-01
  0.391279715912E-01
  0.391274566324E-01
  0.387320605164E-01
  0.387320937342E-01
  0.385617436503E-01
  0.385617436523E-01
  0.387996832488E-01
  0.387998149546E-01
  0.390777720415E-01
  0.390778208237E-01
  0.391172350764E-01
  0.391171902861E-01
  0.405327594205E-01
  0.405327012720E-01
  0.420556141531E-01
  0.420556667615E-01
  0.441697137178E-01
  0.441695923872E-01
  0.502630730975E-01
  0.502631441408E-01
  0.556836672214E-01
  0.556835980819E-01
  0.654232720259E-01
  0.654233402336E-01
  0.749347416400E-01
  0.749346697706E-01
  0.890422660877E-01
  0.890422660877E-01
  0.105695602493E+00
  0.105695602493E+00
  0.123707806630E+00
  0.123707959665E+00
  0.153002949859E+00
  0.153002949859E+00
  0.178974447693E+00
  0.178974447693E+00
  0.203663658073E+00
  0.203663618344E+00
  0.227183850520E+00
  0.227183674105E+00
  0.249273360477E+00
  0.249273546578E+00
  0.270331570864E+00
  0.270331471854E+00
  0.294439961289E+00
  0.294439961291E+00
  0.322611564629E+00
  0.322611675242E+00
  0.352385586102E+00
  0.352385470313E+00
  0.386635763140E+00
  0.386635881959E+00
  0.421311613212E+00
  0.421311531407E+00
  0.472124517236E+00
  0.472124528074E+00
  0.516419828435E+00
  0.516419853131E+00
  0.618271033637E+00
  0.618271041500E+00
  0.673034487041E+00
  0.673034502457E+00
  0.713998223172E+00
  0.713998218517E+00
  0.642474352899E+00
  0.642474352454E+00
  0.520654181786E+00
  0.520654214928E+00
  0.423183618373E+00
  0.423183578652E+00
  0.275576462525E+00
  0.275576417521E+00
  0.217975543606E+00
  0.217975525930E+00
  0.155094588206E+00
  0.155094708993E+00
  0.113800452194E+00
  0.113800285177E+00
  0.741273767288E-01
  0.741275322436E-01
  0.404551834599E-01
  0.404550402221E-01
  0.923980472756E-02
  0.923980472535E-02
 -0.170050850980E-01
 -0.170049648332E-01
 -0.395924939568E-01
 -0.395927141489E-01
 -0.629626412388E-01
 -0.629624388466E-01
 -0.874934699489E-01
 -0.874934259913E-01
 -0.112865242755E+00
 -0.112865242755E+00
 -0.139148781730E+00
 -0.139148781730E+00
 -0.168309589016E+00
 -0.168309735540E+00
 -0.185988880579E+00
 -0.185988880579E+00
 -0.202167099287E+00
 -0.202167099287E+00
 -0.215747730556E+00
 -0.215747668641E+00
 -0.224839781713E+00
 -0.224839854611E+00
 -0.234097006068E+00
 -0.234096931747E+00
 -0.239225677108E+00
 -0.239225753521E+00
 -0.244971440534E+00
 -0.244971310148E+00
 -0.246959806065E+00
 -0.246959862311E+00
 -0.248390772135E+00
 -0.248390710385E+00
 -0.249719590652E+00
 -0.249719543456E+00
 -0.249756527863E+00
 -0.249756578805E+00
 -0.250017375331E+00
 -0.250017511618E+00
 -0.250240726783E+00
 -0.250240726786E+00
 -0.250080921725E+00
 -0.250080955480E+00
 -0.249709972286E+00
 -0.249709453471E+00
 -0.249437112012E+00
 -0.249437692939E+00
 -0.249264421005E+00
 -0.249264444877E+00
 -0.249133342307E+00
 -0.249132599445E+00
 -0.249011653977E+00
 -0.249012500523E+00
 -0.248906863598E+00
 -0.248905912410E+00
 -0.248814586187E+00
 -0.248815709549E+00
 -0.248735867529E+00
 -0.248735879284E+00
 -0.248668828599E+00
 -0.248667344845E+00
  0.402381550189E-01
  0.402381620117E-01
  0.401651993955E-01
  0.401652054873E-01
  0.400801718831E-01
  0.400801823974E-01
  0.399840927160E-01
  0.399840745179E-01
  0.398705720203E-01
  0.398705720203E-01
  0.397425768394E-01
  0.397426043616E-01
  0.396021535909E-01
  0.396021777042E-01
  0.394175918973E-01
  0.394175918973E-01
  0.391279743864E-01
  0.391279743889E-01
  0.387320920283E-01
  0.387320587827E-01
  0.385616821070E-01
  0.385617416196E-01
  0.387998689969E-01
  0.387996834640E-01
  0.390777739645E-01
  0.390777739822E-01
  0.391171922435E-01
  0.391172370690E-01
  0.405328452222E-01
  0.405327620401E-01
  0.420555363956E-01
  0.420556144276E-01
  0.441695911573E-01
  0.441697126578E-01
  0.502631814877E-01
  0.502630717556E-01
  0.556836675030E-01
  0.556836675135E-01
  0.654232705225E-01
  0.654232705185E-01
  0.749346718626E-01
  0.749347435977E-01
  0.890422696748E-01
  0.890422696755E-01
  0.105695605494E+00
  0.105695605493E+00
  0.123707959689E+00
  0.123707806793E+00
  0.153002950543E+00
  0.153002950543E+00
  0.178974451565E+00
  0.178974429813E+00
  0.203663626041E+00
  0.203663665909E+00
  0.227183669459E+00
  0.227183817164E+00
  0.249273543498E+00
  0.249273449797E+00
  0.270331466130E+00
  0.270331565988E+00
  0.294439938537E+00
  0.294439832320E+00
  0.322611681466E+00
  0.322611638890E+00
  0.352385460906E+00
  0.352385578500E+00
  0.386635870474E+00
  0.386635749377E+00
  0.421311524273E+00
  0.421311568638E+00
  0.472124513365E+00
  0.472124502174E+00
  0.516419853913E+00
  0.516419853915E+00
  0.618271050945E+00
  0.618271037291E+00
  0.673034510213E+00
  0.673034498510E+00
  0.713998169937E+00
  0.713998213626E+00
  0.642474301214E+00
  0.642474309186E+00
  0.520654223801E+00
  0.520654187786E+00
  0.423183568594E+00
  0.423183624838E+00
  0.275576462947E+00
  0.275576462942E+00
  0.217975518976E+00
  0.217975536815E+00
  0.155094649972E+00
  0.155094585580E+00
  0.113800281124E+00
  0.113800448813E+00
  0.741275306467E-01
  0.741273747499E-01
  0.404551297406E-01
  0.404551842402E-01
  0.923967250204E-02
  0.923980401352E-02
 -0.170049645265E-01
 -0.170050847379E-01
 -0.395926034593E-01
 -0.395924934676E-01
 -0.629624716049E-01
 -0.629626399514E-01
 -0.874934293589E-01
 -0.874934732554E-01
 -0.112865268221E+00
 -0.112865245197E+00
 -0.139148782352E+00
 -0.139148782352E+00
 -0.168309735761E+00
 -0.168309589048E+00
 -0.185988885859E+00
 -0.185988885859E+00
 -0.202167107431E+00
 -0.202167107432E+00
 -0.215747674285E+00
 -0.215747736579E+00
 -0.224839849431E+00
 -0.224839849427E+00
 -0.234096932976E+00
 -0.234096932987E+00
 -0.239225747134E+00
 -0.239225630175E+00
 -0.244971304268E+00
 -0.244971433636E+00
 -0.246959863923E+00
 -0.246959946604E+00
 -0.248390726438E+00
 -0.248390638858E+00
 -0.249719556176E+00
 -0.249719603028E+00
 -0.249756591209E+00
 -0.249756591227E+00
 -0.250017513005E+00
 -0.250017322336E+00
 -0.250240713608E+00
 -0.250240774248E+00
 -0.250080944287E+00
 -0.250080910694E+00
 -0.249709471326E+00
 -0.249709471328E+00
 -0.249437679848E+00
 -0.249437679848E+00
 -0.249264430721E+00
 -0.249264454549E+00
 -0.249132616981E+00
 -0.249132644007E+00
 -0.249012488519E+00
 -0.249012488519E+00
 -0.248905930327E+00
 -0.248905912647E+00
 -0.248815696254E+00
 -0.248815706423E+00
 -0.248735865994E+00
 -0.248735871862E+00
 -0.248667361978E+00
 -0.248667368691E+00
  0.402366037301E-01
  0.402381545870E-01
  0.401651928725E-01
  0.401651989651E-01
  0.400813141695E-01
  0.400801756456E-01
  0.399830787026E-01
  0.399840922329E-01
  0.398714406414E-01
  0.398705756595E-01
  0.397418217607E-01
  0.397425762746E-01
  0.396021774352E-01
  0.396021533447E-01
  0.394181779706E-01
  0.394175960078E-01
  0.391274209168E-01
  0.391279740005E-01
  0.387320580750E-01
  0.387320913418E-01
  0.385621580022E-01
  0.385616858653E-01
  0.387996312971E-01
  0.387998707219E-01
  0.390777734588E-01
  0.390777734395E-01
  0.391172372145E-01
  0.391171923256E-01
  0.405327614475E-01
  0.405328447410E-01
  0.420555345411E-01
  0.420555345425E-01
  0.441695906587E-01
  0.441695906714E-01
  0.502631833377E-01
  0.502631833365E-01
  0.556836670419E-01
  0.556836670324E-01
  0.654232700886E-01
  0.654232700942E-01
  0.749347415425E-01
  0.749347519077E-01
  0.890422676802E-01
  0.890422011085E-01
  0.105695602742E+00
  0.105695626842E+00
  0.123707806988E+00
  0.123707959756E+00
  0.153002949870E+00
  0.153002949870E+00
  0.178974425720E+00
  0.178974425721E+00
  0.203663659083E+00
  0.203663659083E+00
  0.227183816846E+00
  0.227183638637E+00
  0.249273456333E+00
  0.249273550635E+00
  0.270331575128E+00
  0.270331522718E+00
  0.294439838082E+00
  0.294439838084E+00
  0.322611641280E+00
  0.322611641275E+00
  0.352385605420E+00
  0.352385605425E+00
  0.386635755711E+00
  0.386635878903E+00
  0.421311558091E+00
  0.421311432496E+00
  0.472124522971E+00
  0.472124534482E+00
  0.516419878264E+00
  0.516419928848E+00
  0.618271001543E+00
  0.618270985206E+00
  0.673034544646E+00
  0.673034543174E+00
  0.713998218042E+00
  0.713998214105E+00
  0.642474306278E+00
  0.642474305188E+00
  0.520654266362E+00
  0.520654259492E+00
  0.423183486047E+00
  0.423183544125E+00
  0.275576563015E+00
  0.275576475940E+00
  0.217975546557E+00
  0.217975528577E+00
  0.155094466579E+00
  0.155094646089E+00
  0.113800451294E+00
  0.113800282989E+00
  0.741275363155E-01
  0.741275363096E-01
  0.404551300334E-01
  0.404551300403E-01
  0.923967268506E-02
  0.923967268285E-02
 -0.170050276773E-01
 -0.170049651014E-01
 -0.395924945990E-01
 -0.395926044973E-01
 -0.629626734134E-01
 -0.629624715167E-01
 -0.874934264263E-01
 -0.874934264263E-01
 -0.112865265640E+00
 -0.112865265641E+00
 -0.139148781740E+00
 -0.139148781740E+00
 -0.168309589139E+00
 -0.168309736026E+00
 -0.185988858614E+00
 -0.185988881019E+00
 -0.202167162807E+00
 -0.202167102901E+00
 -0.215747659301E+00
 -0.215747668368E+00
 -0.224839847955E+00
 -0.224839847960E+00
 -0.234096931009E+00
 -0.234096930999E+00
 -0.239225638974E+00
 -0.239225638972E+00
 -0.244971430942E+00
 -0.244971430956E+00
 -0.246959935722E+00
 -0.246959935724E+00
 -0.248390635909E+00
 -0.248390722913E+00
 -0.249719603552E+00
 -0.249719556985E+00
 -0.249756587871E+00
 -0.249756587851E+00
 -0.250017333452E+00
 -0.250017577940E+00
 -0.250240798637E+00
 -0.250240320338E+00
 -0.250080906262E+00
 -0.250080939701E+00
 -0.249709468865E+00
 -0.249710020709E+00
 -0.249437705859E+00
 -0.249437129207E+00
 -0.249264452999E+00
 -0.249264429280E+00
 -0.249132640466E+00
 -0.249133379018E+00
 -0.249012511247E+00
 -0.249011669006E+00
 -0.248905909640E+00
 -0.248906891888E+00
 -0.248815729780E+00
 -0.248814631000E+00
 -0.248735869197E+00
 -0.248735875055E+00
 -0.248667366022E+00
 -0.248668852408E+00
  0.402381382442E-01
  0.402366012382E-01
  0.401651885026E-01
  0.401651945960E-01
  0.400813053551E-01
  0.400813158756E-01
  0.399830579053E-01
  0.399830761668E-01
  0.398714424341E-01
  0.398714423892E-01
  0.397418192683E-01
  0.397418193056E-01
  0.396021549710E-01
  0.396021790378E-01
  0.394181793853E-01
  0.394181794186E-01
  0.391274182089E-01
  0.391274181793E-01
  0.387320933879E-01
  0.387320600995E-01
  0.385621001420E-01
  0.385621597658E-01
  0.387996283062E-01
  0.387996282867E-01
  0.390777731371E-01
  0.390777731387E-01
  0.391171913818E-01
  0.391172363303E-01
  0.405327599269E-01
  0.405327599269E-01
  0.420555342756E-01
  0.420555342618E-01
  0.441695903802E-01
  0.441695903789E-01
  0.502631830608E-01
  0.502631830620E-01
  0.556836667659E-01
  0.556836667753E-01
  0.654232698587E-01
  0.654232698505E-01
  0.749347514818E-01
  0.749346799768E-01
  0.890422010838E-01
  0.890422675443E-01
  0.105695627232E+00
  0.105695751203E+00
  0.123707959694E+00
  0.123707820814E+00
  0.153002950466E+00
  0.153002950466E+00
  0.178974429232E+00
  0.178974451055E+00
  0.203663664914E+00
  0.203663624798E+00
  0.227183639726E+00
  0.227183818725E+00
  0.249273546293E+00
  0.249273356587E+00
  0.270331531415E+00
  0.270331531417E+00
  0.294439849379E+00
  0.294439957538E+00
  0.322611640297E+00
  0.322611640303E+00
  0.352385604243E+00
  0.352385604236E+00
  0.386635904434E+00
  0.386635904436E+00
  0.421311430891E+00
  0.421311558848E+00
  0.472124497631E+00
  0.472124437992E+00
  0.516419928797E+00
  0.516419824134E+00
  0.618271045843E+00
  0.618271073383E+00
  0.673034564360E+00
  0.673034570075E+00
  0.713998310109E+00
  0.713998225325E+00
  0.642474424850E+00
  0.642474392665E+00
  0.520654237076E+00
  0.520654282752E+00
  0.423183615078E+00
  0.423183527550E+00
  0.275576386970E+00
  0.275576562988E+00
  0.217975438056E+00
  0.217975529544E+00
  0.155094646368E+00
  0.155094465989E+00
  0.113800458812E+00
  0.113800458809E+00
  0.741275360583E-01
  0.741275360669E-01
  0.404551299177E-01
  0.404551299107E-01
  0.923980460979E-02
  0.923967303952E-02
 -0.170050282224E-01
 -0.170050282244E-01
 -0.395927135312E-01
 -0.395924939095E-01
 -0.629624720377E-01
 -0.629626737152E-01
 -0.874934727227E-01
 -0.874934289316E-01
 -0.112865244874E+00
 -0.112865267854E+00
 -0.139148782282E+00
 -0.139148782282E+00
 -0.168309722836E+00
 -0.168309589054E+00
 -0.185988743644E+00
 -0.185988859300E+00
 -0.202167102633E+00
 -0.202167162751E+00
 -0.215747721044E+00
 -0.215747658075E+00
 -0.224839847142E+00
 -0.224839847134E+00
 -0.234096929878E+00
 -0.234096929888E+00
 -0.239225637660E+00
 -0.239225637662E+00
 -0.244971429404E+00
 -0.244971429403E+00
 -0.246959934084E+00
 -0.246959934069E+00
 -0.248390713595E+00
 -0.248390713595E+00
 -0.249719551340E+00
 -0.249719597647E+00
 -0.249756585806E+00
 -0.249756585807E+00
 -0.250017558542E+00
 -0.250017558522E+00
 -0.250240331783E+00
 -0.250240391862E+00
 -0.250080952773E+00
 -0.250080919473E+00
 -0.249710003238E+00
 -0.249710003209E+00
 -0.249437138370E+00
 -0.249437138403E+00
 -0.249264439367E+00
 -0.249264462983E+00
 -0.249133363628E+00
 -0.249133363665E+00
 -0.249011679922E+00
 -0.249011679878E+00
 -0.248906876102E+00
 -0.248906893760E+00
 -0.248814641591E+00
 -0.248814651724E+00
 -0.248735885729E+00
 -0.248735891578E+00
 -0.248668837008E+00
 -0.248667366041E+00
  0.402365818229E-01
  0.402381403400E-01
  0.401651744797E-01
  0.401651866708E-01
  0.400813035428E-01
  0.400813035422E-01
  0.399830744624E-01
  0.399830561959E-01
  0.398714089917E-01
  0.398714406647E-01
  0.397425762519E-01
  0.397418211240E-01
  0.396021325849E-01
  0.396021566932E-01
  0.394175951227E-01
  0.394181776312E-01
  0.391279362799E-01
  0.391274200669E-01
  0.387320616697E-01
  0.387320949802E-01
  0.385616847333E-01
  0.385620978601E-01
  0.387996265799E-01
  0.387996265799E-01
  0.390777713892E-01
  0.390777714069E-01
  0.391173919060E-01
  0.391171919789E-01
  0.405326765936E-01
  0.405327600430E-01
  0.420556137816E-01
  0.420555354897E-01
  0.441696399913E-01
  0.441695923528E-01
  0.502630729901E-01
  0.502631831879E-01
  0.556836991067E-01
  0.556836674731E-01
  0.654233403906E-01
  0.654232717217E-01
  0.749346831067E-01
  0.749346727850E-01
  0.890422690702E-01
  0.890422690702E-01
  0.105695750835E+00
  0.105695627004E+00
  0.123707820780E+00
  0.123707820780E+00
  0.153002950407E+00
  0.153002950407E+00
  0.178974450807E+00
  0.178974428953E+00
  0.203663624170E+00
  0.203663794855E+00
  0.227183818357E+00
  0.227183698714E+00
  0.249273349216E+00
  0.249273362808E+00
  0.270331520392E+00
  0.270331573519E+00
  0.294439947992E+00
  0.294439879426E+00
  0.322611636639E+00
  0.322611636636E+00
  0.352385598983E+00
  0.352385598985E+00
  0.386635896850E+00
  0.386635896853E+00
  0.421311578897E+00
  0.421311495677E+00
  0.472124470551E+00
  0.472124531589E+00
  0.516419799819E+00
  0.516419799811E+00
  0.618271071277E+00
  0.618271081067E+00
  0.673034509214E+00
  0.673034505118E+00
  0.713998143754E+00
  0.713998215064E+00
  0.642474316410E+00
  0.642474351450E+00
  0.520654268959E+00
  0.520654189994E+00
  0.423183642117E+00
  0.423183613636E+00
  0.275576373983E+00
  0.275576373995E+00
  0.217975545231E+00
  0.217975453088E+00
  0.155094537882E+00
  0.155094653748E+00
  0.113800456584E+00
  0.113800456579E+00
  0.741275349558E-01
  0.741275349532E-01
  0.404551294538E-01
  0.404551294584E-01
  0.923972154202E-02
  0.923980431022E-02
 -0.170049649996E-01
 -0.170050275289E-01
 -0.395926967204E-01
 -0.395927123605E-01
 -0.629626060566E-01
 -0.629624719357E-01
 -0.874932868384E-01
 -0.874934724529E-01
 -0.112865267679E+00
 -0.112865244718E+00
 -0.139148782229E+00
 -0.139148782229E+00
 -0.168309722789E+00
 -0.168309722789E+00
 -0.185988858897E+00
 -0.185988742996E+00
 -0.202167106098E+00
 -0.202167106098E+00
 -0.215747739202E+00
 -0.215747730056E+00
 -0.224839853536E+00
 -0.224839782231E+00
 -0.234096932861E+00
 -0.234096899914E+00
 -0.239225638266E+00
 -0.239225753009E+00
 -0.244971440343E+00
 -0.244971390813E+00
 -0.246959941199E+00
 -0.246959860138E+00
 -0.248390714306E+00
 -0.248390800248E+00
 -0.249719601459E+00
 -0.249719396810E+00
 -0.249756574750E+00
 -0.249756574768E+00
 -0.250017547398E+00
 -0.250017547398E+00
 -0.250240377054E+00
 -0.250240791276E+00
 -0.250080929753E+00
 -0.250080962927E+00
 -0.249710015067E+00
 -0.249709504255E+00
 -0.249437127303E+00
 -0.249437700280E+00
 -0.249264473823E+00
 -0.249264497406E+00