# vtk DataFile Version 3.0
MachLine results file. Generated by MachLine, USU AeroLab (c) 2022.
ASCII
DATASET POLYDATA
POINTS                  20 float
  0.660765380859E+02  0.470762481689E+02  0.000000000000E+00
  0.989413341955E+04  0.470762481689E+02  0.145128117535E+04
  0.625299339294E+02  0.435296669006E+02  0.000000000000E+00
  0.989405773413E+04  0.435296669006E+02  0.145179371604E+04
  0.244703655243E+02  0.547033166885E+01  0.000000000000E+00
  0.989324553338E+04  0.547033166885E+01  0.145729392876E+04
  0.209237651825E+02  0.192375373840E+01  0.000000000000E+00
  0.989316984804E+04  0.192375373840E+01  0.145780646890E+04
  0.303820724487E+02  0.113820018768E+02  0.000000000000E+00
  0.989337169069E+04  0.113820018768E+02  0.145643959313E+04
  0.482439842224E+02  0.292438049316E+02  0.000000000000E+00
  0.989375286837E+04  0.292438049316E+02  0.145385826290E+04
  0.387563171387E+02  0.197561950684E+02  0.000000000000E+00
  0.989355039917E+04  0.197561950684E+02  0.145522938163E+04
  0.190000000000E+02  0.000000000000E+00  0.000000000000E+00
  0.989312879440E+04  0.000000000000E+00  0.145808448355E+04
  0.566182289124E+02  0.376179962158E+02  0.000000000000E+00
  0.989393157686E+04  0.376179962158E+02  0.145264805140E+04
  0.680002975464E+02  0.490000000000E+02  0.000000000000E+00
  0.989417447306E+04  0.490000000000E+02  0.145100316153E+04
POLYGONS                  18                  72
3                   6                   7                  15
3                   6                  15                  14
3                   4                   5                   7
3                   4                   7                   6
3                   8                   9                   5
3                   8                   5                   4
3                  12                  13                   9
3                  12                   9                   8
3                  10                  11                  13
3                  10                  13                  12
3                  16                  17                  11
3                  16                  11                  10
3                   2                   3                  17
3                   2                  17                  16
3                   0                   1                   3
3                   0                   3                   2
3                  18                  19                   1
3                  18                   1                   0
CELL_DATA                  18
NORMALS normals float
  0.144548798476E+00 -0.144549658373E+00 -0.978882547154E+00
  0.144548798476E+00 -0.144549658373E+00 -0.978882547154E+00
  0.144548797357E+00 -0.144549710783E+00 -0.978882539580E+00
  0.144548797357E+00 -0.144549710783E+00 -0.978882539580E+00
  0.144548797685E+00 -0.144549695454E+00 -0.978882541796E+00
  0.144548797685E+00 -0.144549695454E+00 -0.978882541796E+00
  0.144548797869E+00 -0.144549686795E+00 -0.978882543047E+00
  0.144548797869E+00 -0.144549686795E+00 -0.978882543047E+00
  0.144548798227E+00 -0.144549670012E+00 -0.978882545472E+00
  0.144548798227E+00 -0.144549670012E+00 -0.978882545472E+00
  0.144548797181E+00 -0.144549719031E+00 -0.978882538388E+00
  0.144548797181E+00 -0.144549719031E+00 -0.978882538388E+00
  0.144548798903E+00 -0.144549638374E+00 -0.978882550045E+00
  0.144548798903E+00 -0.144549638374E+00 -0.978882550045E+00
  0.144548796951E+00 -0.144549729811E+00 -0.978882536830E+00
  0.144548796951E+00 -0.144549729811E+00 -0.978882536830E+00
  0.144548804465E+00 -0.144549377730E+00 -0.978882587712E+00
  0.144548804465E+00 -0.144549377730E+00 -0.978882587712E+00
POINT_DATA                  20
SCALARS mu float 1
LOOKUP_TABLE default
 -0.164770731269E+01
 -0.164770731269E+01
 -0.301745560303E+01
 -0.301745560303E+01
 -0.437748071604E+01
 -0.437748071604E+01
 -0.423529428631E+01
 -0.423529428631E+01
 -0.455440600306E+01
 -0.455440600306E+01
 -0.453969687074E+01
 -0.453969687074E+01
 -0.466220397478E+01
 -0.466220397478E+01
 -0.416545391528E+01
 -0.416545391528E+01
 -0.401428064136E+01
 -0.401428064136E+01
  0.000000000000E+00
  0.000000000000E+00
