# vtk DataFile Version 3.0
TriPan results file. Generated by TriPan, USU AeroLab (c) 2021.
ASCII
DATASET POLYDATA
POINTS                  50 float
     19.580198288000      0.579897820950      0.000000000000
     99.345079646976      0.579897820950     11.778652908386
     19.000301361100      0.000000000000      0.000000000000
     99.332704500866      0.000000000000     11.862457233799
     20.321611404400      1.321311235430      0.000000000000
     99.360901589148      1.321311235430     11.671506925731
     21.262266159100      2.261965751650      0.000000000000
     99.380975397938      2.261965751650     11.535567358703
     22.444129943800      3.443829536440      0.000000000000
     99.406196668027      3.443829536440     11.364769251985
     23.911006927500      4.910706520080      0.000000000000
     99.437500191389      4.910706520080     11.152782206738
     25.704246521000      6.703944683070      0.000000000000
     99.475768374837      6.703944683070     10.893630575707
     27.856279373200      8.855978012080      0.000000000000
     99.521693296566      8.855978012080     10.582627614530
     30.382303237900     11.382001876800      0.000000000000
     99.575599280462     11.382001876800     10.217577006160
     33.271335601800     14.271034240700      0.000000000000
     99.637251956931     14.271034240700      9.800065898376
     36.479064941400     17.478763580300      0.000000000000
     99.705705706928     17.478763580300      9.336498010808
     39.925552368200     20.925249099700      0.000000000000
     99.779254614491     20.925249099700      8.838425783750
     43.500301361100     24.500000000000      0.000000000000
     99.855540656098     24.500000000000      8.321817721229
     47.075050354000     28.074750900300      0.000000000000
     99.931826697705     28.074750900300      7.805209658707
     50.521537780800     31.521236419700      0.000000000000
    100.005375605267     31.521236419700      7.307137431650
     53.729267120400     34.728965759300      0.000000000000
    100.073829355265     34.728965759300      6.843569544082
     56.618297576900     37.617996215800      0.000000000000
    100.135481991029     37.617996215800      6.426058711947
     59.144321441700     40.144020080600      0.000000000000
    100.189387974927     40.144020080600      6.061008103563
     61.296356201200     42.296054840100      0.000000000000
    100.235312937359     42.296054840100      5.750004866751
     63.089595794700     44.089294433600      0.000000000000
    100.273581120807     44.089294433600      5.490853235720
     64.556472778300     45.556171417200      0.000000000000
    100.304884644166     45.556171417200      5.278866190487
     65.738334655800     46.738033294700      0.000000000000
    100.330105873556     46.738033294700      5.108068359390
     66.678993225100     47.678688049300      0.000000000000
    100.350179763750     47.678688049300      4.972128241092
     67.420402526900     48.420101165800      0.000000000000
    100.366001624518     48.420101165800      4.864982809706
     68.000297546400     49.000000000000      0.000000000000
    100.378376729923     49.000000000000      4.781178759944
POLYGONS                  48                 192
3                   0                   1                   3
3                   0                   3                   2
3                   4                   5                   1
3                   4                   1                   0
3                   6                   7                   5
3                   6                   5                   4
3                   8                   9                   7
3                   8                   7                   6
3                  10                  11                   9
3                  10                   9                   8
3                  12                  13                  11
3                  12                  11                  10
3                  14                  15                  13
3                  14                  13                  12
3                  16                  17                  15
3                  16                  15                  14
3                  18                  19                  17
3                  18                  17                  16
3                  20                  21                  19
3                  20                  19                  18
3                  22                  23                  21
3                  22                  21                  20
3                  24                  25                  23
3                  24                  23                  22
3                  26                  27                  25
3                  26                  25                  24
3                  28                  29                  27
3                  28                  27                  26
3                  30                  31                  29
3                  30                  29                  28
3                  32                  33                  31
3                  32                  31                  30
3                  34                  35                  33
3                  34                  33                  32
3                  36                  37                  35
3                  36                  35                  34
3                  38                  39                  37
3                  38                  37                  36
3                  40                  41                  39
3                  40                  39                  38
3                  42                  43                  41
3                  42                  41                  40
3                  44                  45                  43
3                  44                  43                  42
3                  46                  47                  45
3                  46                  45                  44
3                  48                  49                  47
3                  48                  47                  46
POINT_DATA                  50
SCALARS mu float 1
LOOKUP_TABLE default
     -4.585055952238
     -4.585055952238
     -4.561415799601
     -4.561415799601
     -4.622317574972
     -4.622317574972
     -4.669989282842
     -4.669989282842
     -4.728718835260
     -4.728718835260
     -4.799956073008
     -4.799956073008
     -4.880741667991
     -4.880741667991
     -4.965246380025
     -4.965246380025
     -5.048752717311
     -5.048752717311
     -5.125631034553
     -5.125631034553
     -5.187344676926
     -5.187344676926
     -5.228059686476
     -5.228059686476
     -5.238296805226
     -5.238296805226
     -5.207574380418
     -5.207574380418
     -5.125570303534
     -5.125570303534
     -4.983689603533
     -4.983689603533
     -4.770505047013
     -4.770505047013
     -4.483608006864
     -4.483608006864
     -4.123076156928
     -4.123076156928
     -3.696608950783
     -3.696608950783
     -3.208433151462
     -3.208433151462
     -2.648561661777
     -2.648561661777
     -1.990191834168
     -1.990191834168
     -1.183172362889
     -1.183172362889
      0.000000000000
      0.000000000000
