# vtk DataFile Version 3.0
MachLine results file. Generated by MachLine, USU AeroLab (c) 2023.
ASCII
DATASET POLYDATA
POINTS                 144 float
  0.407704174145E+01  0.277777777780E+00  0.000000000000E+00
  0.598026515981E+02  0.277777777780E+00  0.487535913052E+01
  0.423112522435E+01  0.833333333330E+00  0.000000000000E+00
  0.598038220352E+02  0.833333333330E+00  0.486198097252E+01
  0.438520870720E+01  0.138888888890E+01  0.000000000000E+00
  0.598049924724E+02  0.138888888890E+01  0.484860281451E+01
  0.453929219005E+01  0.194444444445E+01  0.000000000000E+00
  0.598061629096E+02  0.194444444445E+01  0.483522465651E+01
  0.469337567295E+01  0.250000000000E+01  0.000000000000E+00
  0.598073333467E+02  0.250000000000E+01  0.482184649850E+01
  0.484745915585E+01  0.305555555555E+01  0.000000000000E+00
  0.598085037839E+02  0.305555555555E+01  0.480846834050E+01
  0.500154263875E+01  0.361111111110E+01  0.000000000000E+00
  0.598096742210E+02  0.361111111110E+01  0.479509018249E+01
  0.515562612165E+01  0.416666666665E+01  0.000000000000E+00
  0.598108446582E+02  0.416666666665E+01  0.478171202448E+01
  0.530970960450E+01  0.472222222220E+01  0.000000000000E+00
  0.598120150954E+02  0.472222222220E+01  0.476833386648E+01
  0.546379308735E+01  0.527777777780E+01  0.000000000000E+00
  0.598131855325E+02  0.527777777780E+01  0.475495570848E+01
  0.561787657025E+01  0.583333333335E+01  0.000000000000E+00
  0.598143559697E+02  0.583333333335E+01  0.474157755047E+01
  0.577196005315E+01  0.638888888890E+01  0.000000000000E+00
  0.598155264069E+02  0.638888888890E+01  0.472819939246E+01
  0.592604353605E+01  0.694444444445E+01  0.000000000000E+00
  0.598166968440E+02  0.694444444445E+01  0.471482123445E+01
  0.608012701895E+01  0.750000000000E+01  0.000000000000E+00
  0.598178672812E+02  0.750000000000E+01  0.470144307645E+01
  0.623421050180E+01  0.805555555555E+01  0.000000000000E+00
  0.598190377184E+02  0.805555555555E+01  0.468806491844E+01
  0.638829398465E+01  0.861111111110E+01  0.000000000000E+00
  0.598202081555E+02  0.861111111110E+01  0.467468676044E+01
  0.654237746755E+01  0.916666666665E+01  0.000000000000E+00
  0.598213785927E+02  0.916666666665E+01  0.466130860243E+01
  0.669646095045E+01  0.972222222220E+01  0.000000000000E+00
  0.598225490299E+02  0.972222222220E+01  0.464793044443E+01
  0.407704174145E+01 -0.277777777780E+00  0.000000000000E+00
  0.598026515981E+02 -0.277777777780E+00  0.487535913052E+01
  0.423112522435E+01 -0.833333333330E+00  0.000000000000E+00
  0.598038220352E+02 -0.833333333330E+00  0.486198097252E+01
  0.438520870720E+01 -0.138888888890E+01  0.000000000000E+00
  0.598049924724E+02 -0.138888888890E+01  0.484860281451E+01
  0.453929219005E+01 -0.194444444445E+01  0.000000000000E+00
  0.598061629096E+02 -0.194444444445E+01  0.483522465651E+01
  0.469337567295E+01 -0.250000000000E+01  0.000000000000E+00
  0.598073333467E+02 -0.250000000000E+01  0.482184649850E+01
  0.484745915585E+01 -0.305555555555E+01  0.000000000000E+00
  0.598085037839E+02 -0.305555555555E+01  0.480846834050E+01
  0.500154263875E+01 -0.361111111110E+01  0.000000000000E+00
  0.598096742210E+02 -0.361111111110E+01  0.479509018249E+01
  0.515562612165E+01 -0.416666666665E+01  0.000000000000E+00
  0.598108446582E+02 -0.416666666665E+01  0.478171202448E+01
  0.546379308735E+01 -0.527777777780E+01  0.000000000000E+00
  0.598131855325E+02 -0.527777777780E+01  0.475495570848E+01
  0.530970960450E+01 -0.472222222220E+01  0.000000000000E+00
  0.598120150954E+02 -0.472222222220E+01  0.476833386648E+01
  0.561787657025E+01 -0.583333333335E+01  0.000000000000E+00
  0.598143559697E+02 -0.583333333335E+01  0.474157755047E+01
  0.577196005315E+01 -0.638888888890E+01  0.000000000000E+00
  0.598155264069E+02 -0.638888888890E+01  0.472819939246E+01
  0.592604353605E+01 -0.694444444445E+01  0.000000000000E+00
  0.598166968440E+02 -0.694444444445E+01  0.471482123445E+01
  0.608012701895E+01 -0.750000000000E+01  0.000000000000E+00
  0.598178672812E+02 -0.750000000000E+01  0.470144307645E+01
  0.623421050180E+01 -0.805555555555E+01  0.000000000000E+00
  0.598190377184E+02 -0.805555555555E+01  0.468806491844E+01
  0.638829398465E+01 -0.861111111110E+01  0.000000000000E+00
  0.598202081555E+02 -0.861111111110E+01  0.467468676044E+01
  0.654237746755E+01 -0.916666666665E+01  0.000000000000E+00
  0.598213785927E+02 -0.916666666665E+01  0.466130860243E+01
  0.669646095045E+01 -0.972222222220E+01  0.000000000000E+00
  0.598225490299E+02 -0.972222222220E+01  0.464793044443E+01
  0.682704174145E+01  0.277777777780E+00 -0.250000000000E+01
  0.600406011598E+02  0.277777777780E+00  0.215558319496E+01
  0.698112522435E+01  0.833333333330E+00 -0.250000000000E+01
  0.600417715969E+02  0.833333333330E+00  0.214220503696E+01
  0.713520870720E+01  0.138888888890E+01 -0.250000000000E+01
  0.600429420341E+02  0.138888888890E+01  0.212882687895E+01
  0.728929219005E+01  0.194444444445E+01 -0.250000000000E+01
  0.600441124712E+02  0.194444444445E+01  0.211544872095E+01
  0.744337567295E+01  0.250000000000E+01 -0.250000000000E+01
  0.600452829084E+02  0.250000000000E+01  0.210207056295E+01
  0.759745915585E+01  0.305555555555E+01 -0.250000000000E+01
  0.600464533456E+02  0.305555555555E+01  0.208869240494E+01
  0.775154263875E+01  0.361111111110E+01 -0.250000000000E+01
  0.600476237827E+02  0.361111111110E+01  0.207531424693E+01
  0.790562612165E+01  0.416666666665E+01 -0.250000000000E+01
  0.600487942199E+02  0.416666666665E+01  0.206193608892E+01
  0.805970960450E+01  0.472222222220E+01 -0.250000000000E+01
  0.600499646571E+02  0.472222222220E+01  0.204855793092E+01
  0.821379308735E+01  0.527777777780E+01 -0.250000000000E+01
  0.600511350942E+02  0.527777777780E+01  0.203517977292E+01
  0.836787657025E+01  0.583333333335E+01 -0.250000000000E+01
  0.600523055314E+02  0.583333333335E+01  0.202180161491E+01
  0.852196005315E+01  0.638888888890E+01 -0.250000000000E+01
  0.600534759686E+02  0.638888888890E+01  0.200842345690E+01
  0.867604353605E+01  0.694444444445E+01 -0.250000000000E+01
  0.600546464057E+02  0.694444444445E+01  0.199504529890E+01
  0.883012701895E+01  0.750000000000E+01 -0.250000000000E+01
  0.600558168429E+02  0.750000000000E+01  0.198166714089E+01
  0.898421050180E+01  0.805555555555E+01 -0.250000000000E+01
  0.600569872801E+02  0.805555555555E+01  0.196828898289E+01
  0.913829398465E+01  0.861111111110E+01 -0.250000000000E+01
  0.600581577172E+02  0.861111111110E+01  0.195491082488E+01
  0.929237746755E+01  0.916666666665E+01 -0.250000000000E+01
  0.600593281544E+02  0.916666666665E+01  0.194153266688E+01
  0.944646095045E+01  0.972222222220E+01 -0.250000000000E+01
  0.600604985915E+02  0.972222222220E+01  0.192815450887E+01
  0.682704174145E+01 -0.277777777780E+00 -0.250000000000E+01
  0.600406011598E+02 -0.277777777780E+00  0.215558319496E+01
  0.698112522435E+01 -0.833333333330E+00 -0.250000000000E+01
  0.600417715969E+02 -0.833333333330E+00  0.214220503696E+01
  0.713520870720E+01 -0.138888888890E+01 -0.250000000000E+01
  0.600429420341E+02 -0.138888888890E+01  0.212882687895E+01
  0.728929219005E+01 -0.194444444445E+01 -0.250000000000E+01
  0.600441124712E+02 -0.194444444445E+01  0.211544872095E+01
  0.759745915585E+01 -0.305555555555E+01 -0.250000000000E+01
  0.600464533456E+02 -0.305555555555E+01  0.208869240494E+01
  0.744337567295E+01 -0.250000000000E+01 -0.250000000000E+01
  0.600452829084E+02 -0.250000000000E+01  0.210207056295E+01
  0.775154263875E+01 -0.361111111110E+01 -0.250000000000E+01
  0.600476237827E+02 -0.361111111110E+01  0.207531424693E+01
  0.790562612165E+01 -0.416666666665E+01 -0.250000000000E+01
  0.600487942199E+02 -0.416666666665E+01  0.206193608892E+01
  0.805970960450E+01 -0.472222222220E+01 -0.250000000000E+01
  0.600499646571E+02 -0.472222222220E+01  0.204855793092E+01
  0.821379308735E+01 -0.527777777780E+01 -0.250000000000E+01
  0.600511350942E+02 -0.527777777780E+01  0.203517977292E+01
  0.836787657025E+01 -0.583333333335E+01 -0.250000000000E+01
  0.600523055314E+02 -0.583333333335E+01  0.202180161491E+01
  0.852196005315E+01 -0.638888888890E+01 -0.250000000000E+01
  0.600534759686E+02 -0.638888888890E+01  0.200842345690E+01
  0.867604353605E+01 -0.694444444445E+01 -0.250000000000E+01
  0.600546464057E+02 -0.694444444445E+01  0.199504529890E+01
  0.898421050180E+01 -0.805555555555E+01 -0.250000000000E+01
  0.600569872801E+02 -0.805555555555E+01  0.196828898289E+01
  0.883012701895E+01 -0.750000000000E+01 -0.250000000000E+01
  0.600558168429E+02 -0.750000000000E+01  0.198166714089E+01
  0.913829398465E+01 -0.861111111110E+01 -0.250000000000E+01
  0.600581577172E+02 -0.861111111110E+01  0.195491082488E+01
  0.929237746755E+01 -0.916666666665E+01 -0.250000000000E+01
  0.600593281544E+02 -0.916666666665E+01  0.194153266688E+01
  0.944646095045E+01 -0.972222222220E+01 -0.250000000000E+01
  0.600604985915E+02 -0.972222222220E+01  0.192815450887E+01
LINES                  72                 216
2                   0                   1
2                   2                   3
2                   4                   5
2                   6                   7
2                   8                   9
2                  10                  11
2                  12                  13
2                  14                  15
2                  16                  17
2                  18                  19
2                  20                  21
2                  22                  23
2                  24                  25
2                  26                  27
2                  28                  29
2                  30                  31
2                  32                  33
2                  34                  35
2                  36                  37
2                  38                  39
2                  40                  41
2                  42                  43
2                  44                  45
2                  46                  47
2                  48                  49
2                  50                  51
2                  52                  53
2                  54                  55
2                  56                  57
2                  58                  59
2                  60                  61
2                  62                  63
2                  64                  65
2                  66                  67
2                  68                  69
2                  70                  71
2                  72                  73
2                  74                  75
2                  76                  77
2                  78                  79
2                  80                  81
2                  82                  83
2                  84                  85
2                  86                  87
2                  88                  89
2                  90                  91
2                  92                  93
2                  94                  95
2                  96                  97
2                  98                  99
2                 100                 101
2                 102                 103
2                 104                 105
2                 106                 107
2                 108                 109
2                 110                 111
2                 112                 113
2                 114                 115
2                 116                 117
2                 118                 119
2                 120                 121
2                 122                 123
2                 124                 125
2                 126                 127
2                 128                 129
2                 130                 131
2                 132                 133
2                 134                 135
2                 136                 137
2                 138                 139
2                 140                 141
2                 142                 143
POINT_DATA                 144
SCALARS Gamma float 1
LOOKUP_TABLE default
 -0.172840358009E-01
 -0.172840358009E-01
 -0.562958775022E-02
 -0.562958775022E-02
 -0.480173607207E-02
 -0.480173607207E-02
  0.903965127206E-03
  0.903965127206E-03
  0.530488819181E-02
  0.530488819181E-02
  0.144515012209E-01
  0.144515012209E-01
  0.206009147069E-01
  0.206009147069E-01
  0.200214712657E-01
  0.200214712657E-01
  0.236814109886E-01
  0.236814109886E-01
  0.200947845978E-01
  0.200947845978E-01
  0.286386568409E-01
  0.286386568409E-01
  0.152760192648E-01
  0.152760192648E-01
  0.325186158015E-01
  0.325186158015E-01
  0.193633866433E-01
  0.193633866433E-01
  0.214805396898E-01
  0.214805396898E-01
  0.303361169670E-01
  0.303361169670E-01
  0.194741694126E-01
  0.194741694126E-01
  0.150798987831E+00
  0.150798987831E+00
  0.172840358688E-01
  0.172840358688E-01
  0.562958799798E-02
  0.562958799798E-02
  0.480173137335E-02
  0.480173137335E-02
 -0.903974899869E-03
 -0.903974899869E-03
 -0.530491254563E-02
 -0.530491254563E-02
 -0.144515509322E-01
 -0.144515509322E-01
 -0.206007574359E-01
 -0.206007574359E-01
 -0.200215455520E-01
 -0.200215455520E-01
 -0.200949728706E-01
 -0.200949728706E-01
 -0.236812033977E-01
 -0.236812033977E-01
 -0.286387254973E-01
 -0.286387254973E-01
 -0.152760950238E-01
 -0.152760950238E-01
 -0.325186237970E-01
 -0.325186237970E-01
 -0.193632711678E-01
 -0.193632711678E-01
 -0.214806501953E-01
 -0.214806501953E-01
 -0.303360470355E-01
 -0.303360470355E-01
 -0.194740691749E-01
 -0.194740691749E-01
 -0.150799024641E+00
 -0.150799024641E+00
 -0.112617539724E-01
 -0.112617539724E-01
 -0.793576599580E-02
 -0.793576599580E-02
  0.314211521219E-01
  0.314211521219E-01
 -0.923211869752E-03
 -0.923211869752E-03
 -0.474111695965E-02
 -0.474111695965E-02
  0.371485945196E-01
  0.371485945196E-01
  0.214124569902E-01
  0.214124569902E-01
  0.811803261637E-01
  0.811803261637E-01
  0.289710672886E-02
  0.289710672886E-02
 -0.138694988442E-01
 -0.138694988442E-01
  0.248538747651E-01
  0.248538747651E-01
 -0.216647347394E-01
 -0.216647347394E-01
 -0.955345306061E-02
 -0.955345306061E-02
 -0.666906716185E-01
 -0.666906716185E-01
  0.759071790581E-03
  0.759071790581E-03
 -0.104590934834E-01
 -0.104590934834E-01
 -0.463074345756E-01
 -0.463074345756E-01
  0.115877306612E+00
  0.115877306612E+00
  0.112617239278E-01
  0.112617239278E-01
  0.793583540664E-02
  0.793583540664E-02
 -0.314211509706E-01
 -0.314211509706E-01
  0.923172629829E-03
  0.923172629829E-03
 -0.371485899088E-01
 -0.371485899088E-01
  0.474107724503E-02
  0.474107724503E-02
 -0.214123485703E-01
 -0.214123485703E-01
 -0.811803453002E-01
 -0.811803453002E-01
 -0.289710363820E-02
 -0.289710363820E-02
  0.138693100656E-01
  0.138693100656E-01
 -0.248536211848E-01
 -0.248536211848E-01
  0.216646207471E-01
  0.216646207471E-01
  0.955351890254E-02
  0.955351890254E-02
 -0.758792238490E-03
 -0.758792238490E-03
  0.666904520188E-01
  0.666904520188E-01
  0.104587980215E-01
  0.104587980215E-01
  0.463075647797E-01
  0.463075647797E-01
 -0.115877276506E+00
 -0.115877276506E+00
