# vtk DataFile Version 3.0
MachLine results file. Generated by MachLine, USU AeroLab (c) 2023.
ASCII
DATASET POLYDATA
POINTS                 160 float
  0.427735026920E+01  0.100000000000E+01  0.000000000000E+00
  0.400000000000E+01  0.000000000000E+00  0.000000000000E+00
  0.598041731664E+02  0.100000000000E+01  0.485796752511E+01
  0.598020663795E+02  0.000000000000E+00  0.488204820953E+01
  0.455470053840E+01  0.200000000000E+01  0.000000000000E+00
  0.427735026920E+01  0.100000000000E+01  0.000000000000E+00
  0.598062799533E+02  0.200000000000E+01  0.483388684070E+01
  0.598041731664E+02  0.100000000000E+01  0.485796752511E+01
  0.483205080760E+01  0.300000000000E+01  0.000000000000E+00
  0.455470053840E+01  0.200000000000E+01  0.000000000000E+00
  0.598083867402E+02  0.300000000000E+01  0.480980615629E+01
  0.598062799533E+02  0.200000000000E+01  0.483388684070E+01
  0.510940107680E+01  0.400000000000E+01  0.000000000000E+00
  0.483205080760E+01  0.300000000000E+01  0.000000000000E+00
  0.598104935271E+02  0.400000000000E+01  0.478572547188E+01
  0.598083867402E+02  0.300000000000E+01  0.480980615629E+01
  0.538675134590E+01  0.500000000000E+01  0.000000000000E+00
  0.510940107680E+01  0.400000000000E+01  0.000000000000E+00
  0.598126003140E+02  0.500000000000E+01  0.476164478748E+01
  0.598104935271E+02  0.400000000000E+01  0.478572547188E+01
  0.566410161510E+01  0.600000000000E+01  0.000000000000E+00
  0.538675134590E+01  0.500000000000E+01  0.000000000000E+00
  0.598147071009E+02  0.600000000000E+01  0.473756410307E+01
  0.598126003140E+02  0.500000000000E+01  0.476164478748E+01
  0.594145188430E+01  0.700000000000E+01  0.000000000000E+00
  0.566410161510E+01  0.600000000000E+01  0.000000000000E+00
  0.598168138878E+02  0.700000000000E+01  0.471348341866E+01
  0.598147071009E+02  0.600000000000E+01  0.473756410307E+01
  0.621880215350E+01  0.800000000000E+01  0.000000000000E+00
  0.594145188430E+01  0.700000000000E+01  0.000000000000E+00
  0.598189206746E+02  0.800000000000E+01  0.468940273425E+01
  0.598168138878E+02  0.700000000000E+01  0.471348341866E+01
  0.649615242270E+01  0.900000000000E+01  0.000000000000E+00
  0.621880215350E+01  0.800000000000E+01  0.000000000000E+00
  0.598210274615E+02  0.900000000000E+01  0.466532204984E+01
  0.598189206746E+02  0.800000000000E+01  0.468940273425E+01
  0.677350269190E+01  0.100000000000E+02  0.000000000000E+00
  0.649615242270E+01  0.900000000000E+01  0.000000000000E+00
  0.598231342484E+02  0.100000000000E+02  0.464124136542E+01
  0.598210274615E+02  0.900000000000E+01  0.466532204984E+01
  0.400000000000E+01  0.000000000000E+00  0.000000000000E+00
  0.427735026920E+01 -0.100000000000E+01  0.000000000000E+00
  0.598020663795E+02  0.000000000000E+00  0.488204820953E+01
  0.598041731664E+02 -0.100000000000E+01  0.485796752511E+01
  0.427735026920E+01 -0.100000000000E+01  0.000000000000E+00
  0.455470053840E+01 -0.200000000000E+01  0.000000000000E+00
  0.598041731664E+02 -0.100000000000E+01  0.485796752511E+01
  0.598062799533E+02 -0.200000000000E+01  0.483388684070E+01
  0.455470053840E+01 -0.200000000000E+01  0.000000000000E+00
  0.483205080760E+01 -0.300000000000E+01  0.000000000000E+00
  0.598062799533E+02 -0.200000000000E+01  0.483388684070E+01
  0.598083867402E+02 -0.300000000000E+01  0.480980615629E+01
  0.483205080760E+01 -0.300000000000E+01  0.000000000000E+00
  0.510940107680E+01 -0.400000000000E+01  0.000000000000E+00
  0.598083867402E+02 -0.300000000000E+01  0.480980615629E+01
  0.598104935271E+02 -0.400000000000E+01  0.478572547188E+01
  0.510940107680E+01 -0.400000000000E+01  0.000000000000E+00
  0.538675134590E+01 -0.500000000000E+01  0.000000000000E+00
  0.598104935271E+02 -0.400000000000E+01  0.478572547188E+01
  0.598126003140E+02 -0.500000000000E+01  0.476164478748E+01
  0.538675134590E+01 -0.500000000000E+01  0.000000000000E+00
  0.566410161510E+01 -0.600000000000E+01  0.000000000000E+00
  0.598126003140E+02 -0.500000000000E+01  0.476164478748E+01
  0.598147071009E+02 -0.600000000000E+01  0.473756410307E+01
  0.566410161510E+01 -0.600000000000E+01  0.000000000000E+00
  0.594145188430E+01 -0.700000000000E+01  0.000000000000E+00
  0.598147071009E+02 -0.600000000000E+01  0.473756410307E+01
  0.598168138878E+02 -0.700000000000E+01  0.471348341866E+01
  0.621880215350E+01 -0.800000000000E+01  0.000000000000E+00
  0.649615242270E+01 -0.900000000000E+01  0.000000000000E+00
  0.598189206746E+02 -0.800000000000E+01  0.468940273425E+01
  0.598210274615E+02 -0.900000000000E+01  0.466532204984E+01
  0.594145188430E+01 -0.700000000000E+01  0.000000000000E+00
  0.621880215350E+01 -0.800000000000E+01  0.000000000000E+00
  0.598168138878E+02 -0.700000000000E+01  0.471348341866E+01
  0.598189206746E+02 -0.800000000000E+01  0.468940273425E+01
  0.649615242270E+01 -0.900000000000E+01  0.000000000000E+00
  0.677350269190E+01 -0.100000000000E+02  0.000000000000E+00
  0.598210274615E+02 -0.900000000000E+01  0.466532204984E+01
  0.598231342484E+02 -0.100000000000E+02  0.464124136542E+01
  0.702735026920E+01  0.100000000000E+01 -0.250000000000E+01
  0.675000000000E+01  0.000000000000E+00 -0.250000000000E+01
  0.600421227281E+02  0.100000000000E+01  0.213819158956E+01
  0.600400159412E+02  0.000000000000E+00  0.216227227397E+01
  0.730470053840E+01  0.200000000000E+01 -0.250000000000E+01
  0.702735026920E+01  0.100000000000E+01 -0.250000000000E+01
  0.600442295150E+02  0.200000000000E+01  0.211411090515E+01
  0.600421227281E+02  0.100000000000E+01  0.213819158956E+01
  0.758205080760E+01  0.300000000000E+01 -0.250000000000E+01
  0.730470053840E+01  0.200000000000E+01 -0.250000000000E+01
  0.600463363019E+02  0.300000000000E+01  0.209003022074E+01
  0.600442295150E+02  0.200000000000E+01  0.211411090515E+01
  0.785940107680E+01  0.400000000000E+01 -0.250000000000E+01
  0.758205080760E+01  0.300000000000E+01 -0.250000000000E+01
  0.600484430888E+02  0.400000000000E+01  0.206594953632E+01
  0.600463363019E+02  0.300000000000E+01  0.209003022074E+01
  0.841410161510E+01  0.600000000000E+01 -0.250000000000E+01
  0.813675134590E+01  0.500000000000E+01 -0.250000000000E+01
  0.600526566625E+02  0.600000000000E+01  0.201778816751E+01
  0.600505498757E+02  0.500000000000E+01  0.204186885192E+01
  0.813675134590E+01  0.500000000000E+01 -0.250000000000E+01
  0.785940107680E+01  0.400000000000E+01 -0.250000000000E+01
  0.600505498757E+02  0.500000000000E+01  0.204186885192E+01
  0.600484430888E+02  0.400000000000E+01  0.206594953632E+01
  0.869145188430E+01  0.700000000000E+01 -0.250000000000E+01
  0.841410161510E+01  0.600000000000E+01 -0.250000000000E+01
  0.600547634494E+02  0.700000000000E+01  0.199370748310E+01
  0.600526566625E+02  0.600000000000E+01  0.201778816751E+01
  0.896880215350E+01  0.800000000000E+01 -0.250000000000E+01
  0.869145188430E+01  0.700000000000E+01 -0.250000000000E+01
  0.600568702363E+02  0.800000000000E+01  0.196962679869E+01
  0.600547634494E+02  0.700000000000E+01  0.199370748310E+01
  0.924615242270E+01  0.900000000000E+01 -0.250000000000E+01
  0.896880215350E+01  0.800000000000E+01 -0.250000000000E+01
  0.600589770232E+02  0.900000000000E+01  0.194554611428E+01
  0.600568702363E+02  0.800000000000E+01  0.196962679869E+01
  0.952350269190E+01  0.100000000000E+02 -0.250000000000E+01
  0.924615242270E+01  0.900000000000E+01 -0.250000000000E+01
  0.600610838101E+02  0.100000000000E+02  0.192146542987E+01
  0.600589770232E+02  0.900000000000E+01  0.194554611428E+01
  0.675000000000E+01  0.000000000000E+00 -0.250000000000E+01
  0.702735026920E+01 -0.100000000000E+01 -0.250000000000E+01
  0.600400159412E+02  0.000000000000E+00  0.216227227397E+01
  0.600407962326E+02 -0.370370370370E+00  0.215335350197E+01
  0.685272232190E+01 -0.370370370370E+00 -0.250000000000E+01
  0.695544464380E+01 -0.740740740740E+00 -0.250000000000E+01
  0.600407962326E+02 -0.370370370370E+00  0.215335350197E+01
  0.600415765241E+02 -0.740740740740E+00  0.214443472996E+01
  0.695544464380E+01 -0.740740740740E+00 -0.250000000000E+01
  0.705816696580E+01 -0.111111111110E+01 -0.250000000000E+01
  0.600415765241E+02 -0.740740740740E+00  0.214443472996E+01
  0.600423568155E+02 -0.111111111110E+01  0.213551595795E+01
  0.705816696580E+01 -0.111111111110E+01 -0.250000000000E+01
  0.716088928770E+01 -0.148148148150E+01 -0.250000000000E+01
  0.600423568155E+02 -0.111111111110E+01  0.213551595795E+01
  0.600431371069E+02 -0.148148148150E+01  0.212659718595E+01
  0.716088928770E+01 -0.148148148150E+01 -0.250000000000E+01
  0.726361160960E+01 -0.185185185190E+01 -0.250000000000E+01
  0.600431371069E+02 -0.148148148150E+01  0.212659718595E+01
  0.600439173984E+02 -0.185185185190E+01  0.211767841395E+01
  0.726361160960E+01 -0.185185185190E+01 -0.250000000000E+01
  0.736633393150E+01 -0.222222222220E+01 -0.250000000000E+01
  0.600439173984E+02 -0.185185185190E+01  0.211767841395E+01
  0.600446976898E+02 -0.222222222220E+01  0.210875964195E+01
  0.736633393150E+01 -0.222222222220E+01 -0.250000000000E+01
  0.746905625350E+01 -0.259259259260E+01 -0.250000000000E+01
  0.600446976898E+02 -0.222222222220E+01  0.210875964195E+01
  0.600454779813E+02 -0.259259259260E+01  0.209984086994E+01
  0.746905625350E+01 -0.259259259260E+01 -0.250000000000E+01
  0.757177857540E+01 -0.296296296300E+01 -0.250000000000E+01
  0.600454779813E+02 -0.259259259260E+01  0.209984086994E+01
  0.600462582727E+02 -0.296296296300E+01  0.209092209794E+01
  0.757177857540E+01 -0.296296296300E+01 -0.250000000000E+01
  0.767450089730E+01 -0.333333333330E+01 -0.250000000000E+01
  0.600462582727E+02 -0.296296296300E+01  0.209092209794E+01
  0.600470385642E+02 -0.333333333330E+01  0.208200332593E+01
  0.767450089730E+01 -0.333333333330E+01 -0.250000000000E+01
  0.777722321920E+01 -0.370370370370E+01 -0.250000000000E+01
  0.600470385642E+02 -0.333333333330E+01  0.208200332593E+01
  0.600478188556E+02 -0.370370370370E+01  0.207308455393E+01
  0.777722321920E+01 -0.370370370370E+01 -0.250000000000E+01
  0.787994554110E+01 -0.407407407410E+01 -0.250000000000E+01
  0.600478188556E+02 -0.370370370370E+01  0.207308455393E+01
  0.600485991470E+02 -0.407407407410E+01  0.206416578193E+01
  0.787994554110E+01 -0.407407407410E+01 -0.250000000000E+01
  0.798266786310E+01 -0.444444444440E+01 -0.250000000000E+01
  0.600485991470E+02 -0.407407407410E+01  0.206416578193E+01
  0.600493794385E+02 -0.444444444440E+01  0.205524700992E+01
  0.798266786310E+01 -0.444444444440E+01 -0.250000000000E+01
  0.808539018500E+01 -0.481481481480E+01 -0.250000000000E+01
  0.600493794385E+02 -0.444444444440E+01  0.205524700992E+01
  0.600501597299E+02 -0.481481481480E+01  0.204632823792E+01
  0.808539018500E+01 -0.481481481480E+01 -0.250000000000E+01
  0.818811250690E+01 -0.518518518520E+01 -0.250000000000E+01
  0.600501597299E+02 -0.481481481480E+01  0.204632823792E+01
  0.600509400214E+02 -0.518518518520E+01  0.203740946592E+01
  0.818811250690E+01 -0.518518518520E+01 -0.250000000000E+01
  0.829083482880E+01 -0.555555555560E+01 -0.250000000000E+01
  0.600509400214E+02 -0.518518518520E+01  0.203740946592E+01
  0.600517203128E+02 -0.555555555560E+01  0.202849069391E+01
  0.829083482880E+01 -0.555555555560E+01 -0.250000000000E+01
  0.839355715080E+01 -0.592592592590E+01 -0.250000000000E+01
  0.600517203128E+02 -0.555555555560E+01  0.202849069391E+01
  0.600525006043E+02 -0.592592592590E+01  0.201957192190E+01
  0.839355715080E+01 -0.592592592590E+01 -0.250000000000E+01
  0.849627947270E+01 -0.629629629630E+01 -0.250000000000E+01
  0.600525006043E+02 -0.592592592590E+01  0.201957192190E+01
  0.600532808957E+02 -0.629629629630E+01  0.201065314990E+01
  0.849627947270E+01 -0.629629629630E+01 -0.250000000000E+01
  0.859900179460E+01 -0.666666666670E+01 -0.250000000000E+01
  0.600532808957E+02 -0.629629629630E+01  0.201065314990E+01
  0.600540611871E+02 -0.666666666670E+01  0.200173437790E+01
  0.859900179460E+01 -0.666666666670E+01 -0.250000000000E+01
  0.870172411650E+01 -0.703703703700E+01 -0.250000000000E+01
  0.600540611871E+02 -0.666666666670E+01  0.200173437790E+01
  0.600548414786E+02 -0.703703703700E+01  0.199281560590E+01
  0.870172411650E+01 -0.703703703700E+01 -0.250000000000E+01
  0.880444643840E+01 -0.740740740740E+01 -0.250000000000E+01
  0.600548414786E+02 -0.703703703700E+01  0.199281560590E+01
  0.600556217700E+02 -0.740740740740E+01  0.198389683390E+01
  0.880444643840E+01 -0.740740740740E+01 -0.250000000000E+01
  0.890716876040E+01 -0.777777777780E+01 -0.250000000000E+01
  0.600556217700E+02 -0.740740740740E+01  0.198389683390E+01
  0.600564020615E+02 -0.777777777780E+01  0.197497806189E+01
  0.890716876040E+01 -0.777777777780E+01 -0.250000000000E+01
  0.900989108230E+01 -0.814814814810E+01 -0.250000000000E+01
  0.600564020615E+02 -0.777777777780E+01  0.197497806189E+01
  0.600571823529E+02 -0.814814814810E+01  0.196605928988E+01
  0.900989108230E+01 -0.814814814810E+01 -0.250000000000E+01
  0.911261340420E+01 -0.851851851850E+01 -0.250000000000E+01
  0.600571823529E+02 -0.814814814810E+01  0.196605928988E+01
  0.600579626444E+02 -0.851851851850E+01  0.195714051788E+01
  0.911261340420E+01 -0.851851851850E+01 -0.250000000000E+01
  0.921533572610E+01 -0.888888888890E+01 -0.250000000000E+01
  0.600579626444E+02 -0.851851851850E+01  0.195714051788E+01
  0.600587429358E+02 -0.888888888890E+01  0.194822174588E+01
  0.921533572610E+01 -0.888888888890E+01 -0.250000000000E+01
  0.931805804810E+01 -0.925925925930E+01 -0.250000000000E+01
  0.600587429358E+02 -0.888888888890E+01  0.194822174588E+01
  0.600595232272E+02 -0.925925925930E+01  0.193930297387E+01
  0.931805804810E+01 -0.925925925930E+01 -0.250000000000E+01
  0.942078037000E+01 -0.962962962960E+01 -0.250000000000E+01
  0.600595232272E+02 -0.925925925930E+01  0.193930297387E+01
  0.600603035187E+02 -0.962962962960E+01  0.193038420187E+01
  0.942078037000E+01 -0.962962962960E+01 -0.250000000000E+01
  0.952350269190E+01 -0.100000000000E+02 -0.250000000000E+01
  0.600589770232E+02 -0.900000000000E+01  0.194554611428E+01
  0.600610838101E+02 -0.100000000000E+02  0.192146542987E+01
POLYGONS                  80                 320
3                   0                   3                   1
3                   0                   2                   3
3                   4                   7                   5
3                   4                   6                   7
3                   8                  11                   9
3                   8                  10                  11
3                  12                  15                  13
3                  12                  14                  15
3                  16                  19                  17
3                  16                  18                  19
3                  20                  23                  21
3                  20                  22                  23
3                  24                  27                  25
3                  24                  26                  27
3                  28                  31                  29
3                  28                  30                  31
3                  32                  35                  33
3                  32                  34                  35
3                  36                  39                  37
3                  36                  38                  39
3                  40                  42                  41
3                  42                  43                  41
3                  44                  46                  45
3                  46                  47                  45
3                  48                  50                  49
3                  50                  51                  49
3                  52                  54                  53
3                  54                  55                  53
3                  56                  58                  57
3                  58                  59                  57
3                  60                  62                  61
3                  62                  63                  61
3                  64                  66                  65
3                  66                  67                  65
3                  68                  70                  69
3                  70                  71                  69
3                  72                  74                  73
3                  74                  75                  73
3                  76                  78                  77
3                  78                  79                  77
3                  80                  83                  81
3                  80                  82                  83
3                  84                  87                  85
3                  84                  86                  87
3                  88                  91                  89
3                  88                  90                  91
3                  92                  95                  93
3                  92                  94                  95
3                  96                  99                  97
3                  96                  98                  99
3                 100                 103                 101
3                 100                 102                 103
3                 104                 107                 105
3                 104                 106                 107
3                 108                 111                 109
3                 108                 110                 111
3                 112                 115                 113
3                 112                 114                 115
3                 116                 119                 117
3                 116                 118                 119
3                 120                 122                 121
3                 122                 123                 121
3                 124                 126                 125
3                 126                 127                 125
3                 128                 130                 129
3                 130                 131                 129
3                 132                 134                 133
3                 134                 135                 133
3                 136                 138                 137
3                 138                 139                 137
3                 140                 142                 141
3                 142                 143                 141
3                 144                 146                 145
3                 146                 147                 145
3                 148                 150                 149
3                 150                 151                 149
3                 152                 154                 153
3                 154                 155                 153
3                 156                 158                 157
3                 158                 159                 157
POINT_DATA                 160
SCALARS mu float 1
LOOKUP_TABLE default
 -0.956387588800E-01
 -0.195112955456E+00
 -0.956387588800E-01
 -0.195112955456E+00
 -0.265315363877E+00
 -0.956387588800E-01
 -0.265315363877E+00
 -0.956387588800E-01
 -0.233728266581E+00
 -0.265315363877E+00
 -0.233728266581E+00
 -0.265315363877E+00
 -0.164021491938E+00
 -0.233728266581E+00
 -0.164021491938E+00
 -0.233728266581E+00
 -0.251721104328E+00
 -0.164021491938E+00
 -0.251721104328E+00
 -0.164021491938E+00
 -0.239951354324E+00
 -0.251721104328E+00
 -0.239951354324E+00
 -0.251721104328E+00
 -0.197262722396E+00
 -0.239951354324E+00
 -0.197262722396E+00
 -0.239951354324E+00
 -0.243340245025E+00
 -0.197262722396E+00
 -0.243340245025E+00
 -0.197262722396E+00
 -0.232702172807E+00
 -0.243340245025E+00
 -0.232702172807E+00
 -0.243340245025E+00
 -0.208404006318E+00
 -0.232702172807E+00
 -0.208404006318E+00
 -0.232702172807E+00
 -0.230396503474E+00
 -0.208404006318E+00
 -0.230396503474E+00
 -0.208404006318E+00
 -0.217948596541E+00
 -0.230396503474E+00
 -0.217948596541E+00
 -0.230396503474E+00
 -0.204435182943E+00
 -0.217948596541E+00
 -0.204435182943E+00
 -0.217948596541E+00
 -0.210981624073E+00
 -0.204435182943E+00
 -0.210981624073E+00
 -0.204435182943E+00
 -0.198369552083E+00
 -0.210981624073E+00
 -0.198369552083E+00
 -0.210981624073E+00
 -0.189876292517E+00
 -0.198369552083E+00
 -0.189876292517E+00
 -0.198369552083E+00
 -0.185862465031E+00
 -0.189876292517E+00
 -0.185862465031E+00
 -0.189876292517E+00
 -0.175650091190E+00
 -0.185862465031E+00
 -0.175650091190E+00
 -0.185862465031E+00
 -0.167313045967E+00
 -0.175650091190E+00
 -0.167313045967E+00
 -0.175650091190E+00
 -0.156683802120E+00
 -0.167313045967E+00
 -0.156683802120E+00
 -0.167313045967E+00
 -0.150838210345E+00
 -0.156683802120E+00
 -0.150838210345E+00
 -0.156683802120E+00
 -0.137337951242E+00
 -0.150838210345E+00
 -0.137337951242E+00
 -0.150838210345E+00
 -0.123743175467E+00
 -0.137337951242E+00
 -0.123743175467E+00
 -0.137337951242E+00
 -0.125991579404E+00
 -0.123743175467E+00
 -0.125991579404E+00
 -0.123743175467E+00
 -0.786068888095E-01
 -0.125991579404E+00
 -0.786068888095E-01
 -0.125991579404E+00
 -0.109239372998E+00
 -0.786068888095E-01
 -0.109239372998E+00
 -0.786068888095E-01
  0.000000000000E+00
 -0.109239372998E+00
  0.000000000000E+00
 -0.109239372998E+00
 -0.195112955456E+00
 -0.956387589064E-01
 -0.195112955456E+00
 -0.956387589064E-01
 -0.956387589064E-01
 -0.265315363949E+00
 -0.956387589064E-01
 -0.265315363949E+00
 -0.265315363949E+00
 -0.233728266718E+00
 -0.265315363949E+00
 -0.233728266718E+00
 -0.233728266718E+00
 -0.164021492163E+00
 -0.233728266718E+00
 -0.164021492163E+00
 -0.164021492163E+00
 -0.251721104658E+00
 -0.164021492163E+00
 -0.251721104658E+00
 -0.251721104658E+00
 -0.239951354754E+00
 -0.251721104658E+00
 -0.239951354754E+00
 -0.239951354754E+00
 -0.197262722901E+00
 -0.239951354754E+00
 -0.197262722901E+00
 -0.197262722901E+00
 -0.243340245569E+00
 -0.197262722901E+00
 -0.243340245569E+00
 -0.243340245569E+00
 -0.232702173364E+00
 -0.243340245569E+00
 -0.232702173364E+00
 -0.232702173364E+00
 -0.208404006880E+00
 -0.232702173364E+00
 -0.208404006880E+00
 -0.208404006880E+00
 -0.230396504048E+00
 -0.208404006880E+00
 -0.230396504048E+00
 -0.230396504048E+00
 -0.217948597143E+00
 -0.230396504048E+00
 -0.217948597143E+00
 -0.217948597143E+00
 -0.204435183590E+00
 -0.217948597143E+00
 -0.204435183590E+00
 -0.204435183590E+00
 -0.210981624817E+00
 -0.204435183590E+00
 -0.210981624817E+00
 -0.210981624817E+00
 -0.198369553065E+00
 -0.210981624817E+00
 -0.198369553065E+00
 -0.198369553065E+00
 -0.189876293845E+00
 -0.198369553065E+00
 -0.189876293845E+00
 -0.189876293845E+00
 -0.185862466784E+00
 -0.189876293845E+00
 -0.185862466784E+00
 -0.185862466784E+00
 -0.175650097512E+00
 -0.185862466784E+00
 -0.175650097512E+00
 -0.175650097512E+00
 -0.167313070880E+00
 -0.175650097512E+00
 -0.167313070880E+00
 -0.167313070880E+00
 -0.156683844453E+00
 -0.167313070880E+00
 -0.156683844453E+00
 -0.156683844453E+00
 -0.150838220291E+00
 -0.156683844453E+00
 -0.150838220291E+00
 -0.150838220291E+00
 -0.137337922422E+00
 -0.150838220291E+00
 -0.137337922422E+00
 -0.137337922422E+00
 -0.123743184317E+00
 -0.137337922422E+00
 -0.123743184317E+00
 -0.123743184317E+00
 -0.125991600583E+00
 -0.123743184317E+00
 -0.125991600583E+00
 -0.125991600583E+00
 -0.786068349309E-01
 -0.125991600583E+00
 -0.786068349309E-01
 -0.786068349309E-01
 -0.109239290547E+00
 -0.786068349309E-01
 -0.109239290547E+00
 -0.109239290547E+00
  0.000000000000E+00
 -0.109239290547E+00
  0.000000000000E+00
  0.434139882803E+00
  0.240992040611E+00
  0.434139882803E+00
  0.240992040611E+00
  0.104651192605E+00
  0.434139882803E+00
  0.104651192605E+00
  0.434139882803E+00
  0.165126485629E+00
  0.104651192605E+00
  0.165126485629E+00
  0.104651192605E+00
  0.291612343726E+00
  0.165126485629E+00
  0.291612343726E+00
  0.165126485629E+00
  0.116448763129E+00
  0.291612343726E+00
  0.116448763129E+00
  0.291612343726E+00
  0.131094169507E+00
  0.116448763129E+00
  0.131094169507E+00
  0.116448763129E+00
  0.199535405099E+00
  0.131094169507E+00
  0.199535405099E+00
  0.131094169507E+00
  0.985744697006E-01
  0.199535405099E+00
  0.985744697006E-01
  0.199535405099E+00
  0.104547852725E+00
  0.985744697006E-01
  0.104547852725E+00
  0.985744697006E-01
  0.133141917596E+00
  0.104547852725E+00
  0.133141917596E+00
  0.104547852725E+00
  0.726169791175E-01
  0.133141917596E+00
  0.726169791175E-01
  0.133141917596E+00
  0.772518369814E-01
  0.726169791175E-01
  0.772518369814E-01
  0.726169791175E-01
  0.818066959588E-01
  0.772518369814E-01
  0.818066959588E-01
  0.772518369814E-01
  0.459580345381E-01
  0.818066959588E-01
  0.459580345381E-01
  0.818066959588E-01
  0.481179391759E-01
  0.459580345381E-01
  0.481179391759E-01
  0.459580345381E-01
  0.403645294859E-01
  0.481179391759E-01
  0.403645294859E-01
  0.481179391759E-01
  0.207402934150E-01
  0.403645294859E-01
  0.207402934150E-01
  0.403645294859E-01
  0.176908153281E-01
  0.207402934150E-01
  0.176908153281E-01
  0.207402934150E-01
  0.659934569815E-02
  0.176908153281E-01
  0.659934569815E-02
  0.176908153281E-01
 -0.327640948136E-02
  0.659934569815E-02
 -0.327640948136E-02
  0.659934569815E-02
 -0.131982196751E-01
 -0.327640948136E-02
 -0.131982196751E-01
 -0.327640948136E-02
 -0.199721255758E-01
 -0.131982196751E-01
 -0.199721255758E-01
 -0.131982196751E-01
 -0.261666429275E-01
 -0.199721255758E-01
 -0.261666429275E-01
 -0.199721255758E-01
 -0.445086586944E-01
 -0.261666429275E-01
 -0.445086586944E-01
 -0.261666429275E-01
 -0.224999781465E-01
 -0.445086586944E-01
 -0.224999781465E-01
 -0.445086586944E-01
 -0.636053459879E-01
 -0.224999781465E-01
 -0.636053459879E-01
 -0.224999781465E-01
  0.000000000000E+00
 -0.636053459879E-01
  0.000000000000E+00
 -0.636053459879E-01
  0.240992040611E+00
  0.434139882837E+00
  0.240992040611E+00
  0.434139882837E+00
  0.434139882837E+00
  0.104651192671E+00
  0.434139882837E+00
  0.104651192671E+00
  0.104651192671E+00
  0.165126485723E+00
  0.104651192671E+00
  0.165126485723E+00
  0.165126485723E+00
  0.291612343845E+00
  0.165126485723E+00
  0.291612343845E+00
  0.291612343845E+00
  0.116448763271E+00
  0.291612343845E+00
  0.116448763271E+00
  0.116448763271E+00
  0.131094169671E+00
  0.116448763271E+00
  0.131094169671E+00
  0.131094169671E+00
  0.199535405282E+00
  0.131094169671E+00
  0.199535405282E+00
  0.199535405282E+00
  0.985744699032E-01
  0.199535405282E+00
  0.985744699032E-01
  0.985744699032E-01
  0.104547852944E+00
  0.985744699032E-01
  0.104547852944E+00
  0.104547852944E+00
  0.133141917824E+00
  0.104547852944E+00
  0.133141917824E+00
  0.133141917824E+00
  0.726169793435E-01
  0.133141917824E+00
  0.726169793435E-01
  0.726169793435E-01
  0.772518371921E-01
  0.726169793435E-01
  0.772518371921E-01
  0.772518371921E-01
  0.818066961396E-01
  0.772518371921E-01
  0.818066961396E-01
  0.818066961396E-01
  0.459580346751E-01
  0.818066961396E-01
  0.459580346751E-01
  0.459580346751E-01
  0.481179392678E-01
  0.459580346751E-01
  0.481179392678E-01
  0.481179392678E-01
  0.403645295635E-01
  0.481179392678E-01
  0.403645295635E-01
  0.403645295635E-01
  0.207402933745E-01
  0.403645295635E-01
  0.207402933745E-01
  0.207402933745E-01
  0.176908144975E-01
  0.207402933745E-01
  0.176908144975E-01
  0.176908144975E-01
  0.659934368252E-02
  0.176908144975E-01
  0.659934368252E-02
  0.659934368252E-02
 -0.327641123229E-02
  0.659934368252E-02
 -0.327641123229E-02
 -0.327641123229E-02
 -0.131982205153E-01
 -0.327641123229E-02
 -0.131982205153E-01
 -0.131982205153E-01
 -0.199721194073E-01
 -0.131982205153E-01
 -0.199721194073E-01
 -0.199721194073E-01
 -0.261666216524E-01
 -0.199721194073E-01
 -0.261666216524E-01
 -0.261666216524E-01
 -0.445086476754E-01
 -0.261666216524E-01
 -0.445086476754E-01
 -0.445086476754E-01
 -0.224999449565E-01
 -0.445086476754E-01
 -0.224999449565E-01
 -0.224999449565E-01
 -0.636053219385E-01
 -0.224999449565E-01
 -0.636053219385E-01
 -0.636053219385E-01
  0.000000000000E+00
 -0.636053219385E-01
  0.000000000000E+00
