# vtk DataFile Version 3.0
MachLine results file. Generated by MachLine, USU AeroLab (c) 2023.
ASCII
DATASET POLYDATA
POINTS                 328 float
  0.403382320355E+01  0.121951219510E+00  0.000000000000E+00
  0.598023233047E+02  0.121951219510E+00  0.487911154070E+01
  0.410146961065E+01  0.365853658535E+00  0.000000000000E+00
  0.598028371552E+02  0.365853658535E+00  0.487323820304E+01
  0.416911601780E+01  0.609756097560E+00  0.000000000000E+00
  0.598033510056E+02  0.609756097560E+00  0.486736486537E+01
  0.423676242495E+01  0.853658536585E+00  0.000000000000E+00
  0.598038648561E+02  0.853658536585E+00  0.486149152771E+01
  0.430440883205E+01  0.109756097560E+01  0.000000000000E+00
  0.598043787066E+02  0.109756097560E+01  0.485561819005E+01
  0.437205523915E+01  0.134146341460E+01  0.000000000000E+00
  0.598048925570E+02  0.134146341460E+01  0.484974485239E+01
  0.443970164625E+01  0.158536585365E+01  0.000000000000E+00
  0.598054064075E+02  0.158536585365E+01  0.484387151473E+01
  0.450734805340E+01  0.182926829270E+01  0.000000000000E+00
  0.598059202579E+02  0.182926829270E+01  0.483799817707E+01
  0.457499446055E+01  0.207317073170E+01  0.000000000000E+00
  0.598064341084E+02  0.207317073170E+01  0.483212483940E+01
  0.464264086765E+01  0.231707317070E+01  0.000000000000E+00
  0.598069479589E+02  0.231707317070E+01  0.482625150174E+01
  0.471028727475E+01  0.256097560975E+01  0.000000000000E+00
  0.598074618093E+02  0.256097560975E+01  0.482037816409E+01
  0.477793368185E+01  0.280487804880E+01  0.000000000000E+00
  0.598079756598E+02  0.280487804880E+01  0.481450482643E+01
  0.484558008900E+01  0.304878048780E+01  0.000000000000E+00
  0.598084895103E+02  0.304878048780E+01  0.480863148876E+01
  0.491322649615E+01  0.329268292680E+01  0.000000000000E+00
  0.598090033607E+02  0.329268292680E+01  0.480275815110E+01
  0.498087290325E+01  0.353658536585E+01  0.000000000000E+00
  0.598095172112E+02  0.353658536585E+01  0.479688481344E+01
  0.504851931035E+01  0.378048780490E+01  0.000000000000E+00
  0.598100310616E+02  0.378048780490E+01  0.479101147578E+01
  0.511616571745E+01  0.402439024390E+01  0.000000000000E+00
  0.598105449121E+02  0.402439024390E+01  0.478513813812E+01
  0.518381212455E+01  0.426829268290E+01  0.000000000000E+00
  0.598110587626E+02  0.426829268290E+01  0.477926480046E+01
  0.525145853170E+01  0.451219512195E+01  0.000000000000E+00
  0.598115726130E+02  0.451219512195E+01  0.477339146280E+01
  0.531910493885E+01  0.475609756100E+01  0.000000000000E+00
  0.598120864635E+02  0.475609756100E+01  0.476751812513E+01
  0.538675134595E+01  0.500000000000E+01  0.000000000000E+00
  0.598126003140E+02  0.500000000000E+01  0.476164478747E+01
  0.545439775305E+01  0.524390243900E+01  0.000000000000E+00
  0.598131141644E+02  0.524390243900E+01  0.475577144982E+01
  0.552204416015E+01  0.548780487805E+01  0.000000000000E+00
  0.598136280149E+02  0.548780487805E+01  0.474989811216E+01
  0.558969056730E+01  0.573170731710E+01  0.000000000000E+00
  0.598141418653E+02  0.573170731710E+01  0.474402477449E+01
  0.565733697445E+01  0.597560975610E+01  0.000000000000E+00
  0.598146557158E+02  0.597560975610E+01  0.473815143683E+01
  0.572498338155E+01  0.621951219510E+01  0.000000000000E+00
  0.598151695663E+02  0.621951219510E+01  0.473227809917E+01
  0.579262978865E+01  0.646341463415E+01  0.000000000000E+00
  0.598156834167E+02  0.646341463415E+01  0.472640476151E+01
  0.586027619575E+01  0.670731707320E+01  0.000000000000E+00
  0.598161972672E+02  0.670731707320E+01  0.472053142385E+01
  0.592792260290E+01  0.695121951220E+01  0.000000000000E+00
  0.598167111177E+02  0.695121951220E+01  0.471465808619E+01
  0.599556901005E+01  0.719512195120E+01  0.000000000000E+00
  0.598172249681E+02  0.719512195120E+01  0.470878474852E+01
  0.606321541715E+01  0.743902439025E+01  0.000000000000E+00
  0.598177388186E+02  0.743902439025E+01  0.470291141086E+01
  0.613086182425E+01  0.768292682930E+01  0.000000000000E+00
  0.598182526690E+02  0.768292682930E+01  0.469703807321E+01
  0.619850823135E+01  0.792682926830E+01  0.000000000000E+00
  0.598187665195E+02  0.792682926830E+01  0.469116473555E+01
  0.626615463850E+01  0.817073170730E+01  0.000000000000E+00
  0.598192803700E+02  0.817073170730E+01  0.468529139788E+01
  0.633380104565E+01  0.841463414635E+01  0.000000000000E+00
  0.598197942204E+02  0.841463414635E+01  0.467941806022E+01
  0.640144745275E+01  0.865853658540E+01  0.000000000000E+00
  0.598203080709E+02  0.865853658540E+01  0.467354472256E+01
  0.646909385985E+01  0.890243902440E+01  0.000000000000E+00
  0.598208219214E+02  0.890243902440E+01  0.466767138490E+01
  0.653674026695E+01  0.914634146340E+01  0.000000000000E+00
  0.598213357718E+02  0.914634146340E+01  0.466179804724E+01
  0.660438667410E+01  0.939024390245E+01  0.000000000000E+00
  0.598218496223E+02  0.939024390245E+01  0.465592470958E+01
  0.667203308125E+01  0.963414634150E+01  0.000000000000E+00
  0.598223634727E+02  0.963414634150E+01  0.465005137191E+01
  0.673967948835E+01  0.987804878050E+01  0.000000000000E+00
  0.598228773232E+02  0.987804878050E+01  0.464417803425E+01
  0.403382320355E+01 -0.121951219510E+00  0.000000000000E+00
  0.598023233047E+02 -0.121951219510E+00  0.487911154070E+01
  0.410146961065E+01 -0.365853658535E+00  0.000000000000E+00
  0.598028371552E+02 -0.365853658535E+00  0.487323820304E+01
  0.416911601780E+01 -0.609756097560E+00  0.000000000000E+00
  0.598033510056E+02 -0.609756097560E+00  0.486736486537E+01
  0.423676242495E+01 -0.853658536585E+00  0.000000000000E+00
  0.598038648561E+02 -0.853658536585E+00  0.486149152771E+01
  0.430440883205E+01 -0.109756097560E+01  0.000000000000E+00
  0.598043787066E+02 -0.109756097560E+01  0.485561819005E+01
  0.437205523915E+01 -0.134146341460E+01  0.000000000000E+00
  0.598048925570E+02 -0.134146341460E+01  0.484974485239E+01
  0.443970164625E+01 -0.158536585365E+01  0.000000000000E+00
  0.598054064075E+02 -0.158536585365E+01  0.484387151473E+01
  0.450734805340E+01 -0.182926829270E+01  0.000000000000E+00
  0.598059202579E+02 -0.182926829270E+01  0.483799817707E+01
  0.457499446055E+01 -0.207317073170E+01  0.000000000000E+00
  0.598064341084E+02 -0.207317073170E+01  0.483212483940E+01
  0.464264086765E+01 -0.231707317070E+01  0.000000000000E+00
  0.598069479589E+02 -0.231707317070E+01  0.482625150174E+01
  0.471028727475E+01 -0.256097560975E+01  0.000000000000E+00
  0.598074618093E+02 -0.256097560975E+01  0.482037816409E+01
  0.477793368185E+01 -0.280487804880E+01  0.000000000000E+00
  0.598079756598E+02 -0.280487804880E+01  0.481450482643E+01
  0.484558008900E+01 -0.304878048780E+01  0.000000000000E+00
  0.598084895103E+02 -0.304878048780E+01  0.480863148876E+01
  0.491322649615E+01 -0.329268292680E+01  0.000000000000E+00
  0.598090033607E+02 -0.329268292680E+01  0.480275815110E+01
  0.498087290325E+01 -0.353658536585E+01  0.000000000000E+00
  0.598095172112E+02 -0.353658536585E+01  0.479688481344E+01
  0.504851931035E+01 -0.378048780490E+01  0.000000000000E+00
  0.598100310616E+02 -0.378048780490E+01  0.479101147578E+01
  0.511616571745E+01 -0.402439024390E+01  0.000000000000E+00
  0.598105449121E+02 -0.402439024390E+01  0.478513813812E+01
  0.518381212455E+01 -0.426829268290E+01  0.000000000000E+00
  0.598110587626E+02 -0.426829268290E+01  0.477926480046E+01
  0.525145853170E+01 -0.451219512195E+01  0.000000000000E+00
  0.598115726130E+02 -0.451219512195E+01  0.477339146280E+01
  0.531910493885E+01 -0.475609756100E+01  0.000000000000E+00
  0.598120864635E+02 -0.475609756100E+01  0.476751812513E+01
  0.538675134595E+01 -0.500000000000E+01  0.000000000000E+00
  0.598126003140E+02 -0.500000000000E+01  0.476164478747E+01
  0.545439775305E+01 -0.524390243900E+01  0.000000000000E+00
  0.598131141644E+02 -0.524390243900E+01  0.475577144982E+01
  0.552204416015E+01 -0.548780487805E+01  0.000000000000E+00
  0.598136280149E+02 -0.548780487805E+01  0.474989811216E+01
  0.558969056730E+01 -0.573170731710E+01  0.000000000000E+00
  0.598141418653E+02 -0.573170731710E+01  0.474402477449E+01
  0.565733697445E+01 -0.597560975610E+01  0.000000000000E+00
  0.598146557158E+02 -0.597560975610E+01  0.473815143683E+01
  0.572498338155E+01 -0.621951219510E+01  0.000000000000E+00
  0.598151695663E+02 -0.621951219510E+01  0.473227809917E+01
  0.579262978865E+01 -0.646341463415E+01  0.000000000000E+00
  0.598156834167E+02 -0.646341463415E+01  0.472640476151E+01
  0.586027619575E+01 -0.670731707320E+01  0.000000000000E+00
  0.598161972672E+02 -0.670731707320E+01  0.472053142385E+01
  0.592792260290E+01 -0.695121951220E+01  0.000000000000E+00
  0.598167111177E+02 -0.695121951220E+01  0.471465808619E+01
  0.599556901005E+01 -0.719512195120E+01  0.000000000000E+00
  0.598172249681E+02 -0.719512195120E+01  0.470878474852E+01
  0.606321541715E+01 -0.743902439025E+01  0.000000000000E+00
  0.598177388186E+02 -0.743902439025E+01  0.470291141086E+01
  0.613086182425E+01 -0.768292682930E+01  0.000000000000E+00
  0.598182526690E+02 -0.768292682930E+01  0.469703807321E+01
  0.619850823135E+01 -0.792682926830E+01  0.000000000000E+00
  0.598187665195E+02 -0.792682926830E+01  0.469116473555E+01
  0.626615463850E+01 -0.817073170730E+01  0.000000000000E+00
  0.598192803700E+02 -0.817073170730E+01  0.468529139788E+01
  0.633380104565E+01 -0.841463414635E+01  0.000000000000E+00
  0.598197942204E+02 -0.841463414635E+01  0.467941806022E+01
  0.640144745275E+01 -0.865853658540E+01  0.000000000000E+00
  0.598203080709E+02 -0.865853658540E+01  0.467354472256E+01
  0.646909385985E+01 -0.890243902440E+01  0.000000000000E+00
  0.598208219214E+02 -0.890243902440E+01  0.466767138490E+01
  0.653674026695E+01 -0.914634146340E+01  0.000000000000E+00
  0.598213357718E+02 -0.914634146340E+01  0.466179804724E+01
  0.660438667410E+01 -0.939024390245E+01  0.000000000000E+00
  0.598218496223E+02 -0.939024390245E+01  0.465592470958E+01
  0.667203308125E+01 -0.963414634150E+01  0.000000000000E+00
[...]
POINT_DATA                 328
SCALARS Gamma float 1
LOOKUP_TABLE default
 -0.407583994797E-02
 -0.407583994797E-02
 -0.445438912113E-02
 -0.445438912113E-02
 -0.394817523596E-02
 -0.394817523596E-02
 -0.428862551075E-02
 -0.428862551075E-02
 -0.220923179842E-02
 -0.220923179842E-02
 -0.629352145847E-03
 -0.629352145847E-03
 -0.102935698378E-02
 -0.102935698378E-02
  0.950379780664E-03
  0.950379780664E-03
  0.166933782869E-02
  0.166933782869E-02
  0.230881850651E-02
  0.230881850651E-02
  0.230604151772E-02
  0.230604151772E-02
  0.279799826709E-02
  0.279799826709E-02
  0.533999141410E-02
  0.533999141410E-02
  0.740907759115E-02
  0.740907759115E-02
  0.103450351340E-01
  0.103450351340E-01
  0.100400682444E-01
  0.100400682444E-01
  0.108779016723E-01
  0.108779016723E-01
  0.100701826758E-01
  0.100701826758E-01
  0.856060817215E-02
  0.856060817215E-02
  0.839001803979E-02
  0.839001803979E-02
  0.902747565941E-02
  0.902747565941E-02
  0.971345528442E-02
  0.971345528442E-02
  0.955181331229E-02
  0.955181331229E-02
  0.104197835308E-01
  0.104197835308E-01
  0.898976345393E-02
  0.898976345393E-02
  0.117500572621E-01
  0.117500572621E-01
  0.971933294593E-02
  0.971933294593E-02
  0.115387315786E-01
  0.115387315786E-01
  0.924613676073E-02
  0.924613676073E-02
  0.116576249737E-01
  0.116576249737E-01
  0.807344801271E-02
  0.807344801271E-02
  0.106583699305E-01
  0.106583699305E-01
  0.974076204535E-02
  0.974076204535E-02
  0.105791124289E-01
  0.105791124289E-01
  0.108297080416E-01
  0.108297080416E-01
  0.986710965549E-02
  0.986710965549E-02
  0.120312465361E-01
  0.120312465361E-01
  0.933004262494E-02
  0.933004262494E-02
  0.216730509714E-01
  0.216730509714E-01
  0.182019532537E-01
  0.182019532537E-01
  0.123548580546E+00
  0.123548580546E+00
  0.407583994794E-02
  0.407583994794E-02
  0.445438912111E-02
  0.445438912111E-02
  0.394817523594E-02
  0.394817523594E-02
  0.428862551073E-02
  0.428862551073E-02
  0.220923179845E-02
  0.220923179845E-02
  0.629352145878E-03
  0.629352145878E-03
  0.102935698378E-02
  0.102935698378E-02
 -0.950379780624E-03
 -0.950379780624E-03
 -0.166933782857E-02
 -0.166933782857E-02
 -0.230881850663E-02
 -0.230881850663E-02
 -0.230604151782E-02
 -0.230604151782E-02
 -0.279799826697E-02
 -0.279799826697E-02
 -0.533999141416E-02
 -0.533999141416E-02
 -0.740907759076E-02
 -0.740907759076E-02
 -0.103450351345E-01
 -0.103450351345E-01
 -0.100400682442E-01
 -0.100400682442E-01
 -0.108779016717E-01
 -0.108779016717E-01
 -0.100701826768E-01
 -0.100701826768E-01
 -0.856060817205E-02
 -0.856060817205E-02
 -0.839001803994E-02
 -0.839001803994E-02
 -0.902747565937E-02
 -0.902747565937E-02
 -0.971345528555E-02
 -0.971345528555E-02
 -0.955181330971E-02
 -0.955181330971E-02
 -0.104197835319E-01
 -0.104197835319E-01
 -0.898976345494E-02
 -0.898976345494E-02
 -0.117500572614E-01
 -0.117500572614E-01
 -0.971933294642E-02
 -0.971933294642E-02
 -0.115387315801E-01
 -0.115387315801E-01
 -0.924613675890E-02
 -0.924613675890E-02
 -0.116576249755E-01
 -0.116576249755E-01
 -0.807344801100E-02
 -0.807344801100E-02
 -0.106583699357E-01
 -0.106583699357E-01
 -0.974076204009E-02
 -0.974076204009E-02
 -0.105791124154E-01
 -0.105791124154E-01
 -0.108297080746E-01
 -0.108297080746E-01
 -0.986710952576E-02
 -0.986710952576E-02
 -0.120312461205E-01
 -0.120312461205E-01
 -0.933004305286E-02
 -0.933004305286E-02
 -0.216730503711E-01
 -0.216730503711E-01
 -0.182019541532E-01
 -0.182019541532E-01
 -0.123548580344E+00
 -0.123548580344E+00
  0.470814326052E-03
  0.470814326052E-03
 -0.294661537072E-02
 -0.294661537072E-02
 -0.303024649451E-02
 -0.303024649451E-02
  0.618632923817E-03
  0.618632923817E-03
 -0.245721566258E-02
 -0.245721566258E-02
  0.189596992667E-02
  0.189596992667E-02
 -0.252686634718E-02
 -0.252686634718E-02
  0.336422212520E-02
  0.336422212520E-02
 -0.163452430075E-02
 -0.163452430075E-02
 -0.196825224153E-02
 -0.196825224153E-02
  0.427862752651E-02
  0.427862752651E-02
 -0.185323460941E-02
 -0.185323460941E-02
  0.103854790888E-01
  0.103854790888E-01
  0.107656004410E-01
  0.107656004410E-01
  0.174396269928E-01
  0.174396269928E-01
  0.165503545893E-01
  0.165503545893E-01
  0.171915596057E-01
  0.171915596057E-01
  0.712741533810E-02
  0.712741533810E-02
  0.145652563829E-01
  0.145652563829E-01
  0.293372413919E-02
  0.293372413919E-02
  0.981273264062E-02
  0.981273264062E-02
  0.526426633586E-02
  0.526426633586E-02
  0.652032401653E-02
  0.652032401653E-02
  0.475986635805E-02
  0.475986635805E-02
 -0.441010945626E-02
 -0.441010945626E-02
  0.939449830679E-02
  0.939449830679E-02
 -0.536317397140E-02
 -0.536317397140E-02
 -0.496010683919E-02
 -0.496010683919E-02
  0.282939535434E-02
  0.282939535434E-02
 -0.374064470945E-02
 -0.374064470945E-02
  0.333236019012E-02
  0.333236019012E-02
 -0.814798280096E-02
 -0.814798280096E-02
  0.159636478816E-02
  0.159636478816E-02
 -0.131788514693E-01
 -0.131788514693E-01
  0.148540332614E-01
  0.148540332614E-01
 -0.460031343204E-01
 -0.460031343204E-01
 -0.296751788332E-01
 -0.296751788332E-01
 -0.383633679662E-01
 -0.383633679662E-01
 -0.201457042490E-01
 -0.201457042490E-01
  0.749649019067E-02
  0.749649019067E-02
  0.123612983438E+00
  0.123612983438E+00
 -0.470814326069E-03
 -0.470814326069E-03
  0.294661537116E-02
  0.294661537116E-02
  0.303024649394E-02
  0.303024649394E-02
 -0.618632923483E-03
 -0.618632923483E-03
  0.245721566290E-02
  0.245721566290E-02
 -0.189596992740E-02
 -0.189596992740E-02
  0.252686634933E-02
  0.252686634933E-02
 -0.336422212970E-02
 -0.336422212970E-02
  0.163452430105E-02
  0.163452430105E-02
  0.196825225897E-02
  0.196825225897E-02
 -0.427862754401E-02
 -0.427862754401E-02
  0.185323461231E-02
  0.185323461231E-02
 -0.103854790733E-01
 -0.103854790733E-01
 -0.107656004493E-01
 -0.107656004493E-01
 -0.174396270046E-01
 -0.174396270046E-01
 -0.165503546267E-01
 -0.165503546267E-01
 -0.171915595741E-01
 -0.171915595741E-01
 -0.712741532886E-02
 -0.712741532886E-02
 -0.145652563745E-01
 -0.145652563745E-01
 -0.293372413719E-02
 -0.293372413719E-02
 -0.981273257846E-02
 -0.981273257846E-02
 -0.526426639255E-02
 -0.526426639255E-02
 -0.652032398054E-02
 -0.652032398054E-02
 -0.475986618993E-02
 -0.475986618993E-02
  0.441010919624E-02
  0.441010919624E-02
 -0.939449819029E-02
 -0.939449819029E-02
  0.536317435374E-02
  0.536317435374E-02
  0.496010686157E-02
  0.496010686157E-02
 -0.282939410277E-02
 -0.282939410277E-02
  0.374064236125E-02
  0.374064236125E-02
 -0.333235843775E-02
 -0.333235843775E-02
  0.814797595625E-02
  0.814797595625E-02
 -0.159635632241E-02
 -0.159635632241E-02
  0.131788530645E-01
  0.131788530645E-01
 -0.148540415554E-01
 -0.148540415554E-01
  0.460031347506E-01
  0.460031347506E-01
  0.296751832686E-01
  0.296751832686E-01
  0.383633655633E-01
  0.383633655633E-01
  0.201457003981E-01
  0.201457003981E-01
 -0.749648676797E-02
 -0.749648676797E-02
 -0.123612981531E+00
 -0.123612981531E+00
