# vtk DataFile Version 3.0
MachLine results file. Generated by MachLine, USU AeroLab (c) 2023.
ASCII
DATASET POLYDATA
POINTS                 352 float
  0.403151707605E+01  0.113636363635E+00  0.000000000000E+00
  0.598023057871E+02  0.113636363635E+00  0.487931176811E+01
  0.409455122815E+01  0.340909090910E+00  0.000000000000E+00
  0.598027846023E+02  0.340909090910E+00  0.487383888529E+01
  0.415758538025E+01  0.568181818185E+00  0.000000000000E+00
  0.598032634175E+02  0.568181818185E+00  0.486836600247E+01
  0.422061953235E+01  0.795454545455E+00  0.000000000000E+00
  0.598037422327E+02  0.795454545455E+00  0.486289311965E+01
  0.428365368440E+01  0.102272727275E+01  0.000000000000E+00
  0.598042210479E+02  0.102272727275E+01  0.485742023683E+01
  0.434668783645E+01  0.125000000000E+01  0.000000000000E+00
  0.598046998631E+02  0.125000000000E+01  0.485194735402E+01
  0.440972198855E+01  0.147727272725E+01  0.000000000000E+00
  0.598051786783E+02  0.147727272725E+01  0.484647447119E+01
  0.447275614065E+01  0.170454545455E+01  0.000000000000E+00
  0.598056574935E+02  0.170454545455E+01  0.484100158837E+01
  0.453579029275E+01  0.193181818185E+01  0.000000000000E+00
  0.598061363087E+02  0.193181818185E+01  0.483552870555E+01
  0.459882444485E+01  0.215909090910E+01  0.000000000000E+00
  0.598066151239E+02  0.215909090910E+01  0.483005582273E+01
  0.466185859695E+01  0.238636363635E+01  0.000000000000E+00
  0.598070939391E+02  0.238636363635E+01  0.482458293991E+01
  0.472489274905E+01  0.261363636365E+01  0.000000000000E+00
  0.598075727543E+02  0.261363636365E+01  0.481911005709E+01
  0.478792690115E+01  0.284090909090E+01  0.000000000000E+00
  0.598080515695E+02  0.284090909090E+01  0.481363717427E+01
  0.485096105320E+01  0.306818181815E+01  0.000000000000E+00
  0.598085303847E+02  0.306818181815E+01  0.480816429145E+01
  0.491399520525E+01  0.329545454545E+01  0.000000000000E+00
  0.598090091999E+02  0.329545454545E+01  0.480269140863E+01
  0.497702935735E+01  0.352272727275E+01  0.000000000000E+00
  0.598094880151E+02  0.352272727275E+01  0.479721852581E+01
  0.504006350945E+01  0.375000000000E+01  0.000000000000E+00
  0.598099668303E+02  0.375000000000E+01  0.479174564299E+01
  0.510309766155E+01  0.397727272725E+01  0.000000000000E+00
  0.598104456455E+02  0.397727272725E+01  0.478627276017E+01
  0.516613181365E+01  0.420454545455E+01  0.000000000000E+00
  0.598109244607E+02  0.420454545455E+01  0.478079987735E+01
  0.522916596575E+01  0.443181818185E+01  0.000000000000E+00
  0.598114032760E+02  0.443181818185E+01  0.477532699452E+01
  0.529220011785E+01  0.465909090910E+01  0.000000000000E+00
  0.598118820912E+02  0.465909090910E+01  0.476985411170E+01
  0.535523426990E+01  0.488636363635E+01  0.000000000000E+00
  0.598123609064E+02  0.488636363635E+01  0.476438122889E+01
  0.541826842195E+01  0.511363636365E+01  0.000000000000E+00
  0.598128397216E+02  0.511363636365E+01  0.475890834607E+01
  0.548130257405E+01  0.534090909090E+01  0.000000000000E+00
  0.598133185368E+02  0.534090909090E+01  0.475343546325E+01
  0.554433672615E+01  0.556818181815E+01  0.000000000000E+00
  0.598137973520E+02  0.556818181815E+01  0.474796258043E+01
  0.560737087825E+01  0.579545454545E+01  0.000000000000E+00
  0.598142761672E+02  0.579545454545E+01  0.474248969760E+01
  0.567040503035E+01  0.602272727275E+01  0.000000000000E+00
  0.598147549824E+02  0.602272727275E+01  0.473701681478E+01
  0.573343918245E+01  0.625000000000E+01  0.000000000000E+00
  0.598152337976E+02  0.625000000000E+01  0.473154393196E+01
  0.579647333455E+01  0.647727272725E+01  0.000000000000E+00
  0.598157126128E+02  0.647727272725E+01  0.472607104914E+01
  0.585950748665E+01  0.670454545455E+01  0.000000000000E+00
  0.598161914280E+02  0.670454545455E+01  0.472059816632E+01
  0.592254163870E+01  0.693181818185E+01  0.000000000000E+00
  0.598166702432E+02  0.693181818185E+01  0.471512528350E+01
  0.598557579075E+01  0.715909090910E+01  0.000000000000E+00
  0.598171490584E+02  0.715909090910E+01  0.470965240068E+01
  0.604860994285E+01  0.738636363635E+01  0.000000000000E+00
  0.598176278736E+02  0.738636363635E+01  0.470417951786E+01
  0.611164409495E+01  0.761363636365E+01  0.000000000000E+00
  0.598181066888E+02  0.761363636365E+01  0.469870663504E+01
  0.617467824705E+01  0.784090909090E+01  0.000000000000E+00
  0.598185855040E+02  0.784090909090E+01  0.469323375222E+01
  0.623771239915E+01  0.806818181815E+01  0.000000000000E+00
  0.598190643192E+02  0.806818181815E+01  0.468776086940E+01
  0.630074655125E+01  0.829545454545E+01  0.000000000000E+00
  0.598195431344E+02  0.829545454545E+01  0.468228798658E+01
  0.636378070335E+01  0.852272727275E+01  0.000000000000E+00
  0.598200219496E+02  0.852272727275E+01  0.467681510376E+01
  0.642681485545E+01  0.875000000000E+01  0.000000000000E+00
  0.598205007648E+02  0.875000000000E+01  0.467134222093E+01
  0.648984900750E+01  0.897727272725E+01  0.000000000000E+00
  0.598209795800E+02  0.897727272725E+01  0.466586933812E+01
  0.655288315955E+01  0.920454545455E+01  0.000000000000E+00
  0.598214583952E+02  0.920454545455E+01  0.466039645530E+01
  0.661591731165E+01  0.943181818185E+01  0.000000000000E+00
  0.598219372104E+02  0.943181818185E+01  0.465492357248E+01
  0.667895146375E+01  0.965909090910E+01  0.000000000000E+00
  0.598224160256E+02  0.965909090910E+01  0.464945068966E+01
  0.674198561585E+01  0.988636363635E+01  0.000000000000E+00
  0.598228948408E+02  0.988636363635E+01  0.464397780683E+01
  0.403151707605E+01 -0.113636363635E+00  0.000000000000E+00
  0.598023057871E+02 -0.113636363635E+00  0.487931176811E+01
  0.409455122815E+01 -0.340909090910E+00  0.000000000000E+00
  0.598027846023E+02 -0.340909090910E+00  0.487383888529E+01
  0.415758538025E+01 -0.568181818185E+00  0.000000000000E+00
  0.598032634175E+02 -0.568181818185E+00  0.486836600247E+01
  0.422061953235E+01 -0.795454545455E+00  0.000000000000E+00
  0.598037422327E+02 -0.795454545455E+00  0.486289311965E+01
  0.428365368440E+01 -0.102272727275E+01  0.000000000000E+00
  0.598042210479E+02 -0.102272727275E+01  0.485742023683E+01
  0.434668783645E+01 -0.125000000000E+01  0.000000000000E+00
  0.598046998631E+02 -0.125000000000E+01  0.485194735402E+01
  0.440972198855E+01 -0.147727272725E+01  0.000000000000E+00
  0.598051786783E+02 -0.147727272725E+01  0.484647447119E+01
  0.447275614065E+01 -0.170454545455E+01  0.000000000000E+00
  0.598056574935E+02 -0.170454545455E+01  0.484100158837E+01
  0.453579029275E+01 -0.193181818185E+01  0.000000000000E+00
  0.598061363087E+02 -0.193181818185E+01  0.483552870555E+01
  0.459882444485E+01 -0.215909090910E+01  0.000000000000E+00
  0.598066151239E+02 -0.215909090910E+01  0.483005582273E+01
  0.466185859695E+01 -0.238636363635E+01  0.000000000000E+00
  0.598070939391E+02 -0.238636363635E+01  0.482458293991E+01
  0.472489274905E+01 -0.261363636365E+01  0.000000000000E+00
  0.598075727543E+02 -0.261363636365E+01  0.481911005709E+01
  0.478792690115E+01 -0.284090909090E+01  0.000000000000E+00
  0.598080515695E+02 -0.284090909090E+01  0.481363717427E+01
  0.485096105320E+01 -0.306818181815E+01  0.000000000000E+00
  0.598085303847E+02 -0.306818181815E+01  0.480816429145E+01
  0.491399520525E+01 -0.329545454545E+01  0.000000000000E+00
  0.598090091999E+02 -0.329545454545E+01  0.480269140863E+01
  0.497702935735E+01 -0.352272727275E+01  0.000000000000E+00
  0.598094880151E+02 -0.352272727275E+01  0.479721852581E+01
  0.504006350945E+01 -0.375000000000E+01  0.000000000000E+00
  0.598099668303E+02 -0.375000000000E+01  0.479174564299E+01
  0.510309766155E+01 -0.397727272725E+01  0.000000000000E+00
  0.598104456455E+02 -0.397727272725E+01  0.478627276017E+01
  0.516613181365E+01 -0.420454545455E+01  0.000000000000E+00
  0.598109244607E+02 -0.420454545455E+01  0.478079987735E+01
  0.522916596575E+01 -0.443181818185E+01  0.000000000000E+00
  0.598114032760E+02 -0.443181818185E+01  0.477532699452E+01
  0.529220011785E+01 -0.465909090910E+01  0.000000000000E+00
  0.598118820912E+02 -0.465909090910E+01  0.476985411170E+01
  0.535523426990E+01 -0.488636363635E+01  0.000000000000E+00
  0.598123609064E+02 -0.488636363635E+01  0.476438122889E+01
  0.541826842195E+01 -0.511363636365E+01  0.000000000000E+00
  0.598128397216E+02 -0.511363636365E+01  0.475890834607E+01
  0.548130257405E+01 -0.534090909090E+01  0.000000000000E+00
  0.598133185368E+02 -0.534090909090E+01  0.475343546325E+01
  0.554433672615E+01 -0.556818181815E+01  0.000000000000E+00
  0.598137973520E+02 -0.556818181815E+01  0.474796258043E+01
  0.560737087825E+01 -0.579545454545E+01  0.000000000000E+00
  0.598142761672E+02 -0.579545454545E+01  0.474248969760E+01
  0.567040503035E+01 -0.602272727275E+01  0.000000000000E+00
  0.598147549824E+02 -0.602272727275E+01  0.473701681478E+01
  0.573343918245E+01 -0.625000000000E+01  0.000000000000E+00
  0.598152337976E+02 -0.625000000000E+01  0.473154393196E+01
  0.579647333455E+01 -0.647727272725E+01  0.000000000000E+00
  0.598157126128E+02 -0.647727272725E+01  0.472607104914E+01
  0.585950748665E+01 -0.670454545455E+01  0.000000000000E+00
  0.598161914280E+02 -0.670454545455E+01  0.472059816632E+01
  0.592254163870E+01 -0.693181818185E+01  0.000000000000E+00
  0.598166702432E+02 -0.693181818185E+01  0.471512528350E+01
  0.598557579075E+01 -0.715909090910E+01  0.000000000000E+00
  0.598171490584E+02 -0.715909090910E+01  0.470965240068E+01
  0.604860994285E+01 -0.738636363635E+01  0.000000000000E+00
  0.598176278736E+02 -0.738636363635E+01  0.470417951786E+01
  0.611164409495E+01 -0.761363636365E+01  0.000000000000E+00
  0.598181066888E+02 -0.761363636365E+01  0.469870663504E+01
  0.617467824705E+01 -0.784090909090E+01  0.000000000000E+00
  0.598185855040E+02 -0.784090909090E+01  0.469323375222E+01
  0.623771239915E+01 -0.806818181815E+01  0.000000000000E+00
  0.598190643192E+02 -0.806818181815E+01  0.468776086940E+01
  0.630074655125E+01 -0.829545454545E+01  0.000000000000E+00
[...]
POINT_DATA                 352
SCALARS Gamma float 1
LOOKUP_TABLE default
 -0.423532420798E-02
 -0.423532420798E-02
 -0.379184229194E-02
 -0.379184229194E-02
 -0.169340299624E-02
 -0.169340299624E-02
 -0.424158850578E-02
 -0.424158850578E-02
 -0.229194224894E-02
 -0.229194224894E-02
 -0.125114877168E-02
 -0.125114877168E-02
  0.108330856012E-03
  0.108330856012E-03
  0.993143769429E-04
  0.993143769429E-04
  0.113460430523E-02
  0.113460430523E-02
  0.972859512774E-03
  0.972859512774E-03
  0.269326831909E-02
  0.269326831909E-02
  0.131539146666E-02
  0.131539146666E-02
  0.300890100307E-02
  0.300890100307E-02
  0.525037510327E-02
  0.525037510327E-02
  0.825728748303E-02
  0.825728748303E-02
  0.935689888741E-02
  0.935689888741E-02
  0.972745644106E-02
  0.972745644106E-02
  0.921595472201E-02
  0.921595472201E-02
  0.979766125523E-02
  0.979766125523E-02
  0.884139127061E-02
  0.884139127061E-02
  0.819117903127E-02
  0.819117903127E-02
  0.746326215518E-02
  0.746326215518E-02
  0.889704516423E-02
  0.889704516423E-02
  0.983921879023E-02
  0.983921879023E-02
  0.898928745225E-02
  0.898928745225E-02
  0.946695003020E-02
  0.946695003020E-02
  0.101253386823E-01
  0.101253386823E-01
  0.881969414181E-02
  0.881969414181E-02
  0.104761960106E-01
  0.104761960106E-01
  0.980317787305E-02
  0.980317787305E-02
  0.958013771936E-02
  0.958013771936E-02
  0.896381843292E-02
  0.896381843292E-02
  0.866448313338E-02
  0.866448313338E-02
  0.899377800581E-02
  0.899377800581E-02
  0.102444774894E-01
  0.102444774894E-01
  0.952227357719E-02
  0.952227357719E-02
  0.940882067907E-02
  0.940882067907E-02
  0.958153269838E-02
  0.958153269838E-02
  0.843572946642E-02
  0.843572946642E-02
  0.118353092787E-01
  0.118353092787E-01
  0.807132538556E-02
  0.807132538556E-02
  0.215962093366E-01
  0.215962093366E-01
  0.204071679300E-01
  0.204071679300E-01
  0.119286588066E+00
  0.119286588066E+00
  0.423532420796E-02
  0.423532420796E-02
  0.379184229195E-02
  0.379184229195E-02
  0.169340299624E-02
  0.169340299624E-02
  0.424158850579E-02
  0.424158850579E-02
  0.229194224897E-02
  0.229194224897E-02
  0.125114877169E-02
  0.125114877169E-02
 -0.108330856093E-03
 -0.108330856093E-03
 -0.993143769005E-04
 -0.993143769005E-04
 -0.113460430519E-02
 -0.113460430519E-02
 -0.972859512816E-03
 -0.972859512816E-03
 -0.269326831914E-02
 -0.269326831914E-02
 -0.131539146686E-02
 -0.131539146686E-02
 -0.300890100227E-02
 -0.300890100227E-02
 -0.525037510398E-02
 -0.525037510398E-02
 -0.825728748330E-02
 -0.825728748330E-02
 -0.935689888747E-02
 -0.935689888747E-02
 -0.972745644005E-02
 -0.972745644005E-02
 -0.921595472072E-02
 -0.921595472072E-02
 -0.979766125764E-02
 -0.979766125764E-02
 -0.884139126855E-02
 -0.884139126855E-02
 -0.819117903321E-02
 -0.819117903321E-02
 -0.746326215266E-02
 -0.746326215266E-02
 -0.889704516396E-02
 -0.889704516396E-02
 -0.983921879358E-02
 -0.983921879358E-02
 -0.898928745318E-02
 -0.898928745318E-02
 -0.946695002290E-02
 -0.946695002290E-02
 -0.101253386888E-01
 -0.101253386888E-01
 -0.881969414009E-02
 -0.881969414009E-02
 -0.104761960166E-01
 -0.104761960166E-01
 -0.980317787906E-02
 -0.980317787906E-02
 -0.958013770626E-02
 -0.958013770626E-02
 -0.896381842711E-02
 -0.896381842711E-02
 -0.866448314082E-02
 -0.866448314082E-02
 -0.899377799420E-02
 -0.899377799420E-02
 -0.102444775003E-01
 -0.102444775003E-01
 -0.952227359141E-02
 -0.952227359141E-02
 -0.940882067561E-02
 -0.940882067561E-02
 -0.958153271527E-02
 -0.958153271527E-02
 -0.843572943148E-02
 -0.843572943148E-02
 -0.118353092615E-01
 -0.118353092615E-01
 -0.807132540441E-02
 -0.807132540441E-02
 -0.215962092209E-01
 -0.215962092209E-01
 -0.204071673915E-01
 -0.204071673915E-01
 -0.119286588727E+00
 -0.119286588727E+00
 -0.252523579761E-02
 -0.252523579761E-02
 -0.489078169682E-02
 -0.489078169682E-02
 -0.178796710510E-02
 -0.178796710510E-02
 -0.147608597263E-02
 -0.147608597263E-02
 -0.160307158651E-02
 -0.160307158651E-02
 -0.192210307058E-02
 -0.192210307058E-02
  0.200961903519E-02
  0.200961903519E-02
 -0.281173716862E-02
 -0.281173716862E-02
 -0.639803386705E-04
 -0.639803386705E-04
 -0.406867167121E-02
 -0.406867167121E-02
  0.268474868619E-02
  0.268474868619E-02
  0.828328103976E-03
  0.828328103976E-03
  0.165121394978E-02
  0.165121394978E-02
  0.851634139297E-02
  0.851634139297E-02
  0.128727827349E-01
  0.128727827349E-01
  0.132446047460E-01
  0.132446047460E-01
  0.102793043555E-01
  0.102793043555E-01
  0.170460509420E-01
  0.170460509420E-01
  0.175556417794E-01
  0.175556417794E-01
  0.475626523706E-02
  0.475626523706E-02
  0.154300911994E-01
  0.154300911994E-01
  0.136635861284E-02
  0.136635861284E-02
  0.572348635742E-02
  0.572348635742E-02
  0.912072946345E-03
  0.912072946345E-03
  0.561104050682E-02
  0.561104050682E-02
  0.660045214277E-02
  0.660045214277E-02
 -0.257911728952E-02
 -0.257911728952E-02
  0.454431371730E-02
  0.454431371730E-02
 -0.338002266445E-02
 -0.338002266445E-02
  0.106397728079E-03
  0.106397728079E-03
 -0.162353629757E-01
 -0.162353629757E-01
  0.928279382663E-02
  0.928279382663E-02
  0.180333361891E-02
  0.180333361891E-02
 -0.739567689858E-02
 -0.739567689858E-02
  0.166111666752E-02
  0.166111666752E-02
  0.627093239080E-02
  0.627093239080E-02
 -0.193931000881E-01
 -0.193931000881E-01
  0.198389107283E-01
  0.198389107283E-01
 -0.524394455097E-01
 -0.524394455097E-01
 -0.245463071959E-01
 -0.245463071959E-01
 -0.270602223254E-01
 -0.270602223254E-01
 -0.303651316386E-01
 -0.303651316386E-01
  0.170953481629E-01
  0.170953481629E-01
  0.116852008864E+00
  0.116852008864E+00
  0.252523579751E-02
  0.252523579751E-02
  0.489078169711E-02
  0.489078169711E-02
  0.178796710558E-02
  0.178796710558E-02
  0.147608597144E-02
  0.147608597144E-02
  0.160307158769E-02
  0.160307158769E-02
  0.192210307203E-02
  0.192210307203E-02
 -0.200961903766E-02
 -0.200961903766E-02
  0.281173717099E-02
  0.281173717099E-02
  0.639803381838E-04
  0.639803381838E-04
  0.406867166879E-02
  0.406867166879E-02
 -0.268474868600E-02
 -0.268474868600E-02
 -0.828328118672E-03
 -0.828328118672E-03
 -0.165121391792E-02
 -0.165121391792E-02
 -0.851634140892E-02
 -0.851634140892E-02
 -0.128727827205E-01
 -0.128727827205E-01
 -0.132446047511E-01
 -0.132446047511E-01
 -0.102793043523E-01
 -0.102793043523E-01
 -0.170460509428E-01
 -0.170460509428E-01
 -0.175556418692E-01
 -0.175556418692E-01
 -0.475626519123E-02
 -0.475626519123E-02
 -0.154300912167E-01
 -0.154300912167E-01
 -0.136635864801E-02
 -0.136635864801E-02
 -0.572348609774E-02
 -0.572348609774E-02
 -0.912073233104E-03
 -0.912073233104E-03
 -0.561104052737E-02
 -0.561104052737E-02
 -0.660045130489E-02
 -0.660045130489E-02
  0.257911570360E-02
  0.257911570360E-02
 -0.454431424292E-02
 -0.454431424292E-02
  0.338002320642E-02
  0.338002320642E-02
 -0.106397287012E-03
 -0.106397287012E-03
  0.162353612217E-01
  0.162353612217E-01
 -0.928278818545E-02
 -0.928278818545E-02
 -0.180333363538E-02
 -0.180333363538E-02
  0.739567016926E-02
  0.739567016926E-02
 -0.166109615470E-02
 -0.166109615470E-02
 -0.627095512433E-02
 -0.627095512433E-02
  0.193930984610E-01
  0.193930984610E-01
 -0.198388959027E-01
 -0.198388959027E-01
  0.524394403295E-01
  0.524394403295E-01
  0.245463047773E-01
  0.245463047773E-01
  0.270602350384E-01
  0.270602350384E-01
  0.303651454498E-01
  0.303651454498E-01
 -0.170953725061E-01
 -0.170953725061E-01
 -0.116852011142E+00
 -0.116852011142E+00
