# vtk DataFile Version 3.0
MachLine results file. Generated by MachLine, USU AeroLab (c) 2023.
ASCII
DATASET POLYDATA
POINTS                 624 float
  0.407111545360E+01  0.256410256410E+00  0.000000000000E+00
  0.400000000000E+01  0.000000000000E+00  0.000000000000E+00
  0.598027928577E+02  0.344827586210E+00  0.487374452524E+01
  0.598020663795E+02  0.000000000000E+00  0.488204820953E+01
  0.419127604770E+01  0.689655172410E+00  0.000000000000E+00
  0.409563802390E+01  0.344827586210E+00  0.000000000000E+00
  0.598035193360E+02  0.689655172410E+00  0.486544084097E+01
  0.598027928577E+02  0.344827586210E+00  0.487374452524E+01
  0.428691407160E+01  0.103448275860E+01  0.000000000000E+00
  0.419127604770E+01  0.689655172410E+00  0.000000000000E+00
  0.598042458142E+02  0.103448275860E+01  0.485713715669E+01
  0.598035193360E+02  0.689655172410E+00  0.486544084097E+01
  0.438255209540E+01  0.137931034480E+01  0.000000000000E+00
  0.428691407160E+01  0.103448275860E+01  0.000000000000E+00
  0.598049722924E+02  0.137931034480E+01  0.484883347241E+01
  0.598042458142E+02  0.103448275860E+01  0.485713715669E+01
  0.447819011930E+01  0.172413793100E+01  0.000000000000E+00
  0.438255209540E+01  0.137931034480E+01  0.000000000000E+00
  0.598056987707E+02  0.172413793100E+01  0.484052978813E+01
  0.598049722924E+02  0.137931034480E+01  0.484883347241E+01
  0.457382814320E+01  0.206896551720E+01  0.000000000000E+00
  0.447819011930E+01  0.172413793100E+01  0.000000000000E+00
  0.598064252489E+02  0.206896551720E+01  0.483222610385E+01
  0.598056987707E+02  0.172413793100E+01  0.484052978813E+01
  0.466946616700E+01  0.241379310340E+01  0.000000000000E+00
  0.457382814320E+01  0.206896551720E+01  0.000000000000E+00
  0.598071517272E+02  0.241379310340E+01  0.482392241957E+01
  0.598064252489E+02  0.206896551720E+01  0.483222610385E+01
  0.476510419090E+01  0.275862068970E+01  0.000000000000E+00
  0.466946616700E+01  0.241379310340E+01  0.000000000000E+00
  0.598078782054E+02  0.275862068970E+01  0.481561873529E+01
  0.598071517272E+02  0.241379310340E+01  0.482392241957E+01
  0.486074221470E+01  0.310344827590E+01  0.000000000000E+00
  0.476510419090E+01  0.275862068970E+01  0.000000000000E+00
  0.598086046836E+02  0.310344827590E+01  0.480731505101E+01
  0.598078782054E+02  0.275862068970E+01  0.481561873529E+01
  0.495638023860E+01  0.344827586210E+01  0.000000000000E+00
  0.486074221470E+01  0.310344827590E+01  0.000000000000E+00
  0.598093311619E+02  0.344827586210E+01  0.479901136673E+01
  0.598086046836E+02  0.310344827590E+01  0.480731505101E+01
  0.505201826240E+01  0.379310344830E+01  0.000000000000E+00
  0.495638023860E+01  0.344827586210E+01  0.000000000000E+00
  0.598100576401E+02  0.379310344830E+01  0.479070768246E+01
  0.598093311619E+02  0.344827586210E+01  0.479901136673E+01
  0.514765628630E+01  0.413793103450E+01  0.000000000000E+00
  0.505201826240E+01  0.379310344830E+01  0.000000000000E+00
  0.598107841184E+02  0.413793103450E+01  0.478240399817E+01
  0.598100576401E+02  0.379310344830E+01  0.479070768246E+01
  0.524329431020E+01  0.448275862070E+01  0.000000000000E+00
  0.514765628630E+01  0.413793103450E+01  0.000000000000E+00
  0.598115105966E+02  0.448275862070E+01  0.477410031389E+01
  0.598107841184E+02  0.413793103450E+01  0.478240399817E+01
  0.533893233400E+01  0.482758620690E+01  0.000000000000E+00
  0.524329431020E+01  0.448275862070E+01  0.000000000000E+00
  0.598122370748E+02  0.482758620690E+01  0.476579662962E+01
  0.598115105966E+02  0.448275862070E+01  0.477410031389E+01
  0.543457035790E+01  0.517241379310E+01  0.000000000000E+00
  0.533893233400E+01  0.482758620690E+01  0.000000000000E+00
  0.598129635531E+02  0.517241379310E+01  0.475749294533E+01
  0.598122370748E+02  0.482758620690E+01  0.476579662962E+01
  0.553020838170E+01  0.551724137930E+01  0.000000000000E+00
  0.543457035790E+01  0.517241379310E+01  0.000000000000E+00
  0.598136900313E+02  0.551724137930E+01  0.474918926106E+01
  0.598129635531E+02  0.517241379310E+01  0.475749294533E+01
  0.562584640560E+01  0.586206896550E+01  0.000000000000E+00
  0.553020838170E+01  0.551724137930E+01  0.000000000000E+00
  0.598144165096E+02  0.586206896550E+01  0.474088557678E+01
  0.598136900313E+02  0.551724137930E+01  0.474918926106E+01
  0.572148442950E+01  0.620689655170E+01  0.000000000000E+00
  0.562584640560E+01  0.586206896550E+01  0.000000000000E+00
  0.598151429878E+02  0.620689655170E+01  0.473258189249E+01
  0.598144165096E+02  0.586206896550E+01  0.474088557678E+01
  0.581712245330E+01  0.655172413790E+01  0.000000000000E+00
  0.572148442950E+01  0.620689655170E+01  0.000000000000E+00
  0.598158694660E+02  0.655172413790E+01  0.472427820822E+01
  0.598151429878E+02  0.620689655170E+01  0.473258189249E+01
  0.591276047720E+01  0.689655172410E+01  0.000000000000E+00
  0.581712245330E+01  0.655172413790E+01  0.000000000000E+00
  0.598165959443E+02  0.689655172410E+01  0.471597452394E+01
  0.598158694660E+02  0.655172413790E+01  0.472427820822E+01
  0.600839850100E+01  0.724137931030E+01  0.000000000000E+00
  0.591276047720E+01  0.689655172410E+01  0.000000000000E+00
  0.598173224225E+02  0.724137931030E+01  0.470767083966E+01
  0.598165959443E+02  0.689655172410E+01  0.471597452394E+01
  0.610403652490E+01  0.758620689660E+01  0.000000000000E+00
  0.600839850100E+01  0.724137931030E+01  0.000000000000E+00
  0.598180489008E+02  0.758620689660E+01  0.469936715538E+01
  0.598173224225E+02  0.724137931030E+01  0.470767083966E+01
  0.619967454870E+01  0.793103448280E+01  0.000000000000E+00
  0.610403652490E+01  0.758620689660E+01  0.000000000000E+00
  0.598187753790E+02  0.793103448280E+01  0.469106347110E+01
  0.598180489008E+02  0.758620689660E+01  0.469936715538E+01
  0.629531257260E+01  0.827586206900E+01  0.000000000000E+00
  0.619967454870E+01  0.793103448280E+01  0.000000000000E+00
  0.598195018572E+02  0.827586206900E+01  0.468275978682E+01
  0.598187753790E+02  0.793103448280E+01  0.469106347110E+01
  0.639095059650E+01  0.862068965520E+01  0.000000000000E+00
  0.629531257260E+01  0.827586206900E+01  0.000000000000E+00
  0.598202283355E+02  0.862068965520E+01  0.467445610254E+01
  0.598195018572E+02  0.827586206900E+01  0.468275978682E+01
  0.648658862030E+01  0.896551724140E+01  0.000000000000E+00
  0.639095059650E+01  0.862068965520E+01  0.000000000000E+00
  0.598209548137E+02  0.896551724140E+01  0.466615241826E+01
  0.598202283355E+02  0.862068965520E+01  0.467445610254E+01
  0.658222664420E+01  0.931034482760E+01  0.000000000000E+00
  0.648658862030E+01  0.896551724140E+01  0.000000000000E+00
  0.598216812920E+02  0.931034482760E+01  0.465784873398E+01
  0.598209548137E+02  0.896551724140E+01  0.466615241826E+01
  0.667786466800E+01  0.965517241380E+01  0.000000000000E+00
  0.658222664420E+01  0.931034482760E+01  0.000000000000E+00
  0.598224077702E+02  0.965517241380E+01  0.464954504971E+01
  0.598216812920E+02  0.931034482760E+01  0.465784873398E+01
  0.677350269190E+01  0.100000000000E+02  0.000000000000E+00
  0.667786466800E+01  0.965517241380E+01  0.000000000000E+00
  0.598231342484E+02  0.100000000000E+02  0.464124136542E+01
  0.598224077702E+02  0.965517241380E+01  0.464954504971E+01
  0.400000000000E+01  0.000000000000E+00  0.000000000000E+00
  0.409563802390E+01 -0.344827586210E+00  0.000000000000E+00
  0.598020663795E+02  0.000000000000E+00  0.488204820953E+01
  0.598027928577E+02 -0.344827586210E+00  0.487374452524E+01
  0.409563802390E+01 -0.344827586210E+00  0.000000000000E+00
  0.419127604770E+01 -0.689655172410E+00  0.000000000000E+00
  0.598027928577E+02 -0.344827586210E+00  0.487374452524E+01
  0.598035193360E+02 -0.689655172410E+00  0.486544084097E+01
  0.419127604770E+01 -0.689655172410E+00  0.000000000000E+00
  0.428691407160E+01 -0.103448275860E+01  0.000000000000E+00
  0.598035193360E+02 -0.689655172410E+00  0.486544084097E+01
  0.598042458142E+02 -0.103448275860E+01  0.485713715669E+01
  0.428691407160E+01 -0.103448275860E+01  0.000000000000E+00
  0.438255209540E+01 -0.137931034480E+01  0.000000000000E+00
  0.598042458142E+02 -0.103448275860E+01  0.485713715669E+01
  0.598049722924E+02 -0.137931034480E+01  0.484883347241E+01
  0.438255209540E+01 -0.137931034480E+01  0.000000000000E+00
  0.447819011930E+01 -0.172413793100E+01  0.000000000000E+00
  0.598049722924E+02 -0.137931034480E+01  0.484883347241E+01
  0.598056987707E+02 -0.172413793100E+01  0.484052978813E+01
  0.447819011930E+01 -0.172413793100E+01  0.000000000000E+00
  0.457382814320E+01 -0.206896551720E+01  0.000000000000E+00
  0.598056987707E+02 -0.172413793100E+01  0.484052978813E+01
  0.598064252489E+02 -0.206896551720E+01  0.483222610385E+01
  0.457382814320E+01 -0.206896551720E+01  0.000000000000E+00
  0.466946616700E+01 -0.241379310340E+01  0.000000000000E+00
  0.598064252489E+02 -0.206896551720E+01  0.483222610385E+01
  0.598071517272E+02 -0.241379310340E+01  0.482392241957E+01
  0.466946616700E+01 -0.241379310340E+01  0.000000000000E+00
  0.476510419090E+01 -0.275862068970E+01  0.000000000000E+00
  0.598071517272E+02 -0.241379310340E+01  0.482392241957E+01
  0.598078782054E+02 -0.275862068970E+01  0.481561873529E+01
  0.476510419090E+01 -0.275862068970E+01  0.000000000000E+00
  0.486074221470E+01 -0.310344827590E+01  0.000000000000E+00
  0.598078782054E+02 -0.275862068970E+01  0.481561873529E+01
  0.598086046836E+02 -0.310344827590E+01  0.480731505101E+01
  0.486074221470E+01 -0.310344827590E+01  0.000000000000E+00
  0.495638023860E+01 -0.344827586210E+01  0.000000000000E+00
  0.598086046836E+02 -0.310344827590E+01  0.480731505101E+01
  0.598093311619E+02 -0.344827586210E+01  0.479901136673E+01
  0.495638023860E+01 -0.344827586210E+01  0.000000000000E+00
  0.505201826240E+01 -0.379310344830E+01  0.000000000000E+00
  0.598093311619E+02 -0.344827586210E+01  0.479901136673E+01
  0.598100576401E+02 -0.379310344830E+01  0.479070768246E+01
  0.505201826240E+01 -0.379310344830E+01  0.000000000000E+00
[...]
POINT_DATA                 624
SCALARS mu float 1
LOOKUP_TABLE default
 -0.100386320517E+00
 -0.196041143516E+00
 -0.100386320517E+00
 -0.196041143516E+00
 -0.258824686163E+00
 -0.100386320517E+00
 -0.258824686163E+00
 -0.100386320517E+00
 -0.235704029542E+00
 -0.258824686163E+00
 -0.235704029542E+00
 -0.258824686163E+00
 -0.158660561185E+00
 -0.235704029542E+00
 -0.158660561185E+00
 -0.235704029542E+00
 -0.245143743946E+00
 -0.158660561185E+00
 -0.245143743946E+00
 -0.158660561185E+00
 -0.246582805406E+00
 -0.245143743946E+00
 -0.246582805406E+00
 -0.245143743946E+00
 -0.193101005027E+00
 -0.246582805406E+00
 -0.193101005027E+00
 -0.246582805406E+00
 -0.242478560968E+00
 -0.193101005027E+00
 -0.242478560968E+00
 -0.193101005027E+00
 -0.247442944416E+00
 -0.242478560968E+00
 -0.247442944416E+00
 -0.242478560968E+00
 -0.212387144826E+00
 -0.247442944416E+00
 -0.212387144826E+00
 -0.247442944416E+00
 -0.241232583751E+00
 -0.212387144826E+00
 -0.241232583751E+00
 -0.212387144826E+00
 -0.243259349701E+00
 -0.241232583751E+00
 -0.243259349701E+00
 -0.241232583751E+00
 -0.220648380580E+00
 -0.243259349701E+00
 -0.220648380580E+00
 -0.243259349701E+00
 -0.237399119339E+00
 -0.220648380580E+00
 -0.237399119339E+00
 -0.220648380580E+00
 -0.235327365621E+00
 -0.237399119339E+00
 -0.235327365621E+00
 -0.237399119339E+00
 -0.220654628377E+00
 -0.235327365621E+00
 -0.220654628377E+00
 -0.235327365621E+00
 -0.229529300692E+00
 -0.220654628377E+00
 -0.229529300692E+00
 -0.220654628377E+00
 -0.224096292094E+00
 -0.229529300692E+00
 -0.224096292094E+00
 -0.229529300692E+00
 -0.214368473060E+00
 -0.224096292094E+00
 -0.214368473060E+00
 -0.224096292094E+00
 -0.217471289804E+00
 -0.214368473060E+00
 -0.217471289804E+00
 -0.214368473060E+00
 -0.210039124470E+00
 -0.217471289804E+00
 -0.210039124470E+00
 -0.217471289804E+00
 -0.203341548759E+00
 -0.210039124470E+00
 -0.203341548759E+00
 -0.210039124470E+00
 -0.201864941454E+00
 -0.203341548759E+00
 -0.201864941454E+00
 -0.203341548759E+00
 -0.193893313549E+00
 -0.201864941454E+00
 -0.193893313549E+00
 -0.201864941454E+00
 -0.188808060535E+00
 -0.193893313549E+00
 -0.188808060535E+00
 -0.193893313549E+00
 -0.183610120210E+00
 -0.188808060535E+00
 -0.183610120210E+00
 -0.188808060535E+00
 -0.176527724256E+00
 -0.183610120210E+00
 -0.176527724256E+00
 -0.183610120210E+00
 -0.171554944233E+00
 -0.176527724256E+00
 -0.171554944233E+00
 -0.176527724256E+00
 -0.163571984815E+00
 -0.171554944233E+00
 -0.163571984815E+00
 -0.171554944233E+00
 -0.158517257831E+00
 -0.163571984815E+00
 -0.158517257831E+00
 -0.163571984815E+00
 -0.151642505151E+00
 -0.158517257831E+00
 -0.151642505151E+00
 -0.158517257831E+00
 -0.142354069439E+00
 -0.151642505151E+00
 -0.142354069439E+00
 -0.151642505151E+00
 -0.139276128249E+00
 -0.142354069439E+00
 -0.139276128249E+00
 -0.142354069439E+00
 -0.127576924370E+00
 -0.139276128249E+00
 -0.127576924370E+00
 -0.139276128249E+00
 -0.116983815358E+00
 -0.127576924370E+00
 -0.116983815358E+00
 -0.127576924370E+00
 -0.117342772781E+00
 -0.116983815358E+00
 -0.117342772781E+00
 -0.116983815358E+00
 -0.764064013227E-01
 -0.117342772781E+00
 -0.764064013227E-01
 -0.117342772781E+00
 -0.967666760830E-01
 -0.764064013227E-01
 -0.967666760830E-01
 -0.764064013227E-01
  0.000000000000E+00
 -0.967666760830E-01
  0.000000000000E+00
 -0.967666760830E-01
 -0.196041143516E+00
 -0.100386320503E+00
 -0.196041143516E+00
 -0.100386320503E+00
 -0.100386320503E+00
 -0.258824686136E+00
 -0.100386320503E+00
 -0.258824686136E+00
 -0.258824686136E+00
 -0.235704029504E+00
 -0.258824686136E+00
 -0.235704029504E+00
 -0.235704029504E+00
 -0.158660561135E+00
 -0.235704029504E+00
 -0.158660561135E+00
 -0.158660561135E+00
 -0.245143743883E+00
 -0.158660561135E+00
 -0.245143743883E+00
 -0.245143743883E+00
 -0.246582805330E+00
 -0.245143743883E+00
 -0.246582805330E+00
 -0.246582805330E+00
 -0.193101004938E+00
 -0.246582805330E+00
 -0.193101004938E+00
 -0.193101004938E+00
 -0.242478560865E+00
 -0.193101004938E+00
 -0.242478560865E+00
 -0.242478560865E+00
 -0.247442944298E+00
 -0.242478560865E+00
 -0.247442944298E+00
 -0.247442944298E+00
 -0.212387144693E+00
 -0.247442944298E+00
 -0.212387144693E+00
 -0.212387144693E+00
 -0.241232583601E+00
 -0.212387144693E+00
 -0.241232583601E+00
 -0.241232583601E+00
 -0.243259349534E+00
 -0.241232583601E+00
 -0.243259349534E+00
 -0.243259349534E+00
 -0.220648380394E+00
 -0.243259349534E+00
 -0.220648380394E+00
 -0.220648380394E+00
 -0.237399119132E+00
 -0.220648380394E+00
 -0.237399119132E+00
 -0.237399119132E+00
 -0.235327365392E+00
 -0.237399119132E+00
 -0.235327365392E+00
 -0.235327365392E+00
 -0.220654628123E+00
 -0.235327365392E+00
 -0.220654628123E+00
 -0.220654628123E+00
 -0.229529300411E+00
 -0.220654628123E+00
 -0.229529300411E+00
 -0.229529300411E+00
 -0.224096291783E+00
 -0.229529300411E+00
 -0.224096291783E+00
 -0.224096291783E+00
 -0.214368472716E+00
 -0.224096291783E+00
 -0.214368472716E+00
 -0.214368472716E+00
 -0.217471289421E+00
 -0.214368472716E+00
 -0.217471289421E+00
 -0.217471289421E+00
 -0.210039124043E+00
 -0.217471289421E+00
 -0.210039124043E+00
 -0.210039124043E+00
 -0.203341548281E+00
 -0.210039124043E+00
 -0.203341548281E+00
 -0.203341548281E+00
 -0.201864940915E+00
 -0.203341548281E+00
 -0.201864940915E+00
 -0.201864940915E+00
 -0.193893312940E+00
 -0.201864940915E+00
 -0.193893312940E+00
 -0.193893312940E+00
 -0.188808059837E+00
 -0.193893312940E+00
 -0.188808059837E+00
 -0.188808059837E+00
 -0.183610119401E+00
 -0.188808059837E+00
 -0.183610119401E+00
 -0.183610119401E+00
 -0.176527723296E+00
 -0.183610119401E+00
 -0.176527723296E+00
 -0.176527723296E+00
 -0.171554943057E+00
 -0.176527723296E+00
 -0.171554943057E+00
 -0.171554943057E+00
 -0.163571983310E+00
 -0.171554943057E+00
 -0.163571983310E+00
 -0.163571983310E+00
 -0.158517255785E+00
 -0.163571983310E+00
 -0.158517255785E+00
 -0.158517255785E+00
 -0.151642502369E+00
 -0.158517255785E+00
 -0.151642502369E+00
 -0.151642502369E+00
 -0.142354066907E+00
 -0.151642502369E+00
 -0.142354066907E+00
 -0.142354066907E+00
 -0.139276127916E+00
 -0.142354066907E+00
 -0.139276127916E+00
 -0.139276127916E+00
 -0.127576909598E+00
 -0.139276127916E+00
 -0.127576909598E+00
 -0.127576909598E+00
 -0.116983721731E+00
 -0.127576909598E+00
 -0.116983721731E+00
 -0.116983721731E+00
 -0.117342597793E+00
 -0.116983721731E+00
 -0.117342597793E+00
 -0.117342597793E+00
 -0.764063546344E-01
 -0.117342597793E+00
 -0.764063546344E-01
 -0.764063546344E-01
 -0.967667309445E-01
 -0.764063546344E-01
 -0.967667309445E-01
 -0.967667309445E-01
  0.000000000000E+00
 -0.967667309445E-01
  0.000000000000E+00
  0.416953232744E+00
  0.231084573587E+00
  0.416953232744E+00
  0.231084573587E+00
  0.100662060393E+00
  0.416953232744E+00
  0.100662060393E+00
  0.416953232744E+00
  0.153035379149E+00
  0.100662060393E+00
  0.153035379149E+00
  0.100662060393E+00
  0.301485382309E+00
  0.153035379149E+00
  0.301485382309E+00
  0.153035379149E+00
  0.124623450470E+00
  0.301485382309E+00
  0.124623450470E+00
  0.301485382309E+00
  0.124369389226E+00
  0.124623450470E+00
  0.124369389226E+00
  0.124623450470E+00
  0.224549288251E+00
  0.124369389226E+00
  0.224549288251E+00
  0.124369389226E+00
  0.118829452525E+00
  0.224549288251E+00
  0.118829452525E+00
  0.224549288251E+00
  0.107377822240E+00
  0.118829452525E+00
  0.107377822240E+00
  0.118829452525E+00
  0.168809481452E+00
  0.107377822240E+00
  0.168809481452E+00
  0.107377822240E+00
  0.101623313124E+00
  0.168809481452E+00
  0.101623313124E+00
  0.168809481452E+00
  0.918800449117E-01
  0.101623313124E+00
  0.918800449117E-01
  0.101623313124E+00
  0.126106185204E+00
  0.918800449117E-01
  0.126106185204E+00
  0.918800449117E-01
  0.807635157185E-01
  0.126106185204E+00
  0.807635157185E-01
  0.126106185204E+00
  0.753361409888E-01
  0.807635157185E-01
  0.753361409888E-01
  0.807635157185E-01
  0.913613429705E-01
  0.753361409888E-01
  0.913613429705E-01
  0.753361409888E-01
  0.595358895655E-01
  0.913613429705E-01
  0.595358895655E-01
  0.913613429705E-01
  0.574893199281E-01
  0.595358895655E-01
  0.574893199281E-01
  0.595358895655E-01
  0.616440361712E-01
  0.574893199281E-01
  0.616440361712E-01
  0.574893199281E-01
  0.392740071508E-01
  0.616440361712E-01
  0.392740071508E-01
  0.616440361712E-01
  0.386847375774E-01
  0.392740071508E-01
  0.386847375774E-01
  0.392740071508E-01
  0.354120977811E-01
  0.386847375774E-01
  0.354120977811E-01
  0.386847375774E-01
  0.203059494034E-01
  0.354120977811E-01
  0.203059494034E-01
  0.354120977811E-01
  0.192756344830E-01
  0.203059494034E-01
  0.192756344830E-01
  0.203059494034E-01
  0.119687046476E-01
  0.192756344830E-01
  0.119687046476E-01
  0.192756344830E-01
  0.255854021992E-02
  0.119687046476E-01
  0.255854021992E-02
  0.119687046476E-01
 -0.534530191924E-03
  0.255854021992E-02
 -0.534530191924E-03
  0.255854021992E-02
 -0.892912867261E-02
 -0.534530191924E-03
 -0.892912867261E-02
 -0.534530191924E-03
 -0.143435140552E-01
 -0.892912867261E-02
 -0.143435140552E-01
 -0.892912867261E-02
 -0.204833255318E-01
 -0.143435140552E-01
 -0.204833255318E-01
 -0.143435140552E-01
 -0.271688400780E-01
 -0.204833255318E-01
 -0.271688400780E-01
 -0.204833255318E-01
 -0.308077021010E-01
 -0.271688400780E-01
 -0.308077021010E-01
 -0.271688400780E-01
 -0.395531827255E-01
 -0.308077021010E-01
 -0.395531827255E-01
 -0.308077021010E-01
 -0.415067391449E-01
 -0.395531827255E-01
 -0.415067391449E-01
 -0.395531827255E-01
 -0.442364282053E-01
 -0.415067391449E-01
 -0.442364282053E-01
 -0.415067391449E-01
 -0.557161563614E-01
 -0.442364282053E-01
 -0.557161563614E-01
 -0.442364282053E-01
 -0.335474200258E-01
 -0.557161563614E-01
 -0.335474200258E-01
 -0.557161563614E-01
 -0.602527796854E-01
 -0.335474200258E-01
 -0.602527796854E-01
 -0.335474200258E-01
  0.000000000000E+00
 -0.602527796854E-01
  0.000000000000E+00
 -0.602527796854E-01
  0.231084573587E+00
  0.416953232754E+00
  0.231084573587E+00
  0.416953232754E+00
  0.416953232754E+00
  0.100662060413E+00
  0.416953232754E+00
  0.100662060413E+00
  0.100662060413E+00
  0.153035379179E+00
  0.100662060413E+00
  0.153035379179E+00
  0.153035379179E+00
  0.301485382350E+00
  0.153035379179E+00
  0.301485382350E+00
  0.301485382350E+00
  0.124623450520E+00
  0.301485382350E+00
  0.124623450520E+00
  0.124623450520E+00
  0.124369389287E+00
  0.124623450520E+00
  0.124369389287E+00
  0.124369389287E+00
  0.224549288323E+00
  0.124369389287E+00
  0.224549288323E+00
  0.224549288323E+00
  0.118829452609E+00
  0.224549288323E+00
  0.118829452609E+00
  0.118829452609E+00
  0.107377822336E+00
  0.118829452609E+00
  0.107377822336E+00
  0.107377822336E+00
  0.168809481561E+00
  0.107377822336E+00
  0.168809481561E+00
  0.168809481561E+00
  0.101623313246E+00
  0.168809481561E+00
  0.101623313246E+00
  0.101623313246E+00
  0.918800450481E-01
  0.101623313246E+00
  0.918800450481E-01
  0.918800450481E-01
  0.126106185356E+00
  0.918800450481E-01
  0.126106185356E+00
  0.126106185356E+00
  0.807635158873E-01
  0.126106185356E+00
  0.807635158873E-01
  0.807635158873E-01
  0.753361411759E-01
  0.807635158873E-01
  0.753361411759E-01
  0.753361411759E-01
  0.913613431781E-01
  0.753361411759E-01
  0.913613431781E-01
  0.913613431781E-01
  0.595358897958E-01
  0.913613431781E-01
  0.595358897958E-01
  0.595358897958E-01
  0.574893201840E-01
  0.595358897958E-01
  0.574893201840E-01
  0.574893201840E-01
  0.616440364568E-01
  0.574893201840E-01
  0.616440364568E-01
  0.616440364568E-01
  0.392740074707E-01
  0.616440364568E-01
  0.392740074707E-01
  0.392740074707E-01
  0.386847379380E-01
  0.392740074707E-01
  0.386847379380E-01
  0.386847379380E-01
  0.354120981912E-01
  0.386847379380E-01
  0.354120981912E-01
  0.354120981912E-01
  0.203059498742E-01
  0.354120981912E-01
  0.203059498742E-01
  0.203059498742E-01
  0.192756350296E-01
  0.203059498742E-01
  0.192756350296E-01
  0.192756350296E-01
  0.119687052914E-01
  0.192756350296E-01
  0.119687052914E-01
  0.119687052914E-01
  0.255854099154E-02
  0.119687052914E-01
  0.255854099154E-02
  0.255854099154E-02
 -0.534529246254E-03
  0.255854099154E-02
 -0.534529246254E-03
 -0.534529246254E-03
 -0.892912748044E-02
 -0.534529246254E-03
 -0.892912748044E-02
 -0.892912748044E-02
 -0.143435124964E-01
 -0.892912748044E-02
 -0.143435124964E-01
 -0.143435124964E-01
 -0.204833233926E-01
 -0.143435124964E-01
 -0.204833233926E-01
 -0.204833233926E-01
 -0.271688371590E-01
 -0.204833233926E-01
 -0.271688371590E-01
 -0.271688371590E-01
 -0.308076993109E-01
 -0.271688371590E-01
 -0.308076993109E-01
 -0.308076993109E-01
 -0.395531818626E-01
 -0.308076993109E-01
 -0.395531818626E-01
 -0.395531818626E-01
 -0.415067244912E-01
 -0.395531818626E-01
 -0.415067244912E-01
 -0.415067244912E-01
 -0.442363391624E-01
 -0.415067244912E-01
 -0.442363391624E-01
 -0.442363391624E-01
 -0.557159908816E-01
 -0.442363391624E-01
 -0.557159908816E-01
 -0.557159908816E-01
 -0.335473759004E-01
 -0.557159908816E-01
 -0.335473759004E-01
 -0.335473759004E-01
 -0.602528308277E-01
 -0.335473759004E-01
 -0.602528308277E-01
 -0.602528308277E-01
  0.000000000000E+00
 -0.602528308277E-01
  0.000000000000E+00
