# vtk DataFile Version 3.0
TriPan results file. Generated by TriPan, USU AeroLab (c) 2021.
ASCII
DATASET POLYDATA
POINTS                 144 float
      0.000000000000      0.000000000000      0.000000000000
      0.750993072987      0.000000000000     -0.543790996075
      0.750993072987      0.000000000000      0.543790996075
      1.923753738400      1.923753738400      0.000000000000
      2.674746751790      1.923753738400     -0.543790996075
      2.674746751790      1.923753738400      0.543790996075
      3.592464447020      0.000000000000     -1.038844943050
      3.592464447020      0.000000000000      1.038844943050
      5.470331668850      5.470331668850      0.000000000000
      5.516218185420      1.923753738400     -1.038844943050
      5.516218185420      1.923753738400      1.038844943050
      6.221324920650      5.470331668850     -0.543790996075
      6.221324920650      5.470331668850      0.543790996075
      9.062796592710      5.470331668850     -1.038844943050
      9.062796592710      5.470331668850      1.038844943050
      9.395236968990      0.000000000000     -0.980761349201
      9.395236968990      0.000000000000      0.980761349201
     11.318990707400      1.923753738400     -0.980761349201
     11.318990707400      1.923753738400      0.980761349201
     11.382001876800     11.382001876800      0.000000000000
     12.132995605500     11.382001876800     -0.543790996075
     12.132995605500     11.382001876800      0.543790996075
     14.865568161000      5.470331668850     -0.980761349201
     14.865568161000      5.470331668850      0.980761349201
     14.974466323900     11.382001876800     -1.038844943050
     14.974466323900     11.382001876800      1.038844943050
     15.176529884300      0.000000000000     -0.411069482565
     15.176529884300      0.000000000000      0.411069482565
     17.100284576400      1.923753738400     -0.411069482565
     17.100284576400      1.923753738400      0.411069482565
     18.049325943000      0.000000000000     -0.101516798139
     18.049325943000      0.000000000000      0.101516798139
     19.000301361100      0.000000000000      0.000000000000
     19.756195068400     19.756195068400      0.000000000000
     19.973079681400      1.923753738400     -0.101516798139
     19.973079681400      1.923753738400      0.101516798139
     20.507186889600     19.756195068400     -0.543790996075
     20.507186889600     19.756195068400      0.543790996075
     20.646862030000      5.470331668850     -0.411069482565
     20.646862030000      5.470331668850      0.411069482565
     20.777238845800     11.382001876800     -0.980761349201
     20.777238845800     11.382001876800      0.980761349201
     20.924055099500      1.923753738400      0.000000000000
     23.348659515400     19.756195068400     -1.038844943050
     23.348659515400     19.756195068400      1.038844943050
     23.519659042400      5.470331668850     -0.101516798139
     23.519659042400      5.470331668850      0.101516798139
     24.470632553100      5.470331668850      0.000000000000
     26.558532714800     11.382001876800     -0.411069482565
     26.558532714800     11.382001876800      0.411069482565
     29.151432037400     19.756195068400     -0.980761349201
     29.151432037400     19.756195068400      0.980761349201
     29.243804931600     29.243804931600      0.000000000000
     29.431327819800     11.382001876800     -0.101516798139
     29.431327819800     11.382001876800      0.101516798139
     29.994798660300     29.243804931600     -0.543790996075
     29.994798660300     29.243804931600      0.543790996075
     30.382303237900     11.382001876800      0.000000000000
     32.836269378700     29.243804931600     -1.038844943050
     32.836269378700     29.243804931600      1.038844943050
     34.932723999000     19.756195068400     -0.411069482565
     34.932723999000     19.756195068400      0.411069482565
     37.617996215800     37.617996215800      0.000000000000
     37.805519104000     19.756195068400     -0.101516798139
     37.805519104000     19.756195068400      0.101516798139
     38.368991851800     37.617996215800     -0.543790996075
     38.368991851800     37.617996215800      0.543790996075
     38.639041900600     29.243804931600     -0.980761349201
     38.639041900600     29.243804931600      0.980761349201
     38.756496429400     19.756195068400      0.000000000000
     41.210460662800     37.617996215800     -1.038844943050
     41.210460662800     37.617996215800      1.038844943050
     43.529666900600     43.529666900600      0.000000000000
     44.280662536600     43.529666900600     -0.543790996075
     44.280662536600     43.529666900600      0.543790996075
     44.420333862300     29.243804931600     -0.411069482565
     44.420333862300     29.243804931600      0.411069482565
     47.013233184800     37.617996215800     -0.980761349201
     47.013233184800     37.617996215800      0.980761349201
     47.076248168900     47.076248168900      0.000000000000
     47.122131347700     43.529666900600     -1.038844943050
     47.122131347700     43.529666900600      1.038844943050
     47.293132782000     29.243804931600     -0.101516798139
     47.293132782000     29.243804931600      0.101516798139
     47.827239990200     47.076248168900     -0.543790996075
     47.827239990200     47.076248168900      0.543790996075
     48.244106292700     29.243804931600      0.000000000000
     49.000000000000     49.000000000000      0.000000000000
     49.750991821300     49.000000000000     -0.543790996075
     49.750991821300     49.000000000000      0.543790996075
     50.135513305700     49.384517669700     -0.384518325329
     50.135513305700     49.384517669700      0.384518325329
     50.294784545900     49.543792724600     -0.000000000000
     50.668708801300     47.076248168900     -1.038844943050
     50.668708801300     47.076248168900      1.038844943050
     52.592464447000     49.000000000000     -1.038844943050
     52.592464447000     49.000000000000      1.038844943050
     52.794528961200     37.617996215800     -0.411069482565
     52.794528961200     37.617996215800      0.411069482565
     52.924903869600     43.529666900600     -0.980761349201
     52.924903869600     43.529666900600      0.980761349201
     53.327037811300     49.734573364300     -0.734574317932
     53.327037811300     49.734573364300      0.734574317932
     53.631309509300     50.038845062300     -0.000000000000
     55.667324066200     37.617996215800     -0.101516798139
     55.667324066200     37.617996215800      0.101516798139
     56.471481323200     47.076248168900     -0.980761349201
     56.471481323200     47.076248168900      0.980761349201
     56.618297576900     37.617996215800      0.000000000000
     58.395236969000     49.000000000000     -0.980761349201
     58.395236969000     49.000000000000      0.980761349201
     58.706199646000     43.529666900600     -0.411069482565
     58.706199646000     43.529666900600      0.411069482565
     59.088741302500     49.693504333500     -0.693503022194
     59.088741302500     49.693504333500      0.693503022194
     59.375999450700     49.980762481700      0.000000000000
     61.578994751000     43.529666900600     -0.101516798139
     61.578994751000     43.529666900600      0.101516798139
     62.252777099600     47.076248168900     -0.411069482565
     62.252777099600     47.076248168900      0.411069482565
     62.529968261700     43.529666900600      0.000000000000
     64.176528930700     49.000000000000     -0.411069482565
     64.176528930700     49.000000000000      0.411069482565
     64.467201232900     49.290668487500     -0.290670007467
     64.467201232900     49.290668487500      0.290670007467
     64.587600708000     49.411067962600      0.000000000000
     65.125572204600     47.076248168900     -0.101516798139
     65.125572204600     47.076248168900      0.101516798139
     66.076545715300     47.076248168900      0.000000000000
     67.049324035600     49.000000000000     -0.101516798139
     67.049324035600     49.000000000000      0.101516798139
     67.121109008800     49.071784973100     -0.071783214807
     67.121109008800     49.071784973100      0.071783214807
     67.150840759300     49.101516723600     -0.000000000000
     68.000297546400     49.000000000000      0.000000000000
     20.924055099500      1.923753738400      0.000000000000
     19.000301361100      0.000000000000      0.000000000000
     24.470632553100      5.470331668850      0.000000000000
     30.382303237900     11.382001876800      0.000000000000
     38.756496429400     19.756195068400      0.000000000000
     48.244106292700     29.243804931600      0.000000000000
     56.618297576900     37.617996215800      0.000000000000
     62.529968261700     43.529666900600      0.000000000000
     66.076545715300     47.076248168900      0.000000000000
POLYGONS                 256                1024
3                  32                  34                  42
3                  32                  30                  34
3                  30                  28                  34
3                  30                  26                  28
3                  26                  17                  28
3                  26                  15                  17
3                  15                   6                  17
3                  17                   6                   9
3                   6                   1                   9
3                   9                   1                   4
3                   1                   0                   4
3                   4                   0                   3
3                   0                   5                   3
3                   0                   2                   5
3                   2                  10                   5
3                   2                   7                  10
[...]
CELL_DATA                 256
SCALARS sigma float 1
LOOKUP_TABLE default
      0.000000000000
      0.000000000000
      0.000000000000
      0.000000000000
      0.000000000000
      0.000000000000
      0.000000000000
      0.000000000000
      0.000000000000
      0.000000000000
      0.000000000000
      0.000000000000
      0.000000000000
      0.000000000000
      0.000000000000
      0.000000000000
      0.000000000000
      0.000000000000
      0.000000000000
      0.000000000000
      0.000000000000
      0.000000000000
      0.000000000000
      0.000000000000
      0.000000000000
      0.000000000000
      0.000000000000
      0.000000000000
      0.000000000000
      0.000000000000
      0.000000000000
      0.000000000000
      0.000000000000
      0.000000000000
      0.000000000000
      0.000000000000
      0.000000000000
      0.000000000000
      0.000000000000
      0.000000000000
      0.000000000000
      0.000000000000
      0.000000000000
      0.000000000000
      0.000000000000
      0.000000000000
      0.000000000000
      0.000000000000
      0.000000000000
      0.000000000000
      0.000000000000
      0.000000000000
      0.000000000000
      0.000000000000
      0.000000000000
      0.000000000000
      0.000000000000
      0.000000000000
      0.000000000000
      0.000000000000
      0.000000000000
      0.000000000000
      0.000000000000
      0.000000000000
      0.000000000000
      0.000000000000
      0.000000000000
      0.000000000000
      0.000000000000
      0.000000000000
      0.000000000000
      0.000000000000
      0.000000000000
      0.000000000000
      0.000000000000
      0.000000000000
      0.000000000000
      0.000000000000
      0.000000000000
      0.000000000000
      0.000000000000
      0.000000000000
      0.000000000000
      0.000000000000
      0.000000000000
      0.000000000000
      0.000000000000
      0.000000000000
      0.000000000000
      0.000000000000
      0.000000000000
      0.000000000000
      0.000000000000
      0.000000000000
      0.000000000000
      0.000000000000
      0.000000000000
      0.000000000000
      0.000000000000
      0.000000000000
      0.000000000000
      0.000000000000
      0.000000000000
      0.000000000000
      0.000000000000
      0.000000000000
      0.000000000000
      0.000000000000
      0.000000000000
      0.000000000000
      0.000000000000
      0.000000000000
      0.000000000000
      0.000000000000
      0.000000000000
      0.000000000000
      0.000000000000
      0.000000000000
      0.000000000000
      0.000000000000
      0.000000000000
      0.000000000000
      0.000000000000
      0.000000000000
      0.000000000000
      0.000000000000
      0.000000000000
      0.000000000000
      0.000000000000
      0.000000000000
      0.000000000000
      0.000000000000
      0.000000000000
      0.000000000000
      0.000000000000
      0.000000000000
      0.000000000000
      0.000000000000
      0.000000000000
      0.000000000000
      0.000000000000
      0.000000000000
      0.000000000000
      0.000000000000
      0.000000000000
      0.000000000000
      0.000000000000
      0.000000000000
      0.000000000000
      0.000000000000
      0.000000000000
      0.000000000000
      0.000000000000
      0.000000000000
      0.000000000000
      0.000000000000
      0.000000000000
      0.000000000000
      0.000000000000
      0.000000000000
      0.000000000000
      0.000000000000
      0.000000000000
      0.000000000000
      0.000000000000
      0.000000000000
      0.000000000000
      0.000000000000
      0.000000000000
      0.000000000000
      0.000000000000
      0.000000000000
      0.000000000000
      0.000000000000
      0.000000000000
      0.000000000000
      0.000000000000
      0.000000000000
      0.000000000000
      0.000000000000
      0.000000000000
      0.000000000000
      0.000000000000
      0.000000000000
      0.000000000000
      0.000000000000
      0.000000000000
      0.000000000000
      0.000000000000
      0.000000000000
      0.000000000000
      0.000000000000
      0.000000000000
      0.000000000000
      0.000000000000
      0.000000000000
      0.000000000000
      0.000000000000
      0.000000000000
      0.000000000000
      0.000000000000
      0.000000000000
      0.000000000000
      0.000000000000
      0.000000000000
      0.000000000000
      0.000000000000
      0.000000000000
      0.000000000000
      0.000000000000
      0.000000000000
      0.000000000000
      0.000000000000
      0.000000000000
      0.000000000000
      0.000000000000
      0.000000000000
      0.000000000000
      0.000000000000
      0.000000000000
      0.000000000000
      0.000000000000
      0.000000000000
      0.000000000000
      0.000000000000
      0.000000000000
      0.000000000000
      0.000000000000
      0.000000000000
      0.000000000000
      0.000000000000
      0.000000000000
      0.000000000000
      0.000000000000
      0.000000000000
      0.000000000000
      0.000000000000
      0.000000000000
      0.000000000000
      0.000000000000
      0.000000000000
      0.000000000000
      0.000000000000
      0.000000000000
      0.000000000000
      0.000000000000
      0.000000000000
      0.000000000000
      0.000000000000
      0.000000000000
      0.000000000000
      0.000000000000
      0.000000000000
      0.000000000000
      0.000000000000
      0.000000000000
SCALARS C_p float 1
LOOKUP_TABLE default
      0.198705023577
      0.445591450534
      0.155681197805
      0.134231016509
      0.052989683220
      0.031002840452
      0.074930089328
      0.051460199172
      0.299955207095
      0.236670056412
      0.614835470785
      0.609718084277
     -0.554056524150
      0.068907970587
     -0.678906101551
     -0.426571733186
     -0.476053697232
     -0.473090964044
     -0.352188575847
     -0.297070828398
     -0.205333347877
     -0.123219084625
     -0.496934574463
      0.055868838119
      0.153359006139
      0.206190784104
      0.107533124795
      0.153161009398
      0.056805139522
      0.053376403899
      0.052162650750
      0.048880763767
      0.225880112671
      0.235124743460
      0.526127449325
      0.491882952301
     -0.893759758039
     -0.543121137734
     -0.837365847844
     -0.664269794021
     -0.501910254854
     -0.492592171819
     -0.298136003477
     -0.238047431830
     -0.123080667605
     -0.024898509939
      0.058913752462
      0.126077447381
      0.148522372794
      0.154729205070
      0.092827088768
      0.107909786632
      0.045506978369
      0.056687373054
      0.048940609286
      0.056126785428
      0.233120755848
      0.255731451023
      0.494581872327
      0.457332975301
     -1.122963592340
     -0.890562418606
     -0.932954690900
     -0.838141750741
     -0.503452844433
     -0.518164163488
     -0.239049758542
     -0.198230045631
     -0.024575175799
      0.002641216993
      0.124092268242
      0.132084102347
      0.141110748609
      0.147989901886
      0.084423031991
      0.092604297426
      0.037732129842
      0.045407713566
      0.055978537535
      0.056302498872
      0.256430682793
      0.270268719687
      0.467604736363
      0.444206683664
     -1.228537510582
     -1.123259773236
     -0.969046673918
     -0.939553767075
     -0.502019308528
     -0.513885688016
     -0.198795688387
     -0.183309008546
      0.002645627993
      0.015214374531
      0.132491016729
      0.142447821417
      0.131157875887
      0.139673565350
      0.071213772290
      0.083738625555
      0.025330813602
      0.037556106638
      0.055982202177
      0.047296524097
      0.269779118107
      0.268443605799
      0.447396406978
      0.444498596362
     -1.239056051558
     -1.229119531508
     -0.965917597707
     -0.973190307814
     -0.489929695944
     -0.507308560817
     -0.184175337738
     -0.166392837106
      0.015228997484
      0.034514081040
      0.143786772034
      0.159937815858
      0.117658609454
      0.127567997927
      0.049740855580
      0.069401480369
     -0.000994426434
      0.024881367398
      0.046444962271
      0.021492950399
      0.265748314007
      0.248827469703
      0.440475744390
      0.455587439545
     -1.173969371856
     -1.239475262031
     -0.925460941676
     -0.969920145001
     -0.455616892228
     -0.496142020405
     -0.167464617847
     -0.127548651390
      0.034391537573
      0.083534555138
      0.162693911115
      0.209927633932
      0.224016053425
      0.108142662149
      0.044027934375
      0.043299895970
     -0.043754267519
     -0.002920859615
      0.018470264198
     -0.031990207042
      0.241272795371
      0.205091496598
      0.441041836648
      0.470296344501
     -1.055884537179
     -1.174173024312
     -0.856213712930
     -0.931128049405
     -0.397889494071
     -0.466616264112
     -0.128240404603
     -0.061112791573
      0.083070400278
      0.188567099874
      0.214657431473
      0.414951008402
    -21.667457892341
     -0.373742825794
      0.177480119241
     -0.089860469428
     -0.374447293093
     -0.053517230357
     -0.044226330721
     -0.102322497077
      0.183321659013
      0.120468857221
      0.431926762950
      0.475249266401
     -0.907573619655
     -1.055351758631
     -0.765347679014
     -0.864789816026
     -0.318300247877
     -0.420601428897
     -0.061244522425
     -0.220988541544
      0.162886824917
      0.199557171713
     -0.663198185918
    -21.153218707481
********************
 -30510.485663233325
 -17877.621636040472
      0.609097594610
     -0.638411567388
     -0.361894199844
     -0.171149681139
     -0.191111829977
      0.050532237376
      0.018801502802
      0.315196692954
      0.422032604131
     -0.698563686770
     -0.904438595619
     -0.529962325867
     -0.811898258833
     -0.289077967918
     -0.364765326346
     -0.271255507688
     -1.981969675851
      0.112076274746
 -17761.442901657440
 -30325.846630284530
********************
********************
-772420.457356893690
 -30576.952444411658
    -71.596624794308
     -0.552750674191
     -0.504574832553
     -0.352845016037
     -0.215558686838
     -0.253536775964
     -0.104318753932
     -0.702593628715
     -0.455690006704
     -0.651601448104
     -0.425728819152
     -0.427539053126
      0.785175299171
    -96.860663329693
 -30856.618063171874
-768911.742289610789
********************
********************
********************
 -32018.182684593987
    -89.911266009102
     -0.655336674945
     -0.756465711265
     -0.570561771731
     -0.451667005353
     -0.506049805585
     -0.382784327292
     -0.590346250948
     -0.571402931270
     -0.576827503715
     -0.602661135110
     -0.596237406223
      0.915648549393
   -129.721797818839
 -32279.032825432379
********************
********************
VECTORS v float
    143.612391845992     22.302187851365     12.949886250192
    115.510294062604     36.275464563791      8.458332401357
    148.918825150112      2.866933476283     15.737549487759
    150.788905606432      3.805644122796     15.837902045341
    157.794778413759     -3.200232157689     15.864536741015
    159.684228953942      0.534669686144     15.682687388744
    156.727926320591      3.490972319511      1.533844893136
    158.682287269013     -4.361447927354      1.632007123991
    133.325440748932     20.995398592727    -19.570646124219
    140.348513039064      2.452702319983    -24.024829036625
     74.419574300650     68.381639015949     -4.372045645679
     73.264322046809     70.698569457534     -1.857851046983
    158.862012424005    -14.899120919662    125.819732135117
    134.929093778094     33.099833060444     73.734149707401
    203.899696819117    -35.870767843901     41.773889733491
    191.659167233364     -3.552657970679     34.010683847323
    197.785912918010     -9.679403655324     -2.076650625189
    197.618677429165     -9.007468750129     -2.068250841787
    188.628568304352     -0.017359625269    -18.589276203408
    184.482720578260     -8.212510827451    -18.988294122087
    177.897851595796     -1.627638580541    -19.344428397018
    171.635445907953     -4.771134576981    -19.008362428800
    195.846960377953    -28.982649046981    -24.000601531070
    157.077813331580     -9.705368619042    -17.804134883833
    148.663471745012     13.630461691289     14.414827390598
    143.556494533360     17.341117788844     13.473513583062
    152.986931901921      7.910676616415     15.632410883373
    148.984931685693      8.626609710226     15.124049617203
    157.540340654327      0.071201891897     15.517095244996
    157.827998388158      0.254114443833     15.527416895056
    158.682664045495     -0.600551098591      1.594365716674
    158.952791906666     -1.312812645833      1.604199335351
    140.773152492041     16.866829213058    -21.587517138399
    139.728235485582     18.821877554178    -21.064848075206
     76.997696890012     81.552420366654      3.298060771803
     70.589412814145     91.087803860493     14.842797133411
    176.181972084528    -14.504755409891    138.075442401029
    164.815303579191      2.408588421931    117.598043845883
    211.755061094160    -44.531172248447     44.651338284001
    204.068256685958    -30.149100012646     40.806403160740
    198.259516458916    -24.340359004615     -2.228142327366
    197.784569606134    -23.088039534180     -2.210852604126
    184.467730912880     -9.771202631423    -19.140410846289
    179.925766116447    -12.659295924289    -18.977437403560
    171.640009294650     -4.373540216541    -18.966012045091
    164.004944975160     -3.007677224301    -17.996122137157
    157.229616649305      3.767653834455    -16.382092165893
    151.396328574411      8.006038802949    -15.306970222950
    149.229373049493     11.752815503817     14.675647318890
    148.647792480091     12.238884049313     14.561705206692
    154.291614856380      6.595063038759     15.914766949462
    152.979445758955      7.258431947525     15.701885871736
    158.487583754113      1.750293508067     15.444978476203
    157.556599617195      1.761874878341     15.352097554402
    158.952960045926      0.365514336976      1.587401584914
    158.344032864685      1.572330300886      1.569226412328
    139.767333187212     20.149028480199    -20.840438165332
    137.125967611292     24.156990795283    -19.681968401645
     70.488511827155     90.794451955126     14.703449551572
     64.694586530294     98.203840143632     24.263891566272
    184.056638469941    -21.158211796014    148.595099493946
    176.998206856366    -12.131754382376    136.948195333756
    215.858665335249    -50.992215996169     46.491974468669
    211.748454065750    -44.755450468606     44.689260785529
    197.506803027051    -30.513800578457     -2.282401375568
    198.258748689045    -32.004060920738     -2.304845452634
    179.916128618631    -13.661439370762    -19.075239760056
    176.911392651193    -13.624060688962    -18.775468114809
    164.030930871966     -0.743597870765    -17.754960582230
    161.851439638165      0.358248484005    -17.401397954946
    151.427606890806     10.782078708926    -15.013966002011
    150.694010909808     11.395196260928    -14.870173597815
    149.880123969442     11.764143334848     14.743876379985
    149.235917089944     12.333623522658     14.614344936264
    155.006591938158      6.562949988838     15.995268243859
    154.296546512095      7.024744227083     15.868998855341
    159.130548074861      2.190743765363     15.464939488386
    158.493662514990      2.382387947765     15.383290561999
    158.344128999048      2.531921463706      1.559622222833
    158.316191343856      2.579223324866      1.558869103243
    137.114877252641     23.780537415827    -19.745623947782
    135.448129475763     26.053411087182    -19.059233428001
     64.337065789471     97.164458575572     23.770143350181
     61.139420830021    100.978566117012     28.847409368284
    187.095835005347    -24.977848058314    153.561937825379
    184.009200390265    -21.296131206628    148.660613083902
    217.079156812612    -54.366080096196     47.292389364774
    215.810247751982    -52.635724868757     46.769877808194
    196.888737000940    -33.714214117941     -2.308249737925
    197.506377635945    -34.759955120973     -2.324899569255
    176.906240361453    -14.159817846481    -18.827754101019
    175.781760253094    -13.821451383226    -18.683610252045
    161.848609836901      0.111695859397    -17.427659847112
    160.831342371900      0.773298958083    -17.246756293552
    150.688611973852     10.916027045908    -14.920749024462
    149.764922175585     11.732569821111    -14.734949063839
    150.695601430563     12.555589014876     14.746500925127
    149.897116758441     13.272307681076     14.584693295712
    156.106096607907      7.063325335090     16.059804515475
    155.020944516287      7.813447945626     15.862069540478
    160.149961207124      2.684431254735     15.516744749042
    159.139014214475      3.071086347933     15.379024228297
    158.316323039331      3.893777523077      1.545712223060
    159.068339949798      2.681694795708      1.565372129659
    135.455240771365     26.294793974389    -19.018416559634
    135.618519431813     26.079169323977    -19.084442670167
     61.031860899319    100.665842852245     28.698865849122
     60.656802178315    101.104349126060     29.287876852952
    187.304975597227    -25.543824292852    154.122806199666
    187.016971386783    -25.207118818135    153.670850869101
    216.737629591038    -54.927782997778     47.330785200368
    217.050439094895    -55.340874053561     47.457221115466
    195.975673409640    -34.266108368083     -2.304634567252
    196.888534309328    -35.737435559803     -2.328499402894
    175.774052285687    -14.622953536162    -18.761831502199
    174.484378714192    -14.129694385515    -18.586140276244
    160.817158813217     -0.462474484397    -17.378386416639
    159.246556466580      0.623218880777    -17.092139497830
    149.746786854265     10.122992312782    -14.904835030326
    148.238855857625     11.476510791433    -14.599434391047
    151.670262992703     15.044677081548     14.584835297206
    150.732982176009     15.873235095087     14.396331304132
    157.837042221187      8.769175049908     16.062530308623
    156.138355468963      9.873954185778     15.760426652335
    162.288051079148      3.724255774218     15.624957977486
    160.166101563459      4.362770106134     15.352950744237
    159.068618313056      5.460253356537      1.537562578624
    161.220681343404      1.816547560227      1.595576068063
    135.656852776764     27.380376126562    -18.864420028433
    137.715218336837     24.573469758405    -19.712082080168
     60.791827285779    101.496878329480     29.474351085986
     62.755783060705     99.154295522391     26.355923254910
    185.349669293918    -23.439590710823    151.182928668497
    187.249352016256    -25.705530331487    154.199624243323
    214.802169471811    -53.258354062453     46.702756579674
    216.710160979091    -55.860198994562     47.488447323858
    193.855077538038    -33.005115553781     -2.270786122680
    195.975440080308    -36.595148548446     -2.327945057324
    174.475097368704    -15.094805836842    -18.680328329832
    171.525574518752    -14.207268753812    -18.302210777461
    159.217604457839     -1.899293086242    -17.360828168993
    155.152172314864      0.744754879057    -16.637883599617
    148.196311901734      7.700615292189    -14.997971143918
    143.724944568248     11.653312466448    -14.098698928110
    139.488781099298     32.070332230560     11.466961873823
    151.746664760032     21.825548379200     13.869130524906
    157.852993969693     15.719219169539     15.315360103619
    157.916443028799     15.687142365004     15.325653315088
    165.609088049118      7.994497344685     15.531423033919