# vtk DataFile Version 3.0
TriPan results file. Generated by TriPan, USU AeroLab (c) 2021.
ASCII
DATASET POLYDATA
POINTS                  34 float
     19.928474426300      0.928174138069      0.000000000000
     99.336976112862      0.928174138069     11.867680092691
     19.000301361100      0.000000000000      0.000000000000
     99.316697738566      0.000000000000     12.003365863366
     21.262266159100      2.261965751650      0.000000000000
     99.366116290492      2.261965751650     11.672698611359
     23.139236450200      4.138934612270      0.000000000000
     99.407123627952      4.138934612270     11.398312109497
     25.704246521000      6.703944683070      0.000000000000
     99.463162998452      6.703944683070     11.023343925982
     29.072515487700     10.072214126600      0.000000000000
     99.536751665693     10.072214126600     10.530950656103
     33.271335601800     14.271034240700      0.000000000000
     99.628485900470     14.271034240700      9.917142558811
     38.178768158000     19.178466796900      0.000000000000
     99.735701632039     19.178466796900      9.199745347677
     43.500301361100     24.500000000000      0.000000000000
     99.851964478019     24.500000000000      8.421812480512
     48.821834564200     29.821533203100      0.000000000000
     99.968227323999     29.821533203100      7.643879613348
     53.729267120400     34.728965759300      0.000000000000
    100.075443055568     34.728965759300      6.926482402214
     57.928085327100     38.927783966100      0.000000000000
    100.167177248673     38.927783966100      6.312674583757
     61.296356201200     42.296054840100      0.000000000000
    100.240765957586     42.296054840100      5.820281035043
     63.861366272000     44.861064910900      0.000000000000
    100.296805328086     44.861064910900      5.445312851527
     65.738334655800     46.738033294700      0.000000000000
    100.337812623876     46.738033294700      5.170926628486
     67.072128295900     48.071826934800      0.000000000000
    100.366952843176     48.071826934800      4.975944868334
     68.000297546400     49.000000000000      0.000000000000
    100.387231134130     49.000000000000      4.840259655314
POLYGONS                  32                 128
3                   0                   1                   3
3                   0                   3                   2
3                   4                   5                   1
3                   4                   1                   0
3                   6                   7                   5
3                   6                   5                   4
3                   8                   9                   7
3                   8                   7                   6
3                  10                  11                   9
3                  10                   9                   8
3                  12                  13                  11
3                  12                  11                  10
3                  14                  15                  13
3                  14                  13                  12
3                  16                  17                  15
3                  16                  15                  14
3                  18                  19                  17
3                  18                  17                  16
3                  20                  21                  19
3                  20                  19                  18
3                  22                  23                  21
3                  22                  21                  20
3                  24                  25                  23
3                  24                  23                  22
3                  26                  27                  25
3                  26                  25                  24
3                  28                  29                  27
3                  28                  27                  26
3                  30                  31                  29
3                  30                  29                  28
3                  32                  33                  31
3                  32                  31                  30
POINT_DATA                  34
SCALARS mu float 1
LOOKUP_TABLE default
     -4.364803282926
     -4.364803282926
     -4.335956345967
     -4.335956345967
     -4.430272987839
     -4.430272987839
     -4.524411211819
     -4.524411211819
     -4.636249298715
     -4.636249298715
     -4.761570333815
     -4.761570333815
     -4.865852367894
     -4.865852367894
     -4.938108438994
     -4.938108438994
     -4.954734660418
     -4.954734660418
     -4.878870968002
     -4.878870968002
     -4.677487120623
     -4.677487120623
     -4.327542666120
     -4.327542666120
     -3.814166781623
     -3.814166781623
     -3.141477666064
     -3.141477666064
     -2.336833849979
     -2.336833849979
     -1.343281129174
     -1.343281129174
      0.000000000000
      0.000000000000
