# vtk DataFile Version 3.0
MachLine results file. Generated by MachLine, USU AeroLab (c) 2023.
ASCII
DATASET POLYDATA
POINTS                   7 float
  0.567036768980E+00  0.000000000000E+00  0.000000000000E+00
  0.283518384490E+00  0.000000000000E+00 -0.291561459230E-01
  0.283518384490E+00  0.176355406690E+01  0.000000000000E+00
  0.000000000000E+00  0.000000000000E+00  0.000000000000E+00
  0.283518384490E+00  0.000000000000E+00  0.291561459230E-01
  0.283518384490E+00 -0.176355406690E+01  0.000000000000E+00
  0.567036768980E+00  0.000000000000E+00  0.000000000000E+00
POLYGONS                   8                  32
3                   0                   1                   2
3                   1                   3                   2
3                   3                   4                   2
3                   4                   6                   2
3                   0                   5                   1
3                   1                   5                   3
3                   3                   5                   4
3                   4                   5                   6
CELL_DATA                   8
NORMALS normals float
  0.102283551729E+00  0.164436508585E-01 -0.994619365080E+00
 -0.102283551729E+00  0.164436508585E-01 -0.994619365080E+00
 -0.102283551729E+00  0.164436508585E-01  0.994619365080E+00
  0.102283551729E+00  0.164436508585E-01  0.994619365080E+00
  0.102283551729E+00 -0.164436508585E-01 -0.994619365080E+00
 -0.102283551729E+00 -0.164436508585E-01 -0.994619365080E+00
 -0.102283551729E+00 -0.164436508585E-01  0.994619365080E+00
  0.102283551729E+00 -0.164436508585E-01  0.994619365080E+00
SCALARS inclination float 1
LOOKUP_TABLE default
  0.100000000000E+01
  0.100000000000E+01
  0.100000000000E+01
  0.100000000000E+01
  0.100000000000E+01
  0.100000000000E+01
  0.100000000000E+01
  0.100000000000E+01
SCALARS distribution_order float 1
LOOKUP_TABLE default
  0.100000000000E+01
  0.100000000000E+01
  0.100000000000E+01
  0.100000000000E+01
  0.100000000000E+01
  0.100000000000E+01
  0.100000000000E+01
  0.100000000000E+01
SCALARS N_discontinuous_edges float 1
LOOKUP_TABLE default
  0.200000000000E+01
  0.200000000000E+01
  0.200000000000E+01
  0.200000000000E+01
  0.200000000000E+01
  0.200000000000E+01
  0.200000000000E+01
  0.200000000000E+01
VECTORS centroid float
  0.378024512653E+00  0.587851355633E+00 -0.971871530767E-02
  0.189012256327E+00  0.587851355633E+00 -0.971871530767E-02
  0.189012256327E+00  0.587851355633E+00  0.971871530767E-02
  0.378024512653E+00  0.587851355633E+00  0.971871530767E-02
  0.378024512653E+00 -0.587851355633E+00 -0.971871530767E-02
  0.189012256327E+00 -0.587851355633E+00 -0.971871530767E-02
  0.189012256327E+00 -0.587851355633E+00  0.971871530767E-02
  0.378024512653E+00 -0.587851355633E+00  0.971871530767E-02
SCALARS C_p_ise float 1
LOOKUP_TABLE default
 -0.939302397134E-01
  0.965758248789E-01
 -0.238985431644E+00
 -0.405004061037E-01
 -0.939302397213E-01
  0.965758248684E-01
 -0.238985431636E+00
 -0.405004060930E-01
SCALARS sigma float 1
LOOKUP_TABLE default
  0.000000000000E+00
  0.000000000000E+00
  0.000000000000E+00
  0.000000000000E+00
  0.000000000000E+00
  0.000000000000E+00
  0.000000000000E+00
  0.000000000000E+00
VECTORS v float
  0.104580308628E+01  0.113166164079E-01  0.107701515435E+00
  0.950067254693E+00  0.147665639213E-01 -0.100973834998E+00
  0.111434999076E+01 -0.116444074262E-01  0.114707458981E+00
  0.101971791386E+01 -0.152709522005E-01 -0.104649646807E+00
  0.104580308628E+01 -0.113166167661E-01  0.107701515441E+00
  0.950067254694E+00 -0.147665642795E-01 -0.100973834992E+00
  0.111434999076E+01  0.116444070680E-01  0.114707458975E+00
  0.101971791386E+01  0.152709518423E-01 -0.104649646813E+00
VECTORS v_inner float
 -0.333333333333E+00  0.000000000000E+00 -0.333333333333E-01
 -0.333333333333E+00  0.000000000000E+00 -0.333333333333E-01
 -0.333333333333E+00  0.000000000000E+00 -0.333333333333E-01
 -0.333333333333E+00  0.000000000000E+00 -0.333333333333E-01
 -0.333333333333E+00  0.000000000000E+00 -0.333333333333E-01
 -0.333333333333E+00  0.000000000000E+00 -0.333333333333E-01
 -0.333333333333E+00  0.000000000000E+00 -0.333333333333E-01
 -0.333333333333E+00  0.000000000000E+00 -0.333333333333E-01
VECTORS dC_f float
  0.241487318418E-02  0.388227929485E-03 -0.234825599287E-01
  0.248288911486E-02 -0.399162534296E-03  0.241439562201E-01
 -0.614412900519E-02  0.987763041884E-03  0.597463579120E-01
  0.104123384489E-02  0.167394322137E-03  0.101251015261E-01
  0.241487318439E-02 -0.388227929518E-03 -0.234825599307E-01
  0.248288911459E-02  0.399162534253E-03  0.241439562175E-01
 -0.614412900498E-02 -0.987763041851E-03  0.597463579100E-01
  0.104123384462E-02 -0.167394322092E-03  0.101251015234E-01
POINT_DATA                   7
SCALARS mu float 1
LOOKUP_TABLE default
  0.745386585068E+00
  0.352224940877E+00
  0.376174986060E+00
 -0.117992635008E-01
  0.400903492116E+00
  0.376174986689E+00
  0.784683577681E+00
SCALARS Phi_u float 1
LOOKUP_TABLE default
  0.560091990632E+00
  0.260447428015E+00
  0.283545054005E+00
 -0.118581130604E-01
  0.307425023490E+00
  0.283545054636E+00
  0.599584979436E+00
SCALARS convex float 1
LOOKUP_TABLE default
  0.100000000000E+01
  0.100000000000E+01
  0.100000000000E+01
  0.100000000000E+01
  0.100000000000E+01
  0.100000000000E+01
  0.100000000000E+01
VECTORS CFx_sensitivity_adjoint float
  0.228119282166E-02 -0.328960268074E-05  0.162643818208E+00
 -0.633226322626E-03 -0.165682518578E-04 -0.384896671061E+00
  0.910790174109E-02 -0.243323639749E-03 -0.237584442238E-02
 -0.684730832332E-04  0.134269337808E-09  0.633276334149E+00
 -0.198129327188E-01  0.203282126561E-04 -0.406273071334E+00
  0.910814841792E-02  0.243807771212E-03 -0.237667365809E-02
  0.228119282166E-02 -0.328960268074E-05  0.162643818208E+00
VECTORS CFy_sensitivity_adjoint float
 -0.115315284241E-09  0.219246816210E-03  0.129217064532E-08
 -0.375453536057E-12 -0.138185623397E-03  0.281210108924E-11
  0.124747101619E-03 -0.329043555989E-05 -0.399951366404E-01
  0.236342535349E-12  0.900440796584E-04  0.164132984309E-12
 -0.363736079575E-12 -0.164524565845E-03  0.285758228112E-11
 -0.124746984697E-03 -0.329027106658E-05  0.399951353425E-01
 -0.115315284241E-09  0.219246816210E-03  0.129217064532E-08
VECTORS CFz_sensitivity_adjoint float
 -0.127018664061E-01  0.949500522903E-03 -0.274125119538E+01
 -0.139343823268E+01  0.733148675467E-02  0.125294738787E+00
 -0.520959153186E-02  0.662593660154E-01  0.819366301875E-01
 -0.125263570528E+00  0.255316044620E-09  0.176701548439E+01
  0.154973344348E+01 -0.899608186653E-02  0.685652418473E+00
 -0.540869387417E-02 -0.659667044736E-01  0.822864573579E-01
 -0.127018664061E-01  0.949500522903E-03 -0.274125119538E+01
