# vtk DataFile Version 3.0
MachLine results file. Generated by MachLine, USU AeroLab (c) 2023.
ASCII
DATASET POLYDATA
POINTS                   7 float
  0.567036768980E+00  0.000000000000E+00  0.000000000000E+00
  0.283518384490E+00  0.000000000000E+00 -0.291561459230E-01
  0.283518384490E+00  0.176355406690E+01  0.000000000000E+00
  0.000000000000E+00  0.000000000000E+00  0.000000000000E+00
  0.283518384490E+00  0.000000000000E+00  0.291561459230E-01
  0.283518384490E+00 -0.176355406690E+01  0.000000000000E+00
  0.567036768980E+00  0.000000000000E+00  0.000000000000E+00
POLYGONS                   8                  32
3                   0                   1                   2
3                   1                   3                   2
3                   3                   4                   2
3                   4                   6                   2
3                   0                   5                   1
3                   1                   5                   3
3                   3                   5                   4
3                   4                   5                   6
CELL_DATA                   8
NORMALS normals float
  0.102283551729E+00  0.164436508585E-01 -0.994619365080E+00
 -0.102283551729E+00  0.164436508585E-01 -0.994619365080E+00
 -0.102283551729E+00  0.164436508585E-01  0.994619365080E+00
  0.102283551729E+00  0.164436508585E-01  0.994619365080E+00
  0.102283551729E+00 -0.164436508585E-01 -0.994619365080E+00
 -0.102283551729E+00 -0.164436508585E-01 -0.994619365080E+00
 -0.102283551729E+00 -0.164436508585E-01  0.994619365080E+00
  0.102283551729E+00 -0.164436508585E-01  0.994619365080E+00
SCALARS inclination float 1
LOOKUP_TABLE default
  0.100000000000E+01
  0.100000000000E+01
  0.100000000000E+01
  0.100000000000E+01
  0.100000000000E+01
  0.100000000000E+01
  0.100000000000E+01
  0.100000000000E+01
SCALARS distribution_order float 1
LOOKUP_TABLE default
  0.100000000000E+01
  0.100000000000E+01
  0.100000000000E+01
  0.100000000000E+01
  0.100000000000E+01
  0.100000000000E+01
  0.100000000000E+01
  0.100000000000E+01
SCALARS N_discontinuous_edges float 1
LOOKUP_TABLE default
  0.200000000000E+01
  0.200000000000E+01
  0.200000000000E+01
  0.200000000000E+01
  0.200000000000E+01
  0.200000000000E+01
  0.200000000000E+01
  0.200000000000E+01
VECTORS centroid float
  0.378024512653E+00  0.587851355633E+00 -0.971871530767E-02
  0.189012256327E+00  0.587851355633E+00 -0.971871530767E-02
  0.189012256327E+00  0.587851355633E+00  0.971871530767E-02
  0.378024512653E+00  0.587851355633E+00  0.971871530767E-02
  0.378024512653E+00 -0.587851355633E+00 -0.971871530767E-02
  0.189012256327E+00 -0.587851355633E+00 -0.971871530767E-02
  0.189012256327E+00 -0.587851355633E+00  0.971871530767E-02
  0.378024512653E+00 -0.587851355633E+00  0.971871530767E-02
SCALARS C_p_ise float 1
LOOKUP_TABLE default
 -0.757629601984E-01
  0.108788666501E+00
 -0.257628054028E+00
 -0.633607960861E-01
 -0.757629601984E-01
  0.108788666501E+00
 -0.257628054028E+00
 -0.633607960861E-01
SCALARS sigma float 1
LOOKUP_TABLE default
  0.000000000000E+00
  0.000000000000E+00
  0.000000000000E+00
  0.000000000000E+00
  0.000000000000E+00
  0.000000000000E+00
  0.000000000000E+00
  0.000000000000E+00
VECTORS v float
  0.103697603265E+01  0.124905774042E-01  0.106819437699E+00
  0.943655433444E+00  0.159200178920E-01 -0.100615513941E+00
  0.112293123794E+01 -0.129013193280E-01  0.115604618960E+00
  0.103097209049E+01 -0.165521862789E-01 -0.105223650868E+00
  0.103697603265E+01 -0.124905774042E-01  0.106819437699E+00
  0.943655433444E+00 -0.159200178920E-01 -0.100615513941E+00
  0.112293123794E+01  0.129013193280E-01  0.115604618960E+00
  0.103097209049E+01  0.165521862789E-01 -0.105223650868E+00
VECTORS v_inner float
 -0.333333333333E+00  0.000000000000E+00 -0.333333333333E-01
 -0.333333333333E+00  0.000000000000E+00 -0.333333333333E-01
 -0.333333333333E+00  0.000000000000E+00 -0.333333333333E-01
 -0.333333333333E+00  0.000000000000E+00 -0.333333333333E-01
 -0.333333333333E+00  0.000000000000E+00 -0.333333333333E-01
 -0.333333333333E+00  0.000000000000E+00 -0.333333333333E-01
 -0.333333333333E+00  0.000000000000E+00 -0.333333333333E-01
 -0.333333333333E+00  0.000000000000E+00 -0.333333333333E-01
VECTORS dC_f float
  0.194780660090E-02  0.313139807364E-03 -0.189407400499E-01
  0.279687174521E-02 -0.449640061346E-03  0.271971666256E-01
 -0.662341628280E-02  0.106481582819E-02  0.644070135080E-01
  0.162895663701E-02  0.261879781741E-03  0.158401990218E-01
  0.194780660090E-02 -0.313139807364E-03 -0.189407400499E-01
  0.279687174521E-02  0.449640061346E-03  0.271971666256E-01
 -0.662341628280E-02 -0.106481582819E-02  0.644070135080E-01
  0.162895663701E-02 -0.261879781741E-03  0.158401990218E-01
POINT_DATA                   7
SCALARS mu float 1
LOOKUP_TABLE default
  0.740843332012E+00
  0.350197490074E+00
  0.376182013870E+00
 -0.120074714277E-01
  0.403142179211E+00
  0.376182013870E+00
  0.790113848279E+00
SCALARS Phi_u float 1
LOOKUP_TABLE default
  0.555526077819E+00
  0.258409865175E+00
  0.283552116867E+00
 -0.120673594373E-01
  0.309674876176E+00
  0.283552116867E+00
  0.605042333846E+00
SCALARS convex float 1
LOOKUP_TABLE default
  0.100000000000E+01
  0.100000000000E+01
  0.100000000000E+01
  0.100000000000E+01
  0.100000000000E+01
  0.100000000000E+01
  0.100000000000E+01
VECTORS CFx_sensitivity_adjoint float
  0.105490809894E-02 -0.358054101881E-05  0.939602586836E-01
  0.216847834187E-02 -0.137234981692E-04 -0.374105843794E+00
  0.920404341874E-02 -0.295048069372E-03 -0.222738759561E-02
 -0.193682998533E-02 -0.455786515510E-09  0.684953996538E+00
 -0.196946409773E-01  0.158402458446E-04 -0.400353089684E+00
  0.920410896924E-02  0.296512321698E-03 -0.222792736187E-02
  0.105490809894E-02 -0.358054101881E-05  0.939602586836E-01
VECTORS CFy_sensitivity_adjoint float
 -0.162137185781E-09  0.237221884076E-03  0.178255241211E-08
 -0.198735018279E-12 -0.131249100122E-03  0.138263391573E-10
  0.153161597021E-03 -0.390998965484E-05 -0.501853142746E-01
 -0.391464870106E-12  0.665166602889E-04  0.684401094222E-11
 -0.198739927506E-12 -0.164669696210E-03  0.138263382159E-10
 -0.153161432541E-03 -0.390975837831E-05  0.501853124577E-01
 -0.162137185781E-09  0.237221884076E-03  0.178255241211E-08
VECTORS CFz_sensitivity_adjoint float
 -0.193516448982E-02  0.128693819268E-02 -0.452765770910E+01
 -0.113625844265E+01  0.666603257207E-02  0.101320305834E+01
 -0.124856173324E-01  0.818132367702E-01  0.997046825249E-01
 -0.102293367746E+00  0.597022407987E-09  0.145467248343E+01
  0.126565703787E+01 -0.798419426995E-02  0.186012978910E+01
 -0.126918447426E-01 -0.817820154403E-01  0.999469558210E-01
 -0.193516448982E-02  0.128693819268E-02 -0.452765770910E+01
