# vtk DataFile Version 3.0
MachLine results file. Generated by MachLine, USU AeroLab (c) 2022.
ASCII
DATASET POLYDATA
POINTS                 482 float
  0.236813288641E+00  0.000000000000E+00  0.686565968816E-16
  0.624814081843E+00  0.000000000000E+00 -0.216428737068E+00
  0.624814081843E+00  0.000000000000E+00  0.216428737068E+00
  0.936286588147E+00  0.579506026584E+00 -0.561895002135E-17
  0.134949075789E+01  0.639768029252E+00 -0.218865761583E+00
  0.134949075789E+01  0.639768029252E+00  0.218865761583E+00
  0.166333682055E+01  0.000000000000E+00 -0.417572791145E+00
  0.166333682055E+01  0.000000000000E+00  0.417572791145E+00
  0.201092498640E+01  0.156702214196E+01 -0.279641648794E-16
  0.240530328697E+01  0.164611001899E+01 -0.173337958184E+00
  0.240530328697E+01  0.164611001899E+01  0.173337958184E+00
  0.240761478271E+01  0.684598059678E+00 -0.420944840504E+00
  0.240761478271E+01  0.684598059678E+00  0.420944840504E+00
  0.344986477255E+01  0.289573058939E+01  0.174541604789E-16
  0.345037803883E+01  0.170398970512E+01 -0.366807975171E+00
  0.345037803883E+01  0.170398970512E+01  0.366807975171E+00
  0.347800745605E+01  0.000000000000E+00 -0.567847677909E+00
  0.347800745605E+01  0.000000000000E+00  0.567847677909E+00
  0.382075010340E+01  0.299831190111E+01 -0.115133872484E+00
  0.382075010340E+01  0.299831190111E+01  0.115133872484E+00
  0.422430015314E+01  0.716137624114E+00 -0.571459768044E+00
  0.422430015314E+01  0.716137624114E+00  0.571459768044E+00
  0.484917759257E+01  0.307283909445E+01 -0.297433607780E+00
  0.484917759257E+01  0.307283909445E+01  0.297433607780E+00
  0.534018405594E+01  0.465304866619E+01 -0.173147533833E-15
  0.526047475105E+01  0.174211864828E+01 -0.516294363350E+00
  0.526047475105E+01  0.174211864828E+01  0.516294363350E+00
  0.568323099534E+01  0.478346862540E+01 -0.439725145123E-01
  0.568323099534E+01  0.478346862540E+01  0.439725145123E-01
  0.612417134702E+01  0.000000000000E+00 -0.595279552601E+00
  0.612417134702E+01  0.000000000000E+00  0.595279552601E+00
  0.669135356720E+01  0.487830145179E+01 -0.212393034855E+00
  0.669135356720E+01  0.487830145179E+01  0.212393034855E+00
  0.665084364825E+01  0.311939966149E+01 -0.445466940557E+00
  0.665084364825E+01  0.311939966149E+01  0.445466940557E+00
  0.686955818900E+01  0.759312873477E+00 -0.590921055075E+00
  0.686955818900E+01  0.759312873477E+00  0.590921055075E+00
  0.776249866534E+01  0.692475051734E+01  0.171518464496E-15
  0.807478710201E+01  0.708592944887E+01  0.380216172375E-01
  0.807478710201E+01  0.708592944887E+01 -0.380216172375E-01
  0.790049533303E+01  0.179053183560E+01 -0.535989223717E+00
  0.790049533303E+01  0.179053183560E+01  0.535989223717E+00
  0.848270467544E+01  0.493517742996E+01 -0.358426458783E+00
  0.848270467544E+01  0.493517742996E+01  0.358426458783E+00
  0.905956171061E+01  0.720411070487E+01 -0.114183193516E+00
  0.905956171061E+01  0.720411070487E+01  0.114183193516E+00
  0.928414007832E+01  0.317453791780E+01 -0.465426284732E+00
  0.928414007832E+01  0.317453791780E+01  0.465426284732E+00
  0.936918949172E+01  0.000000000000E+00 -0.545743690960E+00
  0.936918949172E+01  0.000000000000E+00  0.545743690960E+00
  0.101159225602E+02  0.794960532146E+00 -0.454736260094E+00
  0.101159225602E+02  0.794960532146E+00  0.454736260094E+00
  0.107698779598E+02  0.977579734077E+01 -0.266148844492E-15
  0.110513600465E+02  0.996778311833E+01  0.125191640434E+00
  0.110513600465E+02  0.996778311833E+01 -0.125191640434E+00
  0.108390257876E+02  0.727287612994E+01 -0.257653312483E+00
  0.108390257876E+02  0.727287612994E+01  0.257653312483E+00
  0.111077391158E+02  0.499858060283E+01 -0.378608094034E+00
  0.111077391158E+02  0.499858060283E+01  0.378608094034E+00
  0.111445459163E+02  0.182849472198E+01 -0.419868581828E+00
  0.111445459163E+02  0.182849472198E+01  0.419868581828E+00
  0.120113534448E+02  0.101107474954E+02 -0.959230672239E-02
  0.120113534448E+02  0.101107474954E+02  0.959230672239E-02
  0.125250361739E+02  0.321565675889E+01 -0.372497616769E+00
  0.125250361739E+02  0.321565675889E+01  0.372497616769E+00
  0.126243136587E+02  0.000000000000E+00 -0.233171846172E+00
  0.126243136587E+02  0.000000000000E+00  0.233171846172E+00
  0.133819915766E+02  0.800835563401E+00 -0.246449036529E+00
  0.133819915766E+02  0.800835563401E+00  0.246449036529E+00
  0.134544920274E+02  0.734584847698E+01 -0.277940113121E+00
  0.134544920274E+02  0.734584847698E+01  0.277940113121E+00
  0.137781778782E+02  0.101921535121E+02 -0.150102654710E+00
  0.137781778782E+02  0.101921535121E+02  0.150102654710E+00
  0.143607290970E+02  0.132235146632E+02  0.358200537065E-15
  0.146155825426E+02  0.134421291046E+02  0.207904533946E+00
  0.146155825426E+02  0.134421291046E+02 -0.207904533946E+00
  0.143444079225E+02  0.504392766285E+01 -0.309313034721E+00
  0.143444079225E+02  0.504392766285E+01  0.309313034721E+00
  0.144109693642E+02  0.183401626208E+01 -0.225306739425E+00
  0.144109693642E+02  0.183401626208E+01  0.225306739425E+00
  0.153052613066E+02  0.000000000000E+00 -0.328042146203E-01
  0.153052613066E+02  0.000000000000E+00  0.328042146203E-01
  0.155520869150E+02  0.136085835290E+02  0.897721388398E-01
  0.155520869150E+02  0.136085835290E+02 -0.897721388398E-01
  0.157913137049E+02  0.322132611731E+01 -0.190270033220E+00
  0.157913137049E+02  0.322132611731E+01  0.190270033220E+00
  0.160648925436E+02  0.794659927807E+00 -0.502216371963E-01
  0.160648925436E+02  0.794659927807E+00  0.502216371963E-01
  0.163834337554E+02  0.102753390791E+02 -0.170340803960E+00
  0.163834337554E+02  0.102753390791E+02  0.170340803960E+00
  0.166857394972E+02  0.739662069831E+01 -0.228636182819E+00
  0.166857394972E+02  0.739662069831E+01  0.228636182819E+00
  0.170930631623E+02  0.182864877122E+01 -0.230723664070E-01
  0.170930631623E+02  0.182864877122E+01  0.230723664070E-01
  0.171723477555E+02  0.000000000000E+00  0.680462145376E-01
  0.171723477555E+02  0.000000000000E+00 -0.680462145376E-01
  0.173069204312E+02  0.137019833079E+02 -0.477608182868E-01
  0.173069204312E+02  0.137019833079E+02  0.477608182868E-01
  0.176096460679E+02  0.505063830948E+01 -0.135052453148E+00
  0.176096460679E+02  0.505063830948E+01  0.135052453148E+00
  0.184540795969E+02  0.172099332601E+02  0.254723380449E-15
  0.179308784442E+02  0.785350094203E+00  0.626997710838E-01
  0.179308784442E+02  0.785350094203E+00 -0.626997710838E-01
  0.186912126312E+02  0.174462690303E+02  0.273695681491E+00
  0.186912126312E+02  0.174462690303E+02 -0.273695681491E+00
  0.183249181351E+02  0.000000000000E+00  0.118153062387E+00
  0.183249181351E+02  0.000000000000E+00 -0.118153062387E+00
  0.184720186926E+02  0.321734839001E+01  0.223902251239E-01
  0.184720186926E+02  0.321734839001E+01 -0.223902251239E-01
  0.189576725578E+02  0.182071733764E+01  0.102578694882E+00
  0.189576725578E+02  0.182071733764E+01 -0.102578694882E+00
  0.188391380017E+02  0.129494027695E-02 -0.282518883299E-01
  0.190812628765E+02  0.779575073234E+00  0.132909556662E+00
  0.190812628765E+02  0.779575073234E+00 -0.132909556662E+00
  0.196090470060E+02  0.176313934661E+02  0.168873366163E+00
  0.196090470060E+02  0.176313934661E+02 -0.168873366163E+00
  0.196083004081E+02  0.103324949922E+02 -0.134101768364E+00
  0.196083004081E+02  0.103324949922E+02  0.134101768364E+00
  0.196157783120E+02  0.900019067971E+00 -0.151596691548E-01
  0.199024602820E+02  0.137948877555E+02 -0.678259770345E-01
  0.199024602820E+02  0.137948877555E+02  0.678259770345E-01
  0.199489762945E+02  0.740533366320E+01 -0.577859476918E-01
  0.199489762945E+02  0.740533366320E+01  0.577859476918E-01
  0.201067723114E+02  0.181622699691E+01  0.185052878217E+00
  0.201067723114E+02  0.181622699691E+01 -0.185052878217E+00
  0.202885132768E+02  0.504850029612E+01  0.907700212596E-01
  0.202885132768E+02  0.504850029612E+01 -0.907700212596E-01
  0.203349619247E+02  0.321108312517E+01  0.163389223979E+00
  0.203349619247E+02  0.321108312517E+01 -0.163389223979E+00
  0.206041595611E+02  0.197379950391E+01 -0.197146145061E-01
  0.213543437461E+02  0.177343329519E+02  0.338022472306E-01
  0.213543437461E+02  0.177343329519E+02 -0.338022472306E-01
  0.214831075765E+02  0.320754691663E+01  0.255166254059E+00
  0.214831075765E+02  0.320754691663E+01 -0.255166254059E+00
  0.219333557261E+02  0.341226066736E+01 -0.255424664644E-01
  0.221500231178E+02  0.504367034355E+01  0.244899927977E+00
  0.221500231178E+02  0.504367034355E+01 -0.244899927977E+00
  0.228810637673E+02  0.215867975191E+02  0.611503964226E-16
  0.226259884161E+02  0.740505455059E+01  0.179783442099E+00
  0.226259884161E+02  0.740505455059E+01 -0.179783442099E+00
  0.231130862555E+02  0.218282457318E+02  0.310411856421E+00
  0.231130862555E+02  0.218282457318E+02 -0.310411856421E+00
  0.228690046211E+02  0.103437443612E+02  0.346636415255E-01
  0.228690046211E+02  0.103437443612E+02 -0.346636415255E-01
  0.231207299943E+02  0.138586444364E+02 -0.366729847416E-01
  0.231207299943E+02  0.138586444364E+02  0.366729847416E-01
  0.232975862701E+02  0.504071661379E+01  0.342632245164E+00
  0.232975862701E+02  0.504071661379E+01 -0.342632245164E+00
  0.240205100458E+02  0.220237825143E+02  0.213046333828E+00
  0.240205100458E+02  0.220237825143E+02 -0.213046333828E+00
  0.239421415810E+02  0.178349832500E+02  0.139455486876E-01
  0.239421415810E+02  0.178349832500E+02 -0.139455486876E-01
  0.236910036873E+02  0.530226143951E+01 -0.326018791185E-01
  0.244865050967E+02  0.740121775905E+01  0.342870631782E+00
  0.244865050967E+02  0.740121775905E+01 -0.342870631782E+00
  0.255444234464E+02  0.103450604481E+02  0.280423095882E+00
  0.255444234464E+02  0.103450604481E+02 -0.280423095882E+00
  0.257604847986E+02  0.221320459064E+02  0.793855525672E-01
  0.257604847986E+02  0.221320459064E+02 -0.793855525672E-01
  0.256337481291E+02  0.739858606553E+01  0.444224248897E+00
  0.256337481291E+02  0.739858606553E+01 -0.444224248897E+00
[...]
POINT_DATA                 482
SCALARS BC_type int 1
LOOKUP_TABLE default
           2
           2
           2
           2
           2
           2
           2
           2
           2
           2
           2
           2
           2
           2
           2
           2
           2
           2
           2
           2
           2
           2
           2
           2
           2
           2
           2
           2
           2
           2
           2
           2
           2
           2
           2
           2
           2
           2
           2
           2
           2
           2
           2
           2
           2
           2
           2
           2
           2
           2
           2
           2
           2
           2
           2
           2
           2
           2
           2
           2
           2
           2
           2
           2
           2
           2
           2
           2
           2
           2
           2
           2
           2
           2
           2
           2
           2
           2
           2
           2
           2
           2
           2
           2
           2
           2
           2
           2
           2
           2
           2
           2
           2
           2
           2
           2
           2
           2
           2
           2
           2
           2
           2
           2
           2
           2
           2
           2
           2
           2
           2
           2
           2
           2
           2
           2
           2
           2
           2
           2
           2
           2
           2
           2
           2
           2
           2
           2
           2
           2
           2
           2
           2
           2
           2
           2
           2
           2
           2
           2
           2
           2
           2
           2
           2
           2
           2
           2
           2
           2
           2
           2
           2
           2
           2
           2
           2
           2
           2
           2
           2
           2
           2
           2
           2
           2
           2
           2
           2
           2
           2
           2
           2
           2
           2
           2
           2
           2
           2
           2
           2
           2
           2
           2
           2
           2
           2
           2
           2
           2
           2
           2
           2
           2
           2
           2
           2
           2
           2
           2
           2
           2
           2
           2
           2
           2
           2
           2
           2
           2
           2
           2
           2
           2
           2
           2
           2
           2
           2
           2
           2
           2
           2
           2
           2
           2
           2
           2
           2
           2
           2
           2
           2
           2
           2
           2
           2
           2
           2
           2
           2
           2
           2
           2
           2
           2
           2
           2
           2
           2
           2
           2
           2
           2
           2
           2
           2
           2
           2
           2
           2
           2
           2
           2
           2
           2
           2
           2
           2
           2
           2
           2
           2
           2
           2
           2
           2
           2
           2
           2
           2
           2
           2
           2
           2
           2
           2
           2
           2
           2
           2
           2
           2
           2
           2
           2
           2
           2
           2
           2
           2
           2
           2
           2
           2
           2
           2
           2
           2
           2
           2
           2
           2
           2
           2
           2
           2
           2
           2
           2
           2
           2
           2
           2
           2
           2
           2
           2
           2
           2
           2
           2
           2
           2
           2
           2
           2
           2
           2
           2
           2
           2
           2
           2
           2
           2
           2
           2
           2
           2
           2
           2
           2
           2
           2
           2
           2
           2
           2
           2
           2
           2
           2
           2
           2
           2
           2
           2
           2
           2
           2
           2
           2
           2
           2
           2
           2
           2
           2
           2
           2
           2
           2
           2
           2
           2
           2
           2
           2
           2
           2
           2
           2
           2
           2
           2
           2
           2
           2
           2
           2
           2
           2
           2
           2
           2
           2
           2
           2
           2
           2
           2
           2
           2
           2
           2
           2
           2
           2
           2
           2
           2
           2
           2
           2
           2
           2
           2
           2
           2
           2
           2
           2
           2
           2
           2
           2
           2
           2
           2
           2
           2
           2
           2
           2
           2
           2
           2
           2
           2
           2
           2
           2
           2
           2
           2
           2
           2
           2
           2
           2
           2
           2
           2
           2
           2
           2
           2
           2
           2
           2
           2
           2
           2
           2
           2
           2
           2
           2
           2
           2
           2
SCALARS residual float 1
LOOKUP_TABLE default
 -0.236630159911E-11
 -0.102962083304E-11
 -0.512034858957E-12
  0.879896155936E-11
 -0.387800902502E-11
 -0.322764037719E-11
 -0.196997973489E-11
  0.454747350886E-12
 -0.331605853887E-10
  0.144457779072E-10
  0.158695279140E-10
  0.298694402545E-11
  0.367439412230E-11
  0.119142029575E-09
 -0.657918164393E-11
 -0.637712105345E-11
  0.119459997450E-12
  0.106759046048E-11
 -0.673550104580E-10
 -0.639901465149E-10
 -0.221067608663E-11
  0.298427949019E-12
  0.211155537500E-10
  0.252766696462E-10
 -0.322990523216E-09
 -0.310862446895E-13
  0.385291798466E-11
  0.189456450528E-09
  0.228681074077E-09
 -0.119104726082E-11
  0.145483625147E-11
 -0.713828995913E-10
 -0.641220410103E-10
 -0.104742881035E-10
 -0.108180131519E-11
 -0.206856753948E-11
  0.303224112486E-11
  0.101623598425E-09
 -0.731432692191E-10
 -0.956212886649E-10
 -0.564082114352E-11
  0.369482222595E-11
  0.134630084858E-10
  0.218562945520E-10
  0.133795197144E-10
  0.465121274829E-10
 -0.602540239925E-11
  0.918376485970E-11
 -0.911271058612E-12
  0.129318777908E-11
 -0.621724893790E-11
  0.796696042471E-11
  0.387409215818E-09
 -0.231102248449E-09
 -0.234127384147E-09
 -0.632613961216E-10
  0.445350423206E-10
 -0.238973285605E-10
  0.161186619607E-10
 -0.102851061001E-10
  0.102637898181E-10
  0.891350993015E-09
 -0.806618771776E-09
 -0.175308656480E-10
  0.173212555410E-10
 -0.698463509252E-11
  0.499866814607E-11
 -0.179092296548E-10
  0.158539847916E-10
 -0.201438865588E-11
  0.882138806446E-11
  0.415155909650E-09
 -0.437854197344E-09
  0.496577001741E-09
 -0.108009601263E-09
 -0.441191971845E-09
 -0.278230771755E-10
  0.298605584703E-10
 -0.292370572197E-10
  0.290150126148E-10
 -0.113658416012E-09
  0.113493214826E-09
 -0.803655808568E-09
  0.894198493029E-09
 -0.418367562816E-10
  0.426982893487E-10
 -0.124654064848E-09
  0.125680799101E-09
 -0.604998717790E-09
  0.609517769590E-09
 -0.802167221536E-10
  0.779110109761E-10
 -0.651422027431E-09
  0.652530474099E-09
  0.159339208494E-10
 -0.176640924110E-10
 -0.170076006611E-07
  0.169685385742E-07
 -0.626627638667E-10
  0.634372554487E-10
  0.313647774419E-09
  0.406998879043E-10
 -0.407816003190E-10
 -0.126227917008E-09
 -0.224641638624E-09
  0.205702122003E-11
 -0.160582658282E-11
  0.614228667928E-10
 -0.594368998463E-10
  0.192059701476E-10
 -0.200550687168E-10
  0.103419495190E-10
 -0.117701404179E-10
  0.830482349556E-10
  0.171915814917E-10
 -0.196855864942E-10
  0.186375359590E-10
 -0.872098837590E-09
  0.399269950435E-08
 -0.165904623373E-09
  0.165975677646E-09
 -0.147402090533E-10
  0.158095758707E-10
  0.150350842887E-10
 -0.146762602071E-10
 -0.135784716804E-10
  0.124487087305E-10
  0.577184522399E-09
 -0.533926680646E-09
  0.483513673544E-09
  0.442312853011E-11
 -0.149285028783E-10
  0.159516844178E-11
 -0.788702436694E-12
 -0.119452892022E-09
  0.402167188440E-11
  0.771898100993E-10
  0.756585905037E-10
 -0.256552112887E-09
  0.255592880194E-09
  0.102577821792E-07
 -0.102620738573E-07
 -0.286703993879E-11
  0.290967250294E-11
 -0.337081473845E-10
 -0.286171086827E-10
 -0.912869779768E-10
  0.104702024828E-09
  0.192450499981E-10
  0.392574861507E-11
 -0.476418904327E-11
 -0.252136089784E-10
  0.256505927609E-10
  0.178985715138E-10
 -0.299138491755E-11
  0.544631006960E-11
  0.140758515954E-10
 -0.139031897106E-09
  0.140140343774E-09
 -0.382698317480E-10
 -0.322621929172E-10
  0.306918934712E-10
  0.218918216888E-10
  0.734701188776E-11
 -0.701660951563E-11
 -0.471800376545E-11
 -0.923350285120E-11
 -0.162714286489E-10
  0.598632254878E-11
 -0.513367126587E-11
  0.457234250462E-11
 -0.101714192624E-10
  0.113011822123E-10
  0.219237961119E-10
  0.277964318229E-10
 -0.209325889955E-10
 -0.167155178588E-10
  0.168647318333E-10
  0.721200876797E-11
 -0.698108237884E-11
 -0.706990022081E-12
  0.343902684108E-11
  0.558664225991E-10
  0.422417656409E-10
 -0.872546479513E-11
  0.873257022249E-11
 -0.107434061647E-10
 -0.270858890872E-10
  0.467750282951E-10
  0.575752778786E-10
 -0.576179104428E-10
  0.383693077310E-12
 -0.495248286825E-11
  0.121026744182E-09
 -0.103966613096E-09
  0.530064880877E-11
  0.417799128627E-11
 -0.254374299402E-11
 -0.112144959985E-09
  0.974154090727E-10
  0.597353277954E-10
  0.428386215390E-10
 -0.418296508542E-10
 -0.136566313813E-10
  0.143245415529E-10
  0.177990955308E-10
 -0.767457208894E-10
  0.869562200023E-10
  0.177621473085E-09
 -0.181472614713E-09
  0.296296320812E-11
 -0.363087337973E-11
 -0.399694499720E-09
  0.423007406880E-09
 -0.134093625093E-09
  0.148055789850E-09
  0.207762695936E-10
 -0.210746975426E-10
  0.184741111298E-12
  0.994759830064E-13
  0.384474674320E-10
 -0.106737729766E-09
  0.203428385248E-09
 -0.201808347811E-09
 -0.165769620253E-10
  0.198880911739E-10
  0.139422695611E-09
 -0.253493226410E-08
  0.253177034892E-08
 -0.898054963727E-10
  0.859756710270E-12
 -0.873967564985E-12
  0.174509295903E-10
  0.103845820831E-09
 -0.398266308821E-09
  0.421863433075E-09
  0.413372447383E-09
  0.756443796490E-10
 -0.729585281078E-10
  0.249400500252E-11
 -0.204636307899E-11
  0.165911728800E-10
 -0.118703269436E-08
  0.116102683023E-08
  0.719722947906E-09
 -0.717044201792E-09
 -0.209730899314E-09
  0.204373407087E-09
  0.607869310443E-10
 -0.515001374879E-10
 -0.343263195646E-10
  0.362234686690E-10
  0.374740238840E-09
 -0.358781448995E-09
  0.231928254379E-09
  0.248689957516E-12
  0.293823632092E-09
 -0.289560375677E-09
 -0.603961325396E-11
  0.400035560233E-11
 -0.490274487674E-12
 -0.800596922090E-09
  0.799865063073E-09
 -0.799445842858E-09
  0.795715493496E-09
  0.472873296076E-09
 -0.695806079420E-09
  0.696587676430E-09
  0.266666688731E-09
 -0.263455035565E-09
 -0.197959337811E-08
  0.198166105747E-08
  0.161293201018E-11
 -0.652988774164E-11
  0.496669372296E-11
  0.524877918906E-09
 -0.524600807239E-09
  0.150498635776E-08
 -0.150665613319E-08
 -0.383693077310E-12
  0.189898230474E-08
 -0.190227922303E-08
 -0.434518199199E-09
  0.434027924712E-09
 -0.359179352927E-10
  0.335305117005E-10
  0.267739608262E-09
 -0.265700350610E-09
 -0.358966190106E-09
  0.354397400315E-09
 -0.295222690738E-08
  0.295506197290E-08
  0.115413456570E-09
 -0.112336806524E-09
 -0.241584530158E-12
  0.947750322666E-09
 -0.949782474891E-09
  0.176243020178E-09
  0.663504806653E-10
 -0.647233378004E-10
  0.479384709706E-08
 -0.479182915569E-08
 -0.605268724030E-08
  0.606175376561E-08
 -0.456036985952E-08
  0.455063542404E-08
 -0.933027877181E-09
  0.935280297654E-09
  0.346310002897E-08
 -0.140988021258E-08
  0.139818467915E-08
  0.778754838393E-11
  0.137220723673E-08
 -0.136950717433E-08
  0.157001949219E-07
 -0.157162460823E-07
 -0.541654543440E-08
  0.543069944570E-08
  0.118539844607E-09
 -0.117388765375E-09
 -0.389139600543E-07
  0.389220460306E-07
  0.515686053859E-07
 -0.515391889166E-07
 -0.426593089742E-07
  0.426024584499E-07
  0.186075581610E-07
 -0.186556121662E-07
  0.207034460686E-07
 -0.206270556191E-07
 -0.117375975606E-08
  0.117735510230E-08
 -0.327133875544E-10
 -0.317903925406E-09
  0.320653725794E-09
  0.386606302527E-10
 -0.351505491381E-10
  0.109162101580E-08
 -0.839171576672E-08
  0.839411029574E-08
 -0.646922515557E-07
  0.648401368153E-07
  0.211087076707E-06
 -0.211414224793E-06
 -0.518099341207E-09
  0.503057151491E-09
 -0.378292632774E-06
  0.378616029195E-06
  0.401345253920E-06
 -0.401459821830E-06
  0.584634562983E-09
 -0.234350679307E-06
  0.234267126586E-06
  0.650430820315E-10
 -0.101685770915E-08
  0.112196829605E-08
 -0.337257688443E-08
  0.337639249892E-08
  0.132087762950E-08
 -0.131880284471E-08
  0.105330144606E-08
 -0.104933661760E-08
 -0.699930069459E-08
  0.646958397965E-08
 -0.291277046927E-08
  0.453685373714E-07
 -0.428396091934E-07
 -0.422902246555E-08
  0.422520685106E-08
 -0.969975104681E-07
  0.927860028810E-07
  0.217676898728E-08
 -0.217834639216E-08
  0.981615144724E-07
 -0.955552508231E-07
 -0.521387661934E-07
  0.542007754234E-07
  0.572462965920E-09
 -0.255821674955E-08
 -0.538012301377E-08
  0.540185141062E-08
 -0.706661751337E-08
  0.706775438175E-08
  0.235797728010E-07
 -0.976041292233E-08
  0.975018821237E-08
  0.159834172564E-07
 -0.159827280299E-07
 -0.686637235958E-08
  0.686174672637E-08
  0.390308230180E-07
 -0.390843553078E-07
 -0.638355999172E-07
  0.643803019784E-07
 -0.108070494775E-07
  0.102191606288E-07
  0.773205997007E-07
 -0.777379440819E-07
  0.335232996918E-07
 -0.335206209456E-07
 -0.103882349123E-05
  0.103882803160E-05
 -0.227246481188E-06
 -0.298628890505E-07
  0.298655606912E-07
 -0.139822411427E-06
  0.139815419686E-06
 -0.101428184962E-06
  0.101429804999E-06
 -0.833853164295E-07
  0.835155447021E-07
 -0.157761803621E-08
  0.157989177296E-08
 -0.782368658747E-08
  0.767995800288E-08
  0.331253033892E-07
 -0.331802851861E-07
  0.227054215429E-07
  0.214868123294E-10
  0.191431466590E-05
  0.283741314888E-06
 -0.283739240103E-06
  0.140699782492E-06
 -0.140701033047E-06
 -0.287163629764E-06
  0.287163089752E-06
 -0.742024224110E-05
 -0.891969705208E-06
  0.891979894391E-06
  0.171370861324E-05
 -0.171369957513E-05
 -0.715761714787E-06
  0.715763093240E-06
 -0.817124146124E-11
 -0.308702396978E-07
  0.308686054495E-07
 -0.109035894980E-06
  0.109030281692E-06
 -0.114488059921E-06
  0.114486695679E-06
 -0.273564253916E-06
  0.273562775988E-06
  0.506304175474E-06
 -0.667910171614E-12
  0.122213350551E-11
 -0.984101689028E-11
  0.872404370966E-09
 -0.578630476866E-09
  0.111199938146E-10
 -0.233377761560E-10
 -0.148183687543E-10
 -0.217639239963E-10
 -0.477413664157E-10
 -0.137383437959E-09
 -0.232198260619E-09
 -0.176157755050E-09
 -0.109309894469E-08
  0.291132096208E-08
 -0.235826718153E-07
  0.227237023864E-06
 -0.191432273766E-05
  0.742023918576E-05
 -0.908892351958E-05
  0.116386900118E-10
 -0.398255650680E-08
 -0.329336558025E-11
 -0.228794760915E-11
  0.167155178588E-10
  0.266240363089E-10
 -0.707132130628E-10
 -0.528643795406E-11
  0.388951093555E-10
 -0.455287363366E-09
 -0.470997463253E-09
 -0.344765282989E-08
 -0.585671955378E-09
 -0.570459235405E-09
  0.564163826766E-09
 -0.226348362276E-07
  0.908892782547E-05
 -0.506303180714E-06
 -0.870912231221E-10
