# vtk DataFile Version 3.0
MachLine results file. Generated by MachLine, USU AeroLab (c) 2022.
ASCII
DATASET POLYDATA
POINTS                 500 float
 -0.363516051888E+00  0.879974702181E+00 -0.305778683923E+00
 -0.956690759906E+00 -0.213935209213E+00  0.197419644840E+00
 -0.261330319354E+00  0.899644723496E+00  0.349779695913E+00
  0.433839362316E+00 -0.478855308200E+00 -0.763204429700E+00
  0.168388287161E+00  0.974084331979E+00  0.151013572037E+00
  0.364459017382E-02  0.998865943457E+00 -0.474715068625E-01
  0.866500085016E+00  0.417146181418E+00  0.274165398974E+00
 -0.609802066131E+00 -0.244486534983E+00  0.753901700724E+00
  0.283745321035E+00 -0.931578721528E+00  0.227265655978E+00
 -0.837209660632E-01 -0.762555145613E+00 -0.641483008146E+00
 -0.539405408691E+00  0.652843039420E+00  0.531824943902E+00
 -0.849916688634E-01 -0.882071464615E+00 -0.463385743777E+00
 -0.790466914254E+00 -0.596426417270E+00  0.139418744261E+00
 -0.397091059070E+00 -0.850380191608E+00  0.345213297148E+00
  0.617653285123E+00 -0.428985330229E+00 -0.659147939256E+00
 -0.487330310867E+00 -0.820827572735E+00  0.297911503551E+00
  0.988290500356E+00 -0.100397403883E+00 -0.114901036544E+00
  0.499522113415E+00 -0.791127735141E+00  0.352979553090E+00
 -0.725183489753E+00 -0.457042463920E+00  0.514996206163E+00
  0.612096490531E+00 -0.435354131730E+00 -0.660155031993E+00
  0.746637349196E+00  0.643000795392E+00 -0.170536347771E+00
  0.597665921127E+00 -0.784060413756E+00  0.167465561548E+00
  0.621678513692E+00  0.216726839432E+00 -0.752692037079E+00
  0.123708589458E+00  0.509362400888E+00  0.851613838225E+00
  0.305924501039E+00  0.951854532782E+00 -0.195741688492E-01
 -0.943111611164E+00  0.276219042348E+00 -0.185050073041E+00
  0.249681396745E-01 -0.358751197258E+00  0.933099228629E+00
 -0.346405442312E+00 -0.310966913259E+00 -0.885043981051E+00
 -0.971549414961E+00 -0.234526478861E+00 -0.330009848603E-01
  0.821197189177E+00 -0.376479489320E+00 -0.428833733059E+00
  0.613254800700E+00 -0.789039877852E+00  0.365324592386E-01
  0.219790836466E+00 -0.294786269282E+00  0.929942494807E+00
  0.265557098570E+00  0.258727183507E+00  0.928730139445E+00
 -0.886423086986E+00  0.247058845618E+00 -0.391428202432E+00
  0.964145276813E-01  0.701395471922E+00 -0.706221375222E+00
 -0.824512971066E+00  0.497262168829E+00 -0.270016103216E+00
 -0.651390070860E+00 -0.757762857857E+00 -0.385542064762E-01
  0.148445820245E+00  0.751363393096E-01  0.986062051276E+00
  0.848541589581E+00 -0.509690296610E+00 -0.142101978495E+00
 -0.252334602048E+00 -0.966820719707E+00  0.398113621214E-01
  0.965024045029E+00 -0.237939793625E+00  0.110060197739E+00
 -0.632339882283E+00 -0.401408739940E-01 -0.773650427201E+00
 -0.383082139090E+00  0.777263084244E+00 -0.499109379376E+00
 -0.547063933660E-01  0.207722437272E+00  0.976656848427E+00
 -0.647880959550E+00  0.759206748064E+00 -0.620916737395E-01
  0.193707641467E+00 -0.152167229276E+00 -0.969186506289E+00
 -0.557333641516E+00  0.785170794004E+00 -0.269974140017E+00
  0.315478463477E+00 -0.365178980325E+00 -0.875852528347E+00
 -0.912016360761E+00 -0.994579667688E-01 -0.397912390547E+00
 -0.679946933847E+00 -0.535400231203E+00 -0.501017723818E+00
  0.292295456590E+00  0.815169841094E+00 -0.500061492447E+00
 -0.605032826714E+00  0.355665200833E+00  0.712346505231E+00
  0.450836840467E+00  0.493988022857E+00 -0.743452739958E+00
 -0.206678430110E+00  0.975464869929E+00 -0.758440113833E-01
 -0.761320803813E+00 -0.297519724781E+00  0.576083888899E+00
 -0.785362054828E+00 -0.508100041556E+00 -0.353611072519E+00
  0.915408738610E+00 -0.753931922247E-01  0.395401957307E+00
 -0.879938178985E+00 -0.418711698146E+00 -0.224475644560E+00
  0.594932331930E+00 -0.106532415722E+00  0.796684608126E+00
  0.300756055399E+00  0.429923691446E+00  0.851299838291E+00
  0.285483839484E+00 -0.709654202332E+00 -0.644119469126E+00
  0.546947419278E+00  0.823810967697E+00  0.148942975825E+00
  0.846969180778E+00  0.528563873128E+00  0.571265160503E-01
  0.591434788147E-01 -0.788910515864E+00  0.611655333397E+00
 -0.987786140110E+00  0.154292554899E+00 -0.217335894203E-01
  0.181586379989E+00 -0.875006907387E+00 -0.448764190446E+00
  0.884637616200E+00  0.197810031756E+00  0.422241020439E+00
 -0.956979181017E+00  0.597115238277E-01 -0.283946088230E+00
  0.504454964048E+00  0.786209389674E+00 -0.356931344708E+00
 -0.484359186345E+00  0.178524535853E+00  0.856460838977E+00
  0.129502842918E+00 -0.879654061387E+00  0.457643688869E+00
 -0.457423493024E+00  0.829981117072E+00  0.319210108445E+00
  0.307219547585E+00 -0.166216401420E+00  0.937010276081E+00
 -0.614142087540E+00  0.725912772777E+00 -0.309645188289E+00
  0.729982072838E+00  0.285173118359E+00 -0.621129991146E+00
 -0.784529903486E+00 -0.426571907255E+00 -0.450054706095E+00
  0.385522272493E+00  0.915893937906E+00  0.111852009005E+00
  0.663652720999E+00  0.158768946565E-01  0.747872308704E+00
 -0.144195570898E+00 -0.604825720576E+00  0.783194410771E+00
 -0.129559223659E+00  0.327047692620E+00  0.936084512379E+00
  0.400161362630E+00 -0.745912640317E+00  0.532433298051E+00
 -0.609094729712E+00  0.295387872325E+00  0.736036422414E+00
  0.206229998165E+00  0.514404624257E+00  0.832380364016E+00
  0.612605139922E+00  0.423915256573E+00 -0.667091296440E+00
 -0.730941484367E+00  0.192692323775E+00 -0.654671073738E+00
 -0.971217651482E+00 -0.211771347763E+00 -0.109037469323E+00
  0.157776397971E+00  0.984610694362E+00 -0.751557635305E-01
  0.569358752012E+00  0.140947809467E-01  0.821968337990E+00
  0.600832909832E+00  0.342534810448E+00 -0.722267068399E+00
 -0.943237242571E+00  0.259648000615E+00  0.207090366758E+00
  0.833124286408E+00  0.360562512424E+00 -0.419402668127E+00
  0.492134550585E+00 -0.671122328062E+00  0.554435212534E+00
  0.880988379584E+00 -0.236220146077E+00 -0.409950628278E+00
 -0.252646899898E+00  0.906608998957E+00  0.337978796646E+00
  0.632450139265E+00  0.174691879021E+00  0.754645326460E+00
  0.923976041691E+00 -0.115601179377E+00  0.364560888888E+00
  0.799361973045E+00  0.184656969407E+00  0.571771142765E+00
  0.233764791860E-01  0.875638159885E+00  0.482401651297E+00
  0.777387348993E+00  0.275385650839E+00 -0.565536606186E+00
 -0.827743668782E+00  0.520870959918E+00  0.208647698061E+00
 -0.230146173292E+00  0.714107543579E-01 -0.970532453389E+00
  0.188340862576E+00  0.864344069004E-01 -0.978292805242E+00
 -0.848834063363E+00 -0.258141388794E+00 -0.461349928218E+00
  0.377782876952E+00  0.241788705475E+00  0.893766367563E+00
  0.237598827680E+00 -0.679945536572E+00  0.693700846461E+00
 -0.790263602595E+00 -0.612740832351E+00  0.566663776186E-02
  0.761733979619E+00 -0.647509212100E+00 -0.222073082344E-01
 -0.221548805652E+00 -0.277601835090E+00 -0.934801234418E+00
 -0.935695589230E-01  0.872255853190E+00 -0.480015066658E+00
 -0.704773227033E+00  0.707680310944E+00  0.498324789597E-01
  0.515861091920E+00  0.608718644130E+00  0.602784328040E+00
 -0.970854935242E+00 -0.221393307053E+00 -0.917916026077E-01
 -0.690945905826E+00 -0.596834800042E+00  0.407899468842E+00
  0.841144967726E+00 -0.106851900613E+00 -0.530148860797E+00
 -0.533553416343E+00  0.830705028191E+00 -0.158902196485E+00
 -0.437722831138E+00  0.474876510203E-01  0.897855025102E+00
 -0.416405758558E+00 -0.908771258851E+00 -0.272221109852E-01
 -0.411990481853E+00  0.855100070179E-01  0.907166953522E+00
 -0.237874999150E+00 -0.910483694630E+00  0.338282317884E+00
  0.473917788616E+00 -0.872357554516E+00  0.119975942225E+00
 -0.669905165453E+00  0.709759864109E+00  0.217871532331E+00
  0.271673895750E+00  0.654891080456E+00  0.705202784387E+00
  0.428509010925E+00 -0.392963524308E+00 -0.813609056070E+00
 -0.864904871508E+00  0.500217959277E+00  0.414916432337E-01
  0.557806500552E+00 -0.195332339277E+00  0.806658034842E+00
  0.842830450764E+00 -0.537631028808E+00 -0.242839067686E-01
 -0.905478798834E+00  0.124235189649E+00 -0.405800150955E+00
  0.946540949376E+00 -0.207747976888E-01 -0.321914024136E+00
  0.685477759683E+00  0.277077401194E+00  0.673311484179E+00
 -0.397100040258E+00 -0.412490593230E+00  0.819855516859E+00
  0.491653568564E+00  0.649510313484E+00  0.580011311265E+00
 -0.143045901185E+00  0.773734781449E-01 -0.986686989391E+00
  0.826115570937E+00  0.283013004015E-02 -0.563493614710E+00
  0.424388907826E-01 -0.579065644301E+00 -0.814175607679E+00
  0.817370327131E+00 -0.517196154289E+00 -0.253798909206E+00
  0.574637485041E+00  0.562298504375E+00 -0.594652968346E+00
 -0.863422456132E+00  0.364386096224E+00 -0.348890290959E+00
  0.277764631995E+00  0.944141261805E+00 -0.177324806415E+00
 -0.415405578847E+00  0.264948542683E-01  0.909250365829E+00
  0.300257712074E-01  0.962999536450E+00  0.267825215133E+00
 -0.786614787104E+00 -0.405022409227E+00  0.466040797285E+00
 -0.997353508089E+00 -0.397421490345E-01  0.608813723034E-01
  0.429531849526E+00 -0.817651189579E+00  0.383339174130E+00
  0.574306429017E+00 -0.603935981968E+00 -0.552660343497E+00
  0.638846491104E+00 -0.736228925242E+00  0.223253511599E+00
 -0.756757219997E+00 -0.562789577735E+00 -0.332545337023E+00
  0.660739362002E+00  0.436781413703E+00 -0.610446960960E+00
  0.461548339126E+00 -0.225066471334E+00  0.858089863669E+00
  0.992759303109E+00 -0.927145162402E-01 -0.763739783451E-01
  0.615438804761E+00  0.772650615740E+00  0.155711603906E+00
 -0.743976853185E+00 -0.600033764757E+00  0.294037281779E+00
  0.224299932045E+00 -0.971922838990E+00 -0.711022892277E-01
  0.347203889114E+00  0.289651629689E+00  0.891936877140E+00
 -0.331651019161E+00  0.546964814528E+00 -0.768659282880E+00
 -0.326142560766E+00  0.939710050130E+00  0.102839932621E+00
  0.929946880387E+00 -0.616844547357E-01  0.362482865392E+00
  0.763648547577E+00  0.976448182448E-01  0.638205597949E+00
 -0.679689726267E+00 -0.345346105569E+00 -0.647115092835E+00
  0.293176462965E-01 -0.474431401101E+00  0.879804138013E+00
  0.355721202763E+00 -0.701736891959E+00 -0.617274461135E+00
 -0.856564806910E+00 -0.221102933045E+00  0.466272693347E+00
[...]
CELL_DATA                 996
SCALARS C_p_inc float 1
LOOKUP_TABLE default
  0.991587051489E+00
 -0.126804452873E+01
  0.679193267131E-01
  0.835766683273E-01
 -0.114605501144E+01
  0.772239621697E+00
 -0.111210316842E+01
 -0.114239146128E+01
 -0.116149947837E+01
  0.992697433817E+00
  0.989643571009E+00
  0.949967968581E+00
  0.205043166764E+00
  0.165279065715E+00
 -0.392128343228E+00
 -0.535662449132E+00
 -0.284604946554E+00
 -0.279865995074E+00
  0.726434538306E+00
  0.891899989682E+00
 -0.936905134414E+00
  0.529308692991E+00
  0.936950548885E+00
 -0.123547231609E+01
 -0.123967520610E+01
 -0.117905558526E+01
 -0.528601149560E+00
 -0.601168242109E+00
 -0.412094673742E+00
 -0.304911230145E-01
 -0.982470771018E-01
 -0.928813602283E-01
 -0.496409944950E+00
 -0.573291306880E+00
 -0.114755845274E+01
 -0.114301393721E+01
 -0.103209441174E+01
 -0.104330707263E+01
  0.256622179297E+00
  0.386588963495E+00
 -0.488746818744E+00
 -0.936344163457E+00
 -0.960621773625E+00
 -0.624204355004E+00
 -0.840681873468E+00
 -0.712554796326E+00
 -0.397553435796E+00
 -0.815445038470E+00
 -0.886246478461E+00
  0.975192681672E+00
  0.918648715176E+00
  0.631993283356E+00
  0.857274526640E+00
  0.865409625584E+00
  0.581601399711E+00
 -0.256283461216E+00
 -0.558686494554E+00
 -0.986139766401E+00
 -0.105077354885E+01
 -0.104649341379E+01
 -0.691230711563E+00
 -0.538233561366E+00
 -0.566537208632E+00
  0.948569036649E+00
  0.635322858249E+00
  0.877561909234E+00
  0.811355723976E+00
  0.727600297452E+00
 -0.970293010553E+00
 -0.120454599764E+01
 -0.133903717173E+01
 -0.114943320892E+01
 -0.129003404596E+01
 -0.127589919812E+01
 -0.456840808394E+00
 -0.119483340585E+01
 -0.120062619906E+01
 -0.118143923025E+01
 -0.120038048799E+01
 -0.130190072899E+01
 -0.129399228841E+01
 -0.632130229096E+00
 -0.913777337111E+00
 -0.385645114349E+00
 -0.700774008435E+00
 -0.135286869431E+01
 -0.677147168625E+00
 -0.594537329438E+00
 -0.460103561160E+00
 -0.428808832748E+00
 -0.445916255258E+00
 -0.443892488456E+00
 -0.889528244364E+00
 -0.490506509526E+00
 -0.453444366231E+00
 -0.102476880875E+01
 -0.162242272692E+01
 -0.963091724927E+00
 -0.963779677336E+00
 -0.121953348857E+01
  0.852145223358E+00
  0.922654921827E+00
  0.208984218525E+00
  0.649231404580E+00
  0.645740184053E+00
  0.632986691959E+00
  0.707561824889E+00
  0.844462738113E+00
  0.846662807221E+00
  0.901535131624E+00
  0.613224638424E+00
  0.595768580455E+00
  0.639140720189E+00
  0.243187243866E+00
  0.266969425963E+00
 -0.310338577591E+00
 -0.318132353727E+00
  0.950660508670E+00
  0.680401704256E-02
  0.162742464596E+00
 -0.482391424719E+00
 -0.626653282920E+00
  0.938479237037E+00
  0.838095239724E+00
  0.982948192308E+00
  0.977497810637E+00
 -0.944370120227E+00
 -0.101018308922E+01
 -0.851847120949E+00
 -0.577062963473E+00
 -0.558223414038E+00
 -0.740765148867E+00
 -0.100307926275E+01
 -0.990857007492E+00
 -0.124634156062E+01
 -0.115993138391E+01
 -0.113775183891E+01
 -0.124941285449E+01
 -0.113720295216E+01
 -0.104567185011E+01
 -0.121239564428E+01
 -0.175391091804E+01
 -0.117584535717E+01
 -0.119262491515E+01
 -0.120390866684E+01
 -0.518124803857E+00
 -0.117106866140E+00
 -0.107205733236E+01
 -0.109413797720E+01
 -0.114556655894E+01
  0.147600718579E+00
  0.619690679416E+00
  0.355203255532E+00
  0.330834638006E+00
 -0.105075636201E+00
 -0.789085985764E-01
 -0.786920497321E-01
 -0.491375358440E+00
 -0.545203861297E+00
 -0.695012059785E+00
 -0.946280708293E+00
 -0.947713397947E+00
 -0.132371184468E+01
 -0.132252053201E+01
 -0.122156233272E+01
 -0.130697855730E+01
 -0.113519472001E+01
 -0.117863512388E+01
 -0.129518436053E+01
 -0.110797449823E+01
 -0.118751656077E+01
 -0.248670618505E+00
 -0.116262780364E+01
 -0.113816672272E+01
 -0.976946531450E+00
 -0.459199582733E+00
 -0.113421849433E+01
 -0.126852705893E+01
 -0.133610049530E+01
 -0.135519633714E+01
 -0.109252132364E+01
 -0.920463435615E+00
 -0.908672519570E+00
 -0.360947380489E+00
 -0.109099283908E+01
 -0.108717832237E+01
 -0.105034647064E+01
 -0.107354750982E+01
 -0.928034994393E+00
 -0.459668067484E+00
 -0.535712005382E+00
 -0.850990588016E+00
 -0.898299949825E+00
  0.873658211698E-01
  0.649715661767E-02
 -0.241747292604E+00
  0.743515063619E-01
 -0.748996111966E+00
 -0.528040132131E+00
 -0.746269956157E+00
 -0.985485040481E+00
 -0.962583259162E+00
 -0.786202784956E+00
 -0.849162039641E+00
 -0.426102256834E+00
  0.194008328244E+00
  0.757741686596E+00
  0.690691278200E+00
 -0.657813890731E-01
 -0.109931510813E+00
  0.186568241769E+00
 -0.107422857154E+00
 -0.321052225459E-01
 -0.351306383446E-01
 -0.302583694877E+00
 -0.375368854747E+00
 -0.373428911256E+00
 -0.339785276878E-01
 -0.181273461319E-01
 -0.105662713449E+01
 -0.697501504663E+00
 -0.101158809195E+01
 -0.118081032048E+01
 -0.123678502032E+01
 -0.125671762793E+01
 -0.118636803059E+01
 -0.119321905891E+01
 -0.118812436013E+01
 -0.124810506943E+01
 -0.822479250323E+00
 -0.963961399801E+00
 -0.113502166232E+01
 -0.125794931440E+01
 -0.117371683711E+01
 -0.635543773760E+00
 -0.959214013583E+00
 -0.966900622105E+00
 -0.922156217222E+00
 -0.117543858545E+01
 -0.985095385137E+00
  0.719945953730E+00
  0.950783377997E+00
  0.934735117614E+00
  0.756197057545E+00
  0.771592273997E+00
 -0.779619306103E+00
 -0.745008963132E+00
 -0.112434389069E+01
 -0.107819822673E+01
 -0.112439951104E+01
 -0.110039824796E+01
 -0.132466411565E+01
 -0.125037073371E+01
 -0.126293454234E+01
 -0.118208014912E+01
 -0.118129319907E+01
 -0.118038472044E+01
 -0.112259344449E+01
 -0.112671594281E+01
 -0.968382325893E+00
 -0.138049293720E+01
 -0.911083354168E+00
 -0.860048781042E+00
 -0.855747691239E+00
 -0.910092959044E+00
  0.365554587889E+00
  0.441683020579E+00
  0.603862988804E+00
  0.112758385058E+00
 -0.311691720917E+00
 -0.929344245838E+00
 -0.282873692900E+00
 -0.306816853283E+00
 -0.600643751362E-01
  0.228427476424E+00
  0.151096362057E+00
 -0.827468715795E-01
 -0.315854510745E+00
 -0.458005641427E+00
 -0.722392198879E-01
 -0.959187271890E-01
 -0.173462136944E+01
 -0.112525981287E+01
 -0.113408726753E+01
 -0.111297934225E+01
  0.437149769909E+00
  0.564449311504E+00
  0.636475892317E+00
  0.556559615490E+00
  0.151788509620E+00
  0.620991432685E-01
  0.139632659890E+00
  0.764555072380E-01
 -0.130108481173E-01
  0.669140965329E-01
  0.192557310648E+00
  0.554018391085E+00
  0.558938231876E+00
  0.888482484711E+00
  0.846431209249E+00
  0.925564702446E+00
  0.873315159390E+00
  0.845029959033E+00
  0.405619618759E-01
  0.152770832435E+00
  0.270171652335E+00
 -0.353047731848E+00
 -0.259274827433E+00
  0.380738571907E+00
  0.423355539479E+00
  0.197345511050E+00
  0.189114129478E+00
  0.928654226730E+00
  0.940800620932E+00
  0.899654563836E+00
  0.747559595425E+00
  0.621927583111E+00
  0.408302163684E+00
  0.399084733330E+00
  0.773267979737E+00
 -0.586620736894E+00
 -0.564363596407E+00
 -0.366299728589E+00
 -0.494160656241E+00
 -0.890174359051E+00
 -0.918720289116E+00
 -0.493693202062E+00
 -0.639718716087E+00
 -0.721548993746E+00
 -0.776430420028E+00
  0.153982435428E+00
 -0.554000118288E-01
 -0.985287410228E-01
  0.218193127536E+00
  0.617137099609E-01
 -0.300665937034E-01
 -0.330035150185E+00
  0.211472256462E-01
 -0.127724499286E+01
 -0.763632570279E+00
 -0.128508047924E+01
 -0.124368525281E+01
 -0.858071119106E+00
 -0.103787097213E+01
 -0.975391298083E+00
 -0.873884477790E+00
 -0.981025132298E+00
 -0.104402977234E+01
 -0.571303006258E+00
 -0.771326312738E+00
 -0.797813247694E+00
  0.561585652522E+00
 -0.121612137539E+01
 -0.152942930646E+01
 -0.114474740969E+01
 -0.156881540132E+01
 -0.125135044782E+01
 -0.124903477570E+01
 -0.921754340586E+00
 -0.102957996424E+01
 -0.114506135990E+01
 -0.102857651386E+01
 -0.761384218783E+00
 -0.845639200907E+00
 -0.107800787341E+01
 -0.885638132200E+00
 -0.126098239768E+01
 -0.130230080312E+01
 -0.130743676085E+01
 -0.103261347698E+01
 -0.109883700503E+01
 -0.115686999627E+01
 -0.123984092804E+01
 -0.103573584165E+01
 -0.104856915727E+01
 -0.111719517882E+01
 -0.103493541113E+01
 -0.129028013892E+01
 -0.722518437520E+00
 -0.748378945353E+00
 -0.718591932752E+00
 -0.542058893521E+00
 -0.498536972127E+00
 -0.528375721678E+00
  0.212713276318E+00
  0.318107027018E+00
  0.441115402463E+00
  0.586245845743E+00
  0.539541993155E+00
  0.608310547471E+00
  0.929776194263E+00
  0.840167312515E+00
 -0.471019815873E+00
 -0.161525504865E+00
 -0.210230901038E+00
 -0.347602900136E+00
 -0.518024213544E+00
 -0.484853006107E+00
 -0.837738982365E+00
 -0.615693320282E+00
 -0.841926523785E+00
 -0.750825389077E+00
 -0.690028704601E+00
 -0.114285475324E+01
 -0.682867427026E+00
 -0.662267393005E+00
 -0.824377688197E+00
 -0.102434425789E+01
 -0.712454757813E+00
 -0.481617132333E+00
 -0.459756975821E+00
 -0.886357089846E+00
 -0.111230048349E+01
 -0.112500500949E+01
 -0.851969824084E+00
 -0.754612673452E+00
 -0.673163629081E+00
 -0.680733741968E+00
 -0.361187745871E+00
 -0.401859700737E+00
 -0.152878063653E+01
 -0.113810606983E+01
 -0.113879348542E+01
 -0.117856588755E+01
 -0.150553688536E+01
 -0.103340008228E+01
 -0.116101295778E+01
 -0.120587596458E+01
 -0.123585164396E+01
 -0.119739528561E+01
 -0.118941525487E+01
 -0.122242635940E+01
 -0.125090543785E+01
 -0.879069122694E-01
 -0.558432543428E+00
 -0.978803992546E+00
 -0.781025577109E+00
 -0.100670386020E+01
 -0.931583511023E+00
 -0.908310174246E+00
 -0.102251392957E+01
 -0.107235203034E+01
 -0.107112447700E+01
 -0.842543167309E+00
 -0.112635240840E+01
 -0.103949904167E+01
 -0.936560810476E+00
 -0.120166442560E+00
  0.137450315603E+00
 -0.222937060221E+00
  0.261475797833E+00
 -0.309084886658E+00
 -0.304611758591E+00
  0.759157356113E-01
  0.159379009853E+00
 -0.364029157801E+00
 -0.493275587434E+00
 -0.452084611015E+00
  0.145559053391E-01
 -0.747387327822E-01
 -0.455098712933E+00
 -0.415715844502E+00
 -0.493624355903E+00
 -0.421685000596E+00
 -0.858520974433E+00
 -0.840567280676E+00
  0.607433409849E+00
 -0.597719491340E+00
 -0.531472250397E+00
 -0.377360278929E+00
 -0.888758727878E+00
 -0.101995606862E+01
 -0.442846831668E+00
 -0.507963879913E+00
 -0.187298835277E+00
 -0.223981144369E+00
 -0.429471341660E+00
 -0.364743562785E+00
 -0.645056289287E+00
 -0.572483102984E+00
 -0.459179718155E-01
  0.550047692254E+00
  0.552083905953E+00
 -0.924359167394E+00
 -0.946511493150E+00
 -0.123437671266E+01
 -0.133113272241E+01
 -0.110871427211E+01
 -0.102518288721E+01
 -0.132028000117E+01
 -0.133632267574E+01
 -0.125692007257E+01
 -0.119500770945E+01
 -0.110339749540E+01
 -0.107828430936E+01
 -0.113896918009E+01
 -0.126491711408E+01
 -0.118230840213E+01
 -0.131205510555E+01
 -0.134728146231E+01
 -0.109159662117E+01
 -0.119755361890E+01
 -0.126219421519E+01
 -0.100112495411E+01
 -0.653126976480E+00
 -0.626592102659E+00
 -0.743220626839E+00
 -0.223213531163E+00
 -0.225517206632E+00
 -0.637265033692E+00
 -0.655075359166E+00
 -0.105772253279E+01
 -0.128042683461E+01
 -0.127219359026E+01
 -0.119280088998E+01
  0.285545727983E+00
 -0.130691106524E-01
  0.594824647379E-03
 -0.737351277709E+00
 -0.108956498627E+01
 -0.108649476305E+01
 -0.890433575284E+00
 -0.821084587866E+00
 -0.128151853857E+01
 -0.116892785408E+01
 -0.126481984146E+01
 -0.115898759127E+01
 -0.115474998926E+01
 -0.111277375165E+01
 -0.111523625395E+01
 -0.119240758316E+01
 -0.120033165929E+01
 -0.109950602580E+01
 -0.112889985644E+01
 -0.993704882337E+00
 -0.106250434640E+01
 -0.130636253158E+01
 -0.132735511180E+01
 -0.987259155593E+00
 -0.132964023148E+01
 -0.137030136456E+01
 -0.115866893093E+01
 -0.121793265010E+01
 -0.151570770075E+01
 -0.936749112330E+00
 -0.979031588529E+00
 -0.979104873779E+00
  0.603627043236E+00
  0.513986400977E+00
  0.476959556848E+00
  0.801818215536E+00
  0.250140623198E+00
  0.238594766264E+00
  0.346532291235E+00
 -0.408950913232E-01
 -0.260037734015E+00
 -0.300942899794E+00
  0.327991792733E+00
 -0.742579433376E+00
 -0.664359702970E+00
 -0.530600250834E+00
 -0.133515272115E+01
 -0.124637819924E+01
 -0.109856857030E+01
 -0.111923227086E+01
 -0.108075550826E+01
 -0.113593864270E+01
 -0.892249626839E+00
 -0.956040424257E+00
 -0.107727544114E+01
 -0.262699776180E+00
 -0.163928283118E-01
 -0.147981573477E+00
 -0.604644856311E-01
  0.318149735749E+00
  0.464895473773E+00
  0.721198051184E+00
  0.811332406877E-01
  0.402319529155E+00
  0.122962165129E+00
  0.994216028951E-01
  0.702358854837E+00
  0.675271178014E+00
  0.870891811185E+00
  0.926635107696E+00
  0.741825116860E+00
  0.729758125497E+00
  0.145905992199E-01
  0.943071918754E-02
  0.952950810645E-01
  0.467045741159E+00
  0.400017609840E+00
  0.729793311473E+00
 -0.286051644905E+00
 -0.743605952729E+00
 -0.910263361756E-01
 -0.629637771864E+00
 -0.532479269335E+00
 -0.943699940192E+00
 -0.110773085585E+01
 -0.794462435443E+00
 -0.764301289253E+00
 -0.290343687647E+00
 -0.738217590261E+00
 -0.896170061026E+00
 -0.980455661963E+00
 -0.111976222459E+01
 -0.799582425383E+00
 -0.924007173017E+00
 -0.651161028740E+00
 -0.665868759158E+00
 -0.789658434250E+00
 -0.857144611082E+00
  0.113971401388E+00
  0.118216537917E+00
  0.317683321015E-01
  0.143277552891E+00
  0.516884850501E+00
  0.618795025378E+00
 -0.132520933835E+01
 -0.121831765484E+01
 -0.132048185089E+01
 -0.131890017662E+01
 -0.151600793070E+01
 -0.123556485461E+01
 -0.121801143425E+01
 -0.124109352084E+01
 -0.122740960955E+01
 -0.543071770318E+00
 -0.721109521048E+00
 -0.840061024257E+00
 -0.657557131524E+00
 -0.726417468762E+00
 -0.100687930250E+01
 -0.876441768814E+00
 -0.101817382866E+01
 -0.745011091770E+00
 -0.727793503842E+00
 -0.732579435628E+00
 -0.961363023743E+00
 -0.485394605297E+00
 -0.843293026493E+00
 -0.121406556776E+01
 -0.138530266175E+01
 -0.100807517163E+01
 -0.975528544869E+00
 -0.137630480319E+01
 -0.134878523717E+01
 -0.130740433668E+01
 -0.131839643858E+01
 -0.104974847895E+01
 -0.107555319132E+01
 -0.120044869333E+01
 -0.120377426710E+01
 -0.113658329014E+01
 -0.133819692756E+01
 -0.941699324612E+00
 -0.107253379365E+01
 -0.113693018082E+01
 -0.111962746406E+01
 -0.109452286840E+01
 -0.998439978439E+00
 -0.734608392941E+00
 -0.734074555256E+00
 -0.932540421507E+00
 -0.134569009994E+01
 -0.158126535511E+01
 -0.114647864619E+01
 -0.111729168723E+01
 -0.110780057352E+01
 -0.744698401857E+00
 -0.473559605076E+00
 -0.951414787396E+00
 -0.102113279377E+01
 -0.748569189176E+00
 -0.998322212952E+00
 -0.878326548971E+00
 -0.123868312871E+01
 -0.932372164441E+00
 -0.139912733295E+01
 -0.111456783295E+01
 -0.102901848246E+01
 -0.112868351886E+01
 -0.111690867571E+01
 -0.104308313821E+01
 -0.694858007287E+00
 -0.418493519506E+00
 -0.541808842980E+00
  0.238264452030E-01
 -0.484330875912E+00
 -0.603446397140E+00
 -0.671944866630E+00
 -0.733365818522E+00
 -0.608810767072E+00
 -0.325997930670E+00
 -0.457794909346E+00
 -0.154142274265E+01
 -0.151083308139E+01
 -0.148122376618E+01
 -0.135494648785E+01
 -0.125415332015E+01
 -0.148868490571E+01
 -0.141192308022E+01
 -0.125002446604E+01
 -0.112187106982E+01
 -0.120419529711E+01
 -0.128904725473E+01
 -0.128073453202E+01
 -0.126044691312E+01
 -0.126925471812E+01
 -0.114981145390E+01
 -0.118703217836E+01
 -0.264862657936E+00
 -0.576067247552E+00
 -0.616142339155E+00
 -0.628898325337E+00
 -0.645104116165E+00
 -0.745871297265E-01
 -0.333595328208E+00
 -0.820551444473E+00
 -0.856209306276E+00
 -0.102710398445E+00
 -0.184810934895E+00
 -0.172149021435E+00
 -0.489204082938E+00
 -0.531591944260E+00
 -0.473771760383E+00
 -0.609836361079E+00
 -0.521018889562E+00
 -0.207888207480E+00
 -0.130822234176E+00
 -0.534293940362E+00
 -0.525409404915E+00
 -0.455674056653E+00
  0.118028829721E+00
  0.798281589225E-01
  0.682385666391E+00
  0.694432572458E+00
  0.459270949071E+00
  0.408930985148E+00
  0.722810238391E+00
  0.688725259708E+00
  0.602324270394E+00
 -0.144484171517E+00
 -0.332325996263E-01
  0.236002881464E+00
  0.261081078094E+00
 -0.875228168683E+00
 -0.525594328521E+00
 -0.607819447861E+00
 -0.975927553217E+00
 -0.808957834005E+00
  0.207560573381E+00
  0.298627141579E+00
 -0.197549350933E+00
 -0.678950516205E-01
 -0.125902226907E+01
 -0.173346522239E+01
 -0.126244515205E+01
 -0.183334219562E+01
 -0.117523367721E+01
 -0.124299998649E+01
 -0.128951074732E+01
 -0.112716914535E+01
 -0.118717742967E+01
 -0.114304025420E+01
 -0.160319719337E+01
 -0.142149955668E+01
 -0.159872111332E+01
 -0.141214345088E+01
 -0.120184997460E+01
 -0.119713546794E+01
 -0.115796090221E+01
 -0.124291652986E+01
 -0.123395811404E+01
 -0.116583288693E+01
 -0.821564192935E+00
  0.943533451530E-01
  0.244850178475E+00
  0.664183481458E-01
  0.212674030963E+00
  0.264621732957E+00
  0.836321332574E+00
  0.928159212119E+00
  0.922844005474E+00
  0.252755172760E+00
  0.231818759617E+00
  0.187151628761E+00
  0.792303222547E-01
 -0.328029570074E+00
 -0.377982713978E+00
 -0.380410791012E+00
 -0.285334291552E+00
  0.267316262132E+00
  0.905872906977E-01
 -0.125868922766E-01
 -0.145564593694E+00
 -0.110659976018E+00
 -0.135994746164E+01
 -0.118564442104E+01
 -0.117257045823E+01
 -0.143457462190E+01
 -0.140860220605E+01
  0.258867787308E+00
  0.337485537233E+00
  0.104073115949E+00
 -0.371356256738E+00
 -0.572433503387E+00
 -0.689423822304E+00
 -0.688273830395E+00
 -0.755577925692E+00
 -0.666696631851E+00
 -0.563284613827E+00
 -0.934923767191E+00
 -0.758822581391E+00
 -0.739011166030E+00
  0.218780259150E-01
 -0.144174229740E-01
  0.193073877522E+00
 -0.694251182688E+00
 -0.677768643558E+00
 -0.415404956614E+00
 -0.506129828734E+00
 -0.262465188370E+00
  0.729767662812E+00
  0.623452211593E+00
 -0.125085024209E+01
 -0.125709803391E+01
 -0.107936473088E+01
 -0.105068829854E+01
 -0.449553545153E+00
 -0.381079071514E+00
 -0.441151214968E+00
 -0.345619373520E+00
 -0.457806194866E+00
 -0.951220634423E+00
 -0.609624128048E+00
 -0.557775287086E+00
 -0.921146834384E+00
 -0.991615446097E+00
 -0.116337160154E+01
 -0.110730134596E+01
 -0.138628399007E+01
 -0.114905914548E+01
 -0.114815914689E+01
 -0.106744775143E+01
 -0.105671561624E+01
 -0.137191545794E+01
 -0.118810495834E+01
 -0.118066637417E+01
 -0.148003698292E+01
 -0.136550808241E+01
 -0.115650930766E+01
 -0.111495640911E+01
 -0.135901279672E+01
 -0.974582856576E+00
 -0.970216185194E+00
  0.380955413358E+00
  0.687001850890E+00
  0.702048700159E+00
  0.582012031252E+00
  0.367341964475E+00
  0.571258448540E-01
  0.446943009384E+00
  0.417443775127E+00
 -0.861268883437E+00
 -0.682996432032E+00
 -0.696179357308E+00
 -0.798726960426E+00
 -0.110256345374E+01
 -0.111108007488E+01
 -0.797130237607E+00
 -0.882162549447E+00
 -0.938070529218E+00
 -0.105896446169E+01
 -0.106329358483E+01
 -0.980944573850E+00
 -0.979318790030E+00
 -0.504118037294E-01
 -0.282643311037E+00
 -0.863868975178E-01
 -0.544649514193E+00
 -0.138138811733E+00
 -0.403656613177E-01
  0.428059584977E-01
 -0.363143364232E+00
 -0.632849246919E+00
 -0.217206385299E+00
 -0.517328636246E+00
 -0.501000889473E+00
 -0.154398340346E+01
 -0.791976750875E+00
 -0.147057099639E+01
 -0.115735540210E+01
 -0.113720900337E+01
 -0.109408439799E+01
 -0.826883445491E+00
 -0.822611790189E+00
  0.821778373132E+00
  0.825633672568E+00
  0.690116583642E+00
  0.471701679826E+00
  0.503806550148E+00
  0.367048023890E+00
  0.256536403648E+00
  0.477774646267E-01
 -0.145732857894E-01
 -0.179003949245E+00
 -0.427351966578E+00
 -0.557368785157E+00
 -0.287691934495E+00
 -0.355219682212E+00
  0.393900696775E+00
  0.325584147085E+00
  0.356706331630E+00
  0.335430971232E+00
  0.381500052985E+00
  0.424734776893E+00
  0.347207478010E+00
  0.542473190017E+00
  0.592202439015E+00
  0.557854641059E+00
  0.806879398540E+00
  0.932235241414E+00
 -0.104511939644E+01
 -0.940301859668E+00
 -0.976252736877E+00
 -0.114010770733E+01
 -0.113117854092E+01
 -0.114438574233E+01
 -0.106515993867E+01
 -0.229928865319E+00
 -0.139271702003E+00
 -0.251103934380E+00
 -0.499048166462E-01
 -0.866281676927E+00
 -0.990850942288E+00
 -0.961637337161E+00
 -0.979494005029E+00
 -0.117033420521E+01
 -0.113194689720E+01
 -0.107944572911E+01
 -0.123935658414E+01
  0.541157672619E+00
  0.692447787201E+00
  0.739027042276E+00
  0.582772467573E+00
  0.618838193682E+00