# vtk DataFile Version 3.0
MachLine results file. Generated by MachLine, USU AeroLab (c) 2022.
ASCII
DATASET POLYDATA
POINTS                4000 float
 -0.307618366831E+00  0.213742857820E-01  0.951269720056E+00
  0.245316785468E+00 -0.923019188305E+00 -0.296403867703E+00
 -0.778201710361E+00  0.234938709041E+00 -0.582413857137E+00
  0.498460750358E+00  0.165988147320E+00  0.850872972483E+00
  0.966213855810E+00 -0.101739692854E+00 -0.236811781250E+00
 -0.178695333379E+00  0.981990672772E+00 -0.613375612247E-01
  0.430639512885E+00 -0.748313696477E+00  0.504555469307E+00
 -0.602657376563E+00  0.253754361647E+00 -0.756579678831E+00
  0.150106221891E+00 -0.657187083444E+00  0.738629311295E+00
 -0.748853177999E+00  0.316457199691E+00 -0.582300402340E+00
  0.659117082770E+00 -0.690301215302E+00  0.298410628752E+00
 -0.818810750389E+00  0.265849552459E+00 -0.508795607788E+00
  0.318777747568E+00 -0.946902566530E+00  0.419079605157E-01
  0.263731469660E+00  0.894869123372E+00 -0.360076330722E+00
  0.181827150324E+00 -0.247440855189E+00 -0.951688977864E+00
 -0.533064921128E+00  0.845637347339E+00  0.271894584122E-01
  0.323595306497E+00 -0.767413220855E+00  0.553500701057E+00
  0.970021529883E+00  0.186834338756E+00 -0.155406439455E+00
  0.686996113327E+00  0.693119253237E+00 -0.218224748978E+00
 -0.668096984543E+00 -0.687729498928E+00  0.284032666339E+00
 -0.226147023908E+00  0.499215394257E+00  0.836445762566E+00
  0.591359432943E+00  0.512216049489E+00  0.622839256723E+00
 -0.516686478326E+00  0.855487054364E+00  0.343071848204E-01
 -0.853906427867E+00 -0.350306876470E+00 -0.384875180735E+00
 -0.836052840656E+00  0.263171093243E+00 -0.481411075187E+00
 -0.886361177726E+00  0.366588002488E+00  0.282802226037E+00
 -0.490846980367E+00  0.366694650300E+00 -0.790319097142E+00
 -0.874710715846E+00 -0.402563479499E+00  0.269858867851E+00
  0.425914107520E-01  0.840733381363E+00 -0.539771575014E+00
 -0.597513228270E+00 -0.649760229159E+00 -0.469882524305E+00
  0.939164440977E+00  0.245489635693E+00 -0.240218632857E+00
 -0.103109479458E+00 -0.793508453807E+00  0.599760593056E+00
  0.297704821289E+00 -0.252920723805E-01 -0.954322875371E+00
 -0.834433243108E+00  0.153135590122E+00 -0.529405944276E+00
 -0.179574677527E+00 -0.682633632371E+00 -0.708353202257E+00
 -0.518710883591E+00 -0.695574956751E+00 -0.497106124268E+00
 -0.287424709210E+00  0.789983567631E+00  0.541583787985E+00
 -0.524334815526E-02  0.502223632747E+00 -0.864721880150E+00
  0.238618817562E+00  0.703214430024E+00  0.669739147214E+00
 -0.705350838150E+00  0.262796451333E+00 -0.658345061718E+00
  0.186188712046E+00  0.982417133290E+00 -0.137963663274E-01
  0.203784890169E+00  0.219532204146E-01  0.978769520700E+00
 -0.917764424853E+00  0.897516996232E-01 -0.386850220227E+00
  0.311654343513E+00 -0.938177624389E+00  0.150646325100E+00
 -0.757211715062E-01  0.997128600185E+00  0.926757322622E-03
  0.513493691706E-01  0.776661246266E+00  0.627822069406E+00
  0.457122130052E+00 -0.615610698715E+00 -0.641921199093E+00
 -0.901124304516E+00 -0.288045500709E+00 -0.324044406420E+00
  0.273654813383E+00 -0.130410335905E+00 -0.952946056921E+00
 -0.894019046466E+00 -0.437691667749E+00  0.956867208058E-01
  0.542028337701E+00 -0.835346708734E+00  0.916578274729E-01
 -0.864376587711E+00  0.333517750447E+00  0.376323032451E+00
  0.583602652118E+00 -0.324426630728E+00 -0.744416083729E+00
  0.509198759805E+00  0.333996773803E+00  0.793197817762E+00
 -0.915762359064E+00 -0.347944958933E+00  0.200782487470E+00
 -0.436730918133E+00  0.839814374623E+00  0.322456076579E+00
  0.922549337668E+00 -0.357894992177E+00 -0.144270212249E+00
 -0.814241389276E+00 -0.505068636687E+00  0.286210817799E+00
 -0.844027276534E+00 -0.854564780472E-01 -0.529447964229E+00
 -0.577765249422E-01 -0.948415247402E+00 -0.311721657350E+00
 -0.875257821762E+00 -0.351065604048E+00 -0.332681059124E+00
  0.597064904830E+00 -0.771698093742E+00  0.219078870582E+00
  0.676406845080E-01  0.577735109347E+00  0.813416794286E+00
 -0.932022797771E+00 -0.361646798036E+00 -0.233473318649E-01
  0.306479502273E+00  0.924996595419E+00  0.224614365414E+00
 -0.533825410447E+00  0.836982637153E+00 -0.120376477212E+00
  0.795731743856E+00  0.413654184709E-01  0.604234965866E+00
  0.978181055468E+00  0.319122629810E-01 -0.205288650914E+00
  0.164460272368E+00  0.925257025534E+00  0.341836591829E+00
  0.402928790422E+00 -0.650815789717E+00  0.643496074350E+00
 -0.747345371870E+00 -0.646829907662E+00  0.151940665058E+00
 -0.648779392119E+00 -0.735654528011E+00  0.194673356624E+00
  0.763140039308E+00  0.893209838895E-01 -0.640030501025E+00
 -0.919069044006E+00  0.180293265692E+00  0.350437484719E+00
 -0.103653208274E+00  0.954928421728E-01 -0.990018752099E+00
 -0.416288159244E+00  0.909232398824E+00 -0.783199616689E-03
  0.449474200197E+00 -0.145388770234E+00 -0.881382464568E+00
  0.979386370037E+00 -0.159853622364E+00  0.123487479537E+00
 -0.521325165709E+00 -0.710145296697E+00  0.473195233681E+00
 -0.666242671703E+00  0.720537041523E+00  0.192216217306E+00
  0.606864723782E+00  0.531954514679E+00 -0.590541786278E+00
 -0.741219750002E+00  0.662156660684E+00  0.110190012794E+00
  0.367632711999E+00 -0.875668212773E+00 -0.313131554156E+00
 -0.506343762301E+00  0.401547229226E+00  0.763135516851E+00
  0.554416005541E+00  0.805318667859E+00 -0.209963653991E+00
 -0.187088598166E-03 -0.997677148820E+00  0.681195399309E-01
 -0.805958670049E+00  0.578382776229E+00 -0.126111007982E+00
  0.293492349295E+00  0.658579960397E+00 -0.692917510724E+00
 -0.218102887819E+00  0.316664386588E+00  0.923122308577E+00
  0.950927722051E+00 -0.233466079131E+00  0.203051858719E+00
 -0.348967358973E+00 -0.737453759454E+00  0.578259228234E+00
 -0.102856090175E+00 -0.147509920362E+00 -0.983697843908E+00
 -0.874234184735E+00  0.441637182288E+00  0.201670993110E+00
  0.325610925836E+00  0.844062598578E+00  0.426070246155E+00
  0.324509713392E+00  0.935523079217E+00  0.139606640840E+00
  0.989127488337E+00  0.718729761395E-01  0.128300768188E+00
 -0.516515056830E+00 -0.838514475662E+00 -0.173509856128E+00
 -0.389247109066E+00  0.918355458442E+00  0.714838445583E-01
  0.934485486137E+00  0.302873907463E+00  0.187094287400E+00
  0.978166332552E+00 -0.204819904344E+00  0.352055769222E-01
  0.657192383845E+00 -0.594931441148E+00 -0.462768571697E+00
 -0.221552598705E+00 -0.173643008901E+00  0.959563729758E+00
  0.564221629543E+00 -0.347701484111E+00 -0.748837519561E+00
  0.649419214769E+00 -0.659057260093E-01  0.757569217147E+00
  0.377929370155E+00 -0.782500479817E+00  0.494835720477E+00
  0.147339987793E-01 -0.977145299878E-01 -0.995105411456E+00
 -0.746959405014E+00  0.218982717099E-01  0.664508926168E+00
 -0.912252017574E+00  0.407446626552E+00 -0.422315396801E-01
 -0.685919005964E+00  0.378507851071E+00 -0.621487669979E+00
 -0.698855565656E+00  0.290460088777E+00  0.653631268514E+00
 -0.638448531734E+00  0.271469547416E+00  0.720199803633E+00
  0.104105156437E+00  0.481813040183E+00  0.870067992006E+00
  0.615920762498E+00 -0.774787367191E+00 -0.142639931171E+00
 -0.855042379478E+00  0.459839843139E+00  0.239686979116E+00
 -0.363052905532E+00 -0.514313891489E+00 -0.776964483620E+00
 -0.158489524347E+00 -0.769526343327E+00  0.618635819847E+00
  0.819023534323E+00  0.246024072178E+00 -0.518336383186E+00
 -0.983176443049E+00 -0.714864824994E-01 -0.168088561935E+00
 -0.393862866629E+00 -0.861295718926E+00 -0.321001132165E+00
 -0.602524700500E+00 -0.714059623149E+00  0.356486801825E+00
 -0.293920836770E+00  0.593216964741E+00 -0.749469261849E+00
 -0.511054122795E+00 -0.295526706630E+00  0.807147848441E+00
  0.887553098387E+00 -0.204932983056E+00 -0.412616007929E+00
  0.804167137898E+00 -0.550854784725E+00  0.223325369068E+00
  0.177038765869E+00 -0.448624412194E-01  0.983180876923E+00
 -0.859581982299E+00 -0.175718051481E+00  0.479835369778E+00
 -0.208740082277E+00  0.794454715884E+00 -0.570323839989E+00
 -0.238859767114E+00  0.931392446393E+00 -0.274689137856E+00
 -0.176602879722E+00  0.928643443256E+00 -0.326240368704E+00
  0.408925203559E+00  0.846277048719E+00 -0.341460590267E+00
 -0.230401503396E+00 -0.698655985256E+00 -0.677344049578E+00
 -0.780672518916E+00  0.623296200345E+00  0.453019298115E-01
  0.609581792127E+00 -0.705732053328E+00 -0.361043359739E+00
 -0.435220461684E+00 -0.422936327323E+00  0.794800611954E+00
  0.348623444799E-01  0.697227302600E+00  0.716001889275E+00
 -0.895664929240E+00  0.444064127213E+00  0.243184179679E-01
 -0.291440753169E+00  0.919273993060E+00  0.264570620206E+00
 -0.799656810916E+00  0.598066125900E+00  0.535340434370E-01
 -0.814471630542E-01 -0.830859932496E+00 -0.550488993716E+00
 -0.404270299185E+00  0.649174206135E-01 -0.912332863432E+00
 -0.554016364487E+00 -0.141968435955E+00 -0.820311423225E+00
  0.134740277997E-01  0.441830335160E+00 -0.896997438964E+00
 -0.504558585960E+00  0.861703417418E+00 -0.537387545791E-01
 -0.486521190241E+00  0.252775124427E+00 -0.836302497854E+00
  0.101905985748E+00 -0.894339634914E+00  0.435628037999E+00
 -0.971917725001E+00  0.105218414312E+00  0.210487579487E+00
 -0.114890869664E+00  0.799510033691E+00 -0.589562375067E+00
 -0.906445900853E+00  0.254553710585E+00 -0.336984031157E+00
  0.936334442581E+00 -0.188068183257E+00  0.296493119791E+00
  0.317572339751E+00  0.439280658334E+00  0.840345352958E+00
 -0.101287127879E+00 -0.929911296164E+00 -0.353561732930E+00
 -0.813142797094E+00  0.303141219555E+00 -0.496894548713E+00
  0.537082605615E+00  0.176846569687E-01  0.843344252162E+00
  0.813899791741E+00  0.187998109653E+00  0.549748887922E+00
 -0.194454701363E+00 -0.920783351830E+00 -0.338149949151E+00
  0.840333273856E+00 -0.650783976992E-01  0.538149413271E+00
 -0.411181236814E+00 -0.500509593979E+00 -0.761853093993E+00
 -0.993956674578E+00 -0.972808319191E-01 -0.508583208869E-01
  0.472445153616E+00  0.680297573254E+00 -0.560348809805E+00
 -0.304522435485E+00 -0.591207962473E+00 -0.746819410162E+00
  0.845791498409E+00  0.482097688425E+00 -0.228513807099E+00
[...]
CELL_DATA                7996
SCALARS C_p_inc float 1
LOOKUP_TABLE default
 -0.826181381086E+00
 -0.113011567152E+01
  0.580976979565E+00
 -0.613367897060E+00
  0.951839871323E+00
 -0.121945596575E+01
 -0.122138641484E+01
 -0.315098524278E+00
 -0.122309385372E+01
 -0.130420164202E+01
 -0.126631588496E+01
 -0.123003502415E+01
 -0.123892054326E+01
 -0.123435458462E+01
 -0.122380179613E+01
 -0.645991474649E+00
 -0.166836068705E+00
 -0.115868244102E+00
  0.810574871742E+00
 -0.120003445984E+01
 -0.105011712345E+01
 -0.587594802331E+00
 -0.101251471181E+01
 -0.835015564472E+00
 -0.783506695513E+00
 -0.620157726535E+00
 -0.877822209483E+00
 -0.890912000171E+00
 -0.867221186525E+00
 -0.990777963610E+00
  0.308090689653E+00
  0.656607000488E-01
 -0.250583182209E+00
  0.645143189375E+00
  0.632973238015E+00
  0.971966692191E+00
  0.285004311500E+00
  0.279151632447E+00
  0.275644365193E+00
  0.250541450582E+00
  0.363649636844E+00
  0.285388148716E+00
  0.135054545407E-02
 -0.232808741069E+00
  0.816172482444E-01
  0.757472085258E-01
  0.430790533331E+00
  0.593886531159E+00
  0.518528241278E+00
  0.514243722617E+00
  0.415474157150E+00
 -0.125341217438E+01
 -0.102109729256E+01
 -0.123767655742E+01
 -0.121162166109E+01
 -0.124213854006E+01
 -0.966343109517E+00
 -0.119816196546E+01
 -0.878932570297E+00
 -0.525201468204E+00
 -0.291151241418E+00
 -0.505134600272E+00
 -0.580405404510E+00
 -0.863628506767E+00
 -0.989605244444E+00
 -0.101344527829E+01
 -0.127088921854E+01
 -0.760678675151E-01
 -0.626160557416E+00
 -0.641124058125E+00
 -0.101541983890E+00
 -0.478634518674E-01
  0.132233845854E+00
  0.155029338269E+00
  0.161501358292E+00
 -0.784842162878E+00
 -0.626826729599E+00
 -0.990083059365E+00
 -0.938381118064E+00
 -0.724453678788E+00
 -0.404010476879E-01
  0.637027420352E-01
  0.881295272468E-01
 -0.157534617985E+00
 -0.651383463922E-01
 -0.945953772917E-01
 -0.315374265506E+00
  0.820545450233E+00
  0.808177082819E+00
  0.762013204287E+00
 -0.495306976117E+00
 -0.470128370545E+00
 -0.453797877015E+00
  0.828086261514E+00
 -0.690273280906E+00
 -0.687550154730E+00
 -0.688821448126E+00
 -0.711662947463E+00
 -0.725532046238E+00
 -0.112961052805E+01
 -0.113770623442E+01
 -0.115324304455E+01
 -0.939099481470E+00
 -0.126725170689E+01
 -0.124898924071E+01
 -0.115512171581E+01
 -0.128746411433E+01
 -0.127076519720E+01
 -0.122195727335E+01
 -0.124883905946E+01
 -0.126148344154E+01
  0.131610100413E-01
  0.891613295907E-01
 -0.360059251049E-01
 -0.322566232580E+00
 -0.239622963054E+00
 -0.459153357139E+00
 -0.119048414956E+00
 -0.122301668710E+01
 -0.129253155338E+01
 -0.127832652397E+01
 -0.120627858678E+01
 -0.119997787001E+01
 -0.134127494926E+01
 -0.617488804397E+00
 -0.117098355313E+01
 -0.860300997836E+00
 -0.920700505754E+00
 -0.104568920065E+01
 -0.106142698721E+01
 -0.316511320249E+00
 -0.804018013777E+00
 -0.838353938202E+00
 -0.672567144818E+00
 -0.118207309278E+01
 -0.121272979922E+01
 -0.119027062125E+01
 -0.117461189008E+01
 -0.131442801626E+01
 -0.120137158137E+01
 -0.121521897689E+01
 -0.124241730791E+01
 -0.112331293724E+01
 -0.114379467491E+01
 -0.119261572969E+01
 -0.119849090247E+01
 -0.119696349143E+01
 -0.123838165984E+01
 -0.124654871395E+01
 -0.122207870270E+01
 -0.123495413720E+01
 -0.121413967122E+01
 -0.123397588220E+01
 -0.115718707639E+01
 -0.104364867545E+01
 -0.122509751386E+01
 -0.122705801036E+01
 -0.155835968910E+01
 -0.120124245924E+01
 -0.120055235484E+01
 -0.142918982469E+01
 -0.764751804656E+00
 -0.732092991134E+00
 -0.441209248075E-01
 -0.511333602678E+00
 -0.554848135795E+00
 -0.635889057229E+00
 -0.567839032405E+00
 -0.527005377054E+00
  0.649726868748E+00
  0.990309595356E+00
  0.966998634112E+00
  0.543612168430E+00
  0.665156875358E+00
  0.498548508422E+00
  0.914576335832E+00
  0.913975875194E+00
  0.811204337367E+00
  0.717750708874E+00
  0.864514813229E+00
 -0.102774373478E+01
 -0.118153978493E+01
 -0.113363532704E+01
 -0.112230506550E+01
  0.203007983912E+00
  0.203242349381E+00
 -0.107511647899E+01
 -0.125499824648E+01
 -0.126591284080E+01
 -0.126781469488E+01
 -0.108407368215E+01
 -0.117201622665E+01
 -0.134998845800E+01
 -0.125875348965E+01
 -0.130810657632E+01
 -0.132441399379E+01
 -0.131837341408E+01
 -0.132471401561E+01
 -0.381633536103E+00
 -0.256932251563E+00
 -0.139848157606E+00
 -0.912363950233E-01
 -0.509575284387E+00
 -0.528135407032E+00
 -0.240409890441E+00
 -0.350719120306E+00
 -0.665176526678E+00
 -0.967535094757E+00
 -0.956538395901E+00
 -0.562678804198E+00
 -0.975691653542E+00
 -0.102668867483E+01
 -0.691759954606E+00
 -0.100497033003E+01
 -0.128019708798E+01
 -0.101814773808E+01
 -0.786152971528E+00
 -0.862619391740E+00
 -0.955604409792E+00
 -0.891405876606E+00
 -0.976075159890E+00
 -0.122459299032E+01
 -0.114327023134E+01
 -0.643691354590E+00
 -0.586217044644E+00
 -0.499485807583E+00
 -0.497088384543E+00
 -0.491470174176E+00
 -0.364819463391E+00
 -0.383774727358E+00
 -0.529095270156E+00
  0.308575646683E+00
  0.169461952528E+00
  0.174744152641E+00
  0.712468024145E-01
  0.142938786868E+00
 -0.257206231210E+00
 -0.461529655772E+00
 -0.264679794237E+00
 -0.494117996606E+00
  0.273964673530E-01
  0.538193543757E+00
  0.497768225656E+00
  0.495165285370E+00
  0.886351833452E+00
  0.969025199417E+00
  0.942903542784E+00
  0.960366996473E+00
 -0.309753848385E+00
  0.507464727635E-01
 -0.123419779922E-02
 -0.286706377783E-01
 -0.243127217561E+00
 -0.194348910141E+00
 -0.163403531817E-01
 -0.183305248305E-01
 -0.286320239984E+00
 -0.343420094732E+00
  0.740217721243E-01
  0.469555112573E+00
  0.394634787261E+00
  0.289367793419E+00
  0.418203906602E+00
  0.383529328516E+00
  0.346476939601E+00
  0.537241814938E+00
  0.493093782155E+00
  0.477415950538E+00
  0.412274486248E+00
 -0.122948009267E+01
 -0.120587081142E+01
 -0.799183326866E+00
 -0.821593238234E+00
 -0.122606425282E+01
 -0.120351121406E+01
 -0.117478127309E+01
 -0.122363331021E+01
 -0.126619491592E+01
 -0.122691088657E+01
 -0.125391817974E+01
 -0.123237776283E+01
 -0.124448888155E+01
 -0.127462811194E+01
 -0.123958271105E+01
 -0.739798982406E+00
 -0.819751289615E+00
 -0.778001957173E+00
 -0.613576027506E+00
 -0.924540462173E+00
 -0.101369298292E+01
 -0.797286371458E+00
 -0.705968943413E+00
 -0.750532967089E+00
 -0.961821781452E+00
 -0.947363352944E+00
 -0.881007701434E+00
 -0.769958798802E+00
 -0.803320482810E+00
 -0.940284722367E+00
 -0.107950370253E+01
 -0.909741814323E+00
 -0.126320325945E+01
 -0.116841854277E+01
 -0.116678695173E+01
 -0.116843442140E+01
 -0.938142425674E+00
 -0.982365092814E+00
 -0.581334966295E+00
 -0.588975987365E+00
 -0.256074838885E+00
 -0.329655421568E+00
 -0.341473115637E+00
 -0.291130345231E+00
 -0.128590096500E+00
 -0.163752124649E+00
  0.102106252280E-01
 -0.314504221383E+00
 -0.284899904948E+00
 -0.289311065259E+00
 -0.222140929582E+00
 -0.236982729514E+00
 -0.321182228379E+00
 -0.297057626686E+00
  0.278979773350E-01
  0.869477087650E-01
 -0.854272252996E+00
 -0.885219979858E+00
 -0.883847267986E+00
 -0.871187532397E+00
 -0.608043778454E+00
 -0.801344288255E+00
 -0.858382569041E+00
 -0.677066352865E+00
 -0.615300312986E+00
 -0.113943591975E+01
 -0.425074915270E+00
 -0.414399997613E+00
 -0.682986115765E+00
 -0.503258052573E+00
 -0.578649333820E+00
 -0.100792337215E+01
 -0.956986937158E+00
 -0.986537459800E+00
 -0.830275351907E+00
 -0.852843719621E+00
 -0.784843676402E+00
 -0.119858915056E+01
 -0.122414876535E+01
 -0.925513785248E+00
 -0.125768422160E+01
 -0.125196009539E+01
 -0.758906283166E+00
 -0.832676658421E+00
 -0.834063238111E+00
 -0.944022742050E+00
 -0.100824155434E+01
 -0.985228753763E+00
 -0.118918260643E+01
 -0.131746030546E+01
 -0.120109649345E+01
 -0.127670029163E+01
 -0.122876190099E+01
 -0.123667276144E+01
 -0.125710556879E+01
 -0.123859695376E+01
 -0.123997892187E+01
  0.422211158044E+00
  0.344056365930E+00
  0.334030871567E+00
 -0.516275445633E+00
  0.146634151666E+00
 -0.451499431863E-01
  0.133274746958E+00
  0.131841760661E-01
  0.359089614380E-01
 -0.742568008340E-02
  0.595713617206E-02
 -0.999849385019E-03
 -0.123354002323E+00
 -0.678824841659E-01
  0.164555547428E+00
  0.769316215063E-01
  0.930971345493E-01
 -0.581037937364E+00
 -0.416981971942E+00
 -0.399435785753E+00
 -0.389107107678E+00
 -0.112745185910E+00
 -0.125662598786E+00
  0.994547471922E+00
  0.994643712469E+00
  0.187478077012E+00
 -0.990123699249E+00
 -0.124220270671E+01
 -0.778914815930E+00
 -0.741993309641E+00
 -0.114063742905E+01
 -0.108964546464E+01
 -0.110959639333E+01
 -0.109086252436E+01
 -0.961646659937E+00
 -0.647284646078E+00
 -0.546132284389E+00
 -0.818131236000E+00
 -0.815521678283E+00
 -0.230015719328E+00
 -0.361178674801E+00
 -0.237670712851E+00
 -0.202754541009E+00
 -0.712598353321E-01
 -0.294867930227E+00
 -0.394435357921E+00
 -0.407299448345E+00
 -0.167766110830E+00
 -0.169297667124E+00
 -0.368332076133E+00
 -0.181975034803E+00
  0.385951840754E+00
  0.226943044086E+00
  0.859996011324E+00
  0.879894929415E+00
  0.900877230601E+00
  0.594419062625E+00
 -0.928735795646E+00
 -0.714661137089E+00
 -0.702697916332E+00
 -0.122620639034E+01
 -0.121068279658E+01
 -0.584716336349E+00
 -0.713236851362E+00
 -0.512787869945E+00
 -0.703741169272E+00
  0.611203645791E+00
 -0.830853174800E+00
 -0.819186081391E+00
 -0.438562819933E+00
 -0.448735492286E+00
 -0.743595438901E+00
 -0.912428983294E+00
 -0.937690509460E+00
 -0.935116390782E+00
 -0.826115895338E+00
 -0.941334744100E+00
 -0.793503688395E+00
 -0.106401937242E+01
 -0.106830530336E+01
 -0.115206048519E+01
 -0.102356349245E+01
 -0.102917212499E+01
 -0.118050240056E+01
 -0.114956477260E+01
 -0.115894317101E+01
 -0.115743228983E+01
 -0.134350007168E+01
 -0.129470118036E+01
 -0.848175423984E-01
 -0.218129378087E-01
 -0.381404523557E-01
  0.659079819777E-01
  0.194210398275E+00
  0.146650687982E+00
 -0.276290753683E+00
 -0.144367171281E+00
 -0.399829758346E-01
 -0.389415963749E-01
 -0.449740132140E+00
 -0.436812149090E+00
 -0.441763459030E+00
 -0.295542256447E+00
 -0.343584966830E+00
 -0.461759980497E+00
 -0.156152163804E+00
 -0.718460536324E+00
 -0.766732143449E+00
 -0.538155467797E+00
 -0.446180549749E+00
 -0.579217705622E+00
 -0.461874073789E+00
 -0.562527085190E+00
 -0.619270094055E+00
 -0.637543595895E+00
 -0.643247001973E+00
 -0.121068979211E+01
 -0.128015341278E+01
 -0.139939832035E+01
 -0.128240203259E+01
 -0.138729079078E+01
 -0.119737981576E+01
 -0.127218768914E+01
 -0.111331296539E+01
 -0.113325694690E+01
 -0.121233193183E+01
 -0.128594171254E+01
 -0.121712564148E+01
 -0.127029899315E+01
 -0.127203494572E+01
 -0.126013408678E+01
 -0.128673428650E+01
 -0.131217242184E+01
 -0.127738337430E+01
 -0.128989487959E+01
 -0.126116580530E+01
 -0.975879556127E+00
 -0.416856295420E+00
 -0.978139907908E+00
 -0.940260164114E+00
 -0.101301097550E+01
 -0.100356595209E+01
 -0.111472535506E+01
 -0.110690275995E+01
 -0.110387313610E+01
 -0.626895021691E+00
 -0.300074704746E+00
 -0.345076941104E+00
 -0.498703333080E+00
 -0.604039421979E+00
 -0.741716017306E+00
 -0.610149362401E+00
 -0.852789870665E+00
 -0.608250963790E+00
 -0.684492451894E+00
 -0.645844676527E+00
 -0.677769498509E+00
 -0.562698800897E+00
 -0.893287023015E+00
 -0.751070375617E+00
 -0.842286513689E+00
 -0.908197333628E+00
 -0.120889312082E+01
 -0.111949393973E+01
 -0.113299099213E+01
 -0.111445672160E+01
 -0.768182936715E+00
 -0.762723272260E+00
 -0.916753548499E+00
 -0.968531328309E+00
 -0.106411216147E+01
 -0.972209313860E+00
 -0.983204184566E+00
 -0.117309171621E+01
 -0.110262833480E+01
 -0.998858277856E+00
 -0.912017882479E+00
 -0.882532801535E+00
 -0.823141722128E+00
 -0.860809547819E+00
 -0.904788267989E+00
 -0.887292362780E+00
 -0.113480695869E+01
 -0.107341384657E+01
 -0.109533143640E+01
 -0.115187513984E+01
 -0.122090060471E+01
 -0.121529789142E+01
 -0.401396966313E+00
 -0.508146832134E+00
 -0.406318060322E+00
 -0.547334524898E+00
 -0.526497973584E+00
 -0.507600723080E+00
 -0.420577121539E+00
 -0.436442121312E+00
 -0.636718666116E+00
 -0.667313224947E+00
 -0.525636281143E+00
 -0.525241513155E+00
 -0.655042440185E+00
 -0.579780250989E+00
 -0.628935143311E+00
 -0.721895811558E+00
 -0.850761530317E+00
 -0.114429944581E+01
 -0.115641663888E+01
 -0.115512420267E+01
 -0.957732116365E+00
 -0.117791996048E+01
 -0.119663938778E+01
 -0.115342098832E+01
 -0.121627848137E+01
 -0.119149890492E+01
 -0.120106140121E+01
 -0.113518418564E+01
 -0.123329372157E+01
 -0.128359734840E+01
 -0.122548671932E+01
 -0.121511231010E+01
 -0.116487558819E+01
 -0.115194259424E+01
 -0.117103598295E+01
 -0.104676521937E+01
 -0.113265425238E+01
 -0.114634710800E+01
 -0.728739737469E+00
 -0.741366352824E+00
 -0.826165857634E+00
 -0.857005643295E+00
 -0.943894500089E+00
 -0.103142266390E+01
 -0.885702591838E+00
 -0.101213179619E+01
 -0.104057802485E+01
 -0.887184253121E+00
 -0.949318754171E+00
 -0.950130360479E+00
 -0.669908136383E+00
 -0.711454614412E+00
 -0.621236757339E+00
 -0.839012311918E+00
 -0.869976101481E+00
 -0.938051126512E+00
 -0.937039860649E+00
 -0.511119671208E+00
 -0.134051644970E+00
  0.338665788539E+00
  0.255229974703E+00
 -0.818201894768E-01
 -0.657464254318E-01
  0.421088702854E+00
  0.345764132189E+00
  0.324469068531E+00
  0.330811961714E+00
  0.260264487551E+00
  0.148643921919E+00
  0.865499037617E+00
  0.986466967185E+00
  0.775373457732E+00
  0.690798219168E+00
  0.865837345829E+00
  0.998207824609E+00
  0.814982253306E+00
  0.782436060322E+00
  0.798637392301E+00
  0.935564633701E+00
  0.949494533634E+00
  0.522961625598E+00
  0.387233430974E+00
  0.444905331103E+00
  0.321028687397E+00
  0.573277549130E+00
  0.521163977226E+00
  0.502005551816E+00
  0.528975599907E+00
  0.957447315611E+00
  0.886527069919E+00
  0.884687131695E+00
  0.611159273054E+00
  0.583076175376E+00
  0.246514501890E+00
  0.201766302055E+00
  0.413800985448E+00
  0.907460802870E+00
  0.742358567398E+00
  0.802185698401E+00
  0.817992054022E+00
  0.863855469212E+00
  0.865297467149E+00
  0.772617423696E+00
  0.858363579197E+00
  0.824903689517E+00
  0.800342199269E+00
  0.745874114964E+00
  0.849738222208E+00
  0.701210746348E+00
  0.715296339620E+00
  0.726683908736E+00
  0.499181535322E+00
  0.543895813828E+00
  0.501316230104E+00
 -0.101505289077E+01
 -0.996370025057E+00
 -0.998269892032E+00
 -0.106213536384E+01
 -0.116908831406E+01
 -0.995940787110E+00
 -0.121102394614E+01
 -0.116682315947E+01
 -0.115666417625E+01
 -0.124590976986E+01
  0.375706157652E+00
  0.331282801705E+00
  0.269249178587E+00
 -0.135321832681E+01
 -0.133789063324E+01
 -0.132601012022E+01
 -0.112834261915E+01
 -0.109355193557E+01
 -0.107376142422E+01
 -0.109103274901E+01
 -0.105718017676E+01
 -0.120135365559E+01
 -0.139908579534E+01
 -0.120528171500E+01
 -0.122643231471E+01
 -0.123886638675E+01
 -0.108294120757E+01
 -0.107963722216E+01
 -0.135956016102E+01
 -0.119682503623E+01
 -0.124897027100E+01
 -0.125228002951E+01
 -0.123942365010E+01
 -0.121395536035E+01
 -0.122470810146E+01
 -0.139784848460E+01
 -0.127842556453E+01
 -0.136170010954E+01
 -0.126782731293E+01
 -0.124713286280E+01
 -0.122962150151E+01
 -0.119104201967E+01
 -0.123919569649E+01
 -0.118822677237E+01
 -0.130882758298E+01
 -0.130838380606E+01
 -0.133558920706E+01
 -0.130075742470E+01
 -0.103161139938E+01
 -0.873048275255E+00
 -0.118774955717E+01
 -0.123800456252E+01
 -0.119812263830E+01
 -0.122960224002E+01
 -0.129845776681E+01
 -0.109238599139E+01
 -0.116586658611E+01
 -0.119005325386E+01
 -0.116637291052E+01
 -0.114958242163E+01
 -0.125935040241E+01
 -0.113155942225E+01
 -0.127432228230E+01
 -0.122412633096E+01
 -0.136575382245E+01
 -0.118899027487E+01
 -0.128007216228E+01
 -0.126986312404E+01
 -0.548317705588E+00
 -0.616197076287E+00
 -0.584332164494E+00
 -0.415730949503E+00
 -0.111246730467E+01
 -0.106834429453E+01
 -0.250073049475E+00
 -0.225420487740E+00
  0.191664612998E+00
  0.216430233476E+00
  0.251505903995E+00
  0.220332786245E+00
  0.213708356158E+00
 -0.266912264788E+00
 -0.431891762025E+00
 -0.585636474040E+00
 -0.330260014162E+00
 -0.453913477822E+00
  0.147131544627E-01
  0.195223156649E+00
  0.145020945965E+00
 -0.303984156397E-01
  0.517228095337E-01
  0.139472322838E+00
 -0.941233111598E-01
 -0.894933461923E+00
 -0.625279359090E+00
 -0.657389821591E+00
 -0.653268768964E+00
 -0.661188238594E+00
 -0.740474738882E+00
 -0.719434961898E+00
 -0.753676029030E+00
 -0.688599069480E+00
 -0.859870091109E+00
 -0.864680742555E+00
 -0.923944012592E+00
 -0.884877651409E+00
 -0.719553673138E+00
 -0.712375112339E+00
 -0.563491453974E+00
 -0.592791864805E+00
 -0.124648107169E+01
 -0.125503706203E+01
 -0.128117792958E+01
 -0.130338519498E+01
 -0.130357164568E+01
 -0.672661031951E+00
 -0.893574449303E+00
 -0.847395335274E+00
 -0.981264077841E+00
 -0.105643336716E+01
 -0.115534202638E+01
 -0.114242563102E+01
 -0.985222112070E+00
 -0.894518511255E+00
 -0.125463212871E+01
 -0.126660986254E+01
 -0.116763124348E+01
 -0.123430082052E+01
 -0.117580177036E+01
 -0.119916247633E+01
 -0.119276240039E+01
 -0.733105434857E+00
 -0.748947174265E+00
 -0.914107698893E+00
 -0.893931617386E+00
 -0.841016340246E+00
 -0.892708850541E+00
 -0.747746390006E+00
 -0.107826333419E+01
 -0.108120432740E+01
 -0.864287252410E+00
 -0.893193426937E+00
 -0.981318055096E+00
 -0.946332287296E+00
 -0.970429627860E+00
 -0.963692044181E+00
 -0.103609849076E+01
 -0.836686140912E+00
 -0.746578086172E+00
 -0.726104888350E+00
 -0.122878392329E+01
 -0.123869283131E+01
 -0.120632995956E+01
 -0.121575109522E+01
 -0.126420169106E+01
 -0.125059578879E+01
 -0.127725335647E+01
 -0.128017475797E+01
 -0.125540159165E+01
 -0.126108706944E+01
 -0.123169603366E+01
 -0.124348652024E+01
 -0.131293672651E+01
 -0.108216602579E+01
 -0.110127212516E+01
 -0.112423011573E+01
 -0.118039935773E+01
 -0.109358502934E+01
 -0.648099698531E+00
 -0.686274801715E+00
 -0.338139970029E+00
 -0.249184141703E+00
 -0.149725623903E+00
 -0.205233222092E+00
 -0.245420831792E+00
 -0.434996024852E+00
 -0.524759583357E+00
 -0.697796971157E+00
 -0.692449323687E+00
  0.634885911280E+00
  0.495471847676E+00
  0.494390777816E+00
  0.305787562333E+00
  0.194002338563E+00
  0.202715502475E+00
  0.177921481118E+00
  0.184114956741E+00
  0.294826693980E+00
  0.104145463011E+00
  0.401412250782E-01
 -0.312591620734E-01
  0.600354429034E-02
  0.265999373885E-01
  0.173206743923E-01
  0.418402155734E-01
 -0.547189924941E+00
 -0.705879522372E-01
 -0.967962546488E-01
 -0.773438918955E+00
 -0.760050912845E+00
 -0.753923322189E+00
 -0.726250860154E+00
 -0.700686110652E+00
 -0.702825096367E+00
 -0.279411741892E+00
 -0.462484301962E+00
 -0.402983746725E+00
 -0.531069720091E+00
 -0.426041294071E+00
 -0.254977664124E-01
 -0.280194975862E+00
 -0.460536876243E+00
 -0.446387050643E+00
 -0.413273473232E+00
 -0.682931486096E+00
 -0.323341145056E+00
 -0.105019250185E+00
 -0.168666090583E+00
  0.484266640418E+00
  0.575278702194E+00
  0.176241864159E+00
  0.325159644619E+00
  0.345800641488E+00
  0.133496985195E+00
  0.162891749291E+00
  0.145220453373E+00
  0.248444761628E-01
  0.705700551856E-01
  0.233967920519E-01
  0.392690852429E+00
  0.275054532019E+00
 -0.330205999325E+00
 -0.333301102155E+00
  0.935192983037E+00
  0.915093304208E+00
  0.885952905953E+00
  0.881169032241E+00
  0.877480173819E+00
  0.929371607467E+00
  0.910976728142E+00
  0.912987028530E+00
  0.816024101693E+00
  0.738799843231E+00
  0.748921204708E+00
  0.653301982032E+00
  0.648011810124E+00
  0.726703707830E+00
  0.746624685747E+00
 -0.681722013731E+00
 -0.270352738112E+00
 -0.342203701250E+00
 -0.260457503359E+00
 -0.255690878742E+00
 -0.260037126373E+00
  0.951043530127E-01
  0.617410046123E-01
  0.158220812294E+00
  0.305016437369E+00
  0.356902495943E+00
  0.487977811893E+00
  0.550670913674E+00
 -0.301395922035E+00
 -0.373046743831E+00
 -0.686226913561E+00
 -0.661977881092E+00
 -0.666162618279E+00
 -0.683807366189E+00
 -0.243700712771E+00
  0.552334569825E-01
  0.621420501342E-01
 -0.690214557997E-01
  0.189873569467E+00
  0.215357333441E+00
 -0.120316983241E-01
 -0.670950456394E-01
  0.191885714210E+00
  0.128216944330E+00
  0.110852252389E+00
  0.143870795155E+00
  0.373115295757E+00