# vtk DataFile Version 3.0
MachLine results file. Generated by MachLine, USU AeroLab (c) 2022.
ASCII
DATASET POLYDATA
POINTS                2000 float
 -0.155370014294E+00 -0.182147295090E+00  0.970918390777E+00
  0.219122864014E+00  0.286592809266E+00  0.932657349804E+00
  0.149912000483E+00  0.525476704845E+00  0.837496641651E+00
 -0.720199332614E+00 -0.417733585358E+00  0.553905743757E+00
 -0.247318604307E+00 -0.204007412894E+00  0.947214064216E+00
 -0.602910383212E-01 -0.709383229765E-01 -0.995656941437E+00
 -0.593725714472E+00 -0.253549883840E+00  0.763676785283E+00
 -0.379838278366E+00 -0.603474949988E+00  0.701099755402E+00
 -0.274646603784E+00  0.569433925169E+00  0.774799488833E+00
 -0.586189995072E+00 -0.737805643390E+00 -0.334700048191E+00
  0.928120856584E+00  0.132614239373E+00 -0.347857929461E+00
  0.934362590957E+00  0.352140305131E+00 -0.544403721720E-01
  0.167760225418E+00 -0.981792708451E+00 -0.891043455791E-01
  0.975447796088E+00 -0.191950782034E+00  0.107965246184E+00
 -0.389399741736E+00  0.565998246699E+00  0.726645598534E+00
 -0.284598579764E+00  0.109717281632E+00  0.952347503020E+00
  0.368625417347E-01 -0.958178493932E+00 -0.283787115250E+00
  0.830695581536E+00  0.537963928487E+00 -0.143316651035E+00
  0.756721401294E+00 -0.149587532986E+00  0.636393188837E+00
  0.437167117198E+00  0.473460084350E+00 -0.764670164298E+00
 -0.379719144905E+00  0.676400106725E+00 -0.631107175220E+00
  0.378299154638E-01  0.975979042956E+00  0.214554900217E+00
  0.757764533588E+00  0.593328433215E+00  0.271577395918E+00
  0.917814953073E+00 -0.364526568586E+00  0.157277120751E+00
 -0.780641687209E+00 -0.263884439764E+00 -0.566536458352E+00
  0.217837936209E+00 -0.129498595889E+00  0.967355543330E+00
  0.876190226761E+00  0.481963356421E+00  0.141760193771E-02
 -0.131723596029E+00 -0.420180225683E+00 -0.897829311280E+00
 -0.309287427055E+00 -0.513293721670E+00 -0.800544091703E+00
 -0.129469217437E+00  0.702228020263E+00 -0.700081087656E+00
  0.739610514029E+00 -0.647369366831E+00 -0.184090169284E+00
  0.212812395062E+00 -0.976298136773E+00 -0.394059975244E-01
 -0.561447387307E+00 -0.683199289685E+00 -0.466921365822E+00
 -0.121630497743E+00 -0.364698163817E+00 -0.923147480811E+00
 -0.142759888912E+00 -0.726347851949E+00  0.672338019218E+00
  0.348018879466E+00 -0.436219776088E+00 -0.829816345034E+00
 -0.633141729321E+00  0.773382773963E+00 -0.317904943295E-01
  0.815195199973E+00  0.372143106918E+00  0.443808848396E+00
  0.710920249161E+00  0.678867034391E+00  0.183662595404E+00
 -0.844365775777E+00 -0.445966441350E+00  0.296918119835E+00
 -0.349141902009E+00 -0.872967910585E+00  0.340627302708E+00
  0.253770897774E+00  0.295066725500E+00 -0.921160115803E+00
 -0.107303318378E+00  0.990198413803E+00 -0.894041339449E-01
  0.418494246782E+00 -0.716659880909E+00  0.557907860230E+00
 -0.134950328458E+00  0.251719478015E+00  0.958345299585E+00
 -0.790295599766E+00  0.474630495431E+00  0.387503235854E+00
  0.722244355629E+00 -0.667382001308E+00 -0.181560885360E+00
  0.173876206977E+00  0.222452066905E+00 -0.959313370373E+00
 -0.796108861315E+00 -0.449628864845E+00  0.405024153396E+00
 -0.273465288847E+00  0.945925834863E+00 -0.174473639084E+00
  0.493085052076E+00  0.364943786381E+00 -0.789736135808E+00
  0.176273307244E+00 -0.640774343414E+00  0.747218818002E+00
  0.590383171780E+00  0.655485905555E+00  0.470941544247E+00
  0.279286641443E+00  0.833385217711E+00  0.476936107684E+00
  0.181082312714E+00 -0.918451693047E+00  0.351647100885E+00
  0.762183676475E+00 -0.194757302495E+00 -0.617369934836E+00
 -0.242330753399E+00  0.340140514091E+00  0.908614459840E+00
 -0.293181735415E+00 -0.812500478389E+00  0.503872446792E+00
 -0.187691629539E+00  0.560562095700E+00  0.806561832140E+00
 -0.775877776513E+00 -0.585733249035E+00  0.234372005343E+00
  0.676682895192E+00  0.477905471757E-03  0.736274426393E+00
 -0.493291444376E+00  0.853385181486E+00 -0.168514933834E+00
 -0.503525592632E-01 -0.993550488533E+00 -0.101597472961E+00
  0.370012167166E-01  0.845661715228E+00 -0.532435135353E+00
 -0.486040190084E-01  0.851608069069E+00 -0.521920823528E+00
 -0.204008593295E+00  0.723487298372E+00  0.659504831640E+00
 -0.390632520563E+00  0.450844783730E+00 -0.802586577798E+00
 -0.681683915328E+00  0.158936462143E+00  0.714175217005E+00
 -0.109535573785E-01  0.977088211166E+00 -0.212552692716E+00
 -0.125777751579E+00 -0.242489704921E+00 -0.961966059804E+00
  0.942187682079E-01  0.112654807572E+00  0.989157074508E+00
  0.954663474964E+00 -0.291161632189E+00 -0.619883336595E-01
  0.694425727975E+00  0.960502459797E-01 -0.713124995056E+00
  0.678132574176E+00 -0.734354926105E+00  0.293096289087E-01
 -0.614210101002E+00 -0.400031434143E+00  0.680235844046E+00
  0.782627813550E+00  0.552499059699E+00  0.286772548355E+00
 -0.892118005090E+00 -0.219484456318E-01 -0.451269022568E+00
  0.103484931529E+00 -0.362558991621E+00 -0.926197520263E+00
 -0.580541577418E+00  0.814228981547E+00  0.162557611041E-02
 -0.622813110372E+00  0.207360802574E+00  0.754390699243E+00
 -0.780020661689E+00  0.484269297220E+00  0.396296625154E+00
  0.441663678706E+00 -0.169368130623E+00 -0.881049165053E+00
  0.864705991529E+00 -0.331418824878E+00 -0.377419012148E+00
  0.994600525102E-01 -0.209607425825E+00 -0.972713948185E+00
  0.863168786145E+00  0.429908054319E+00 -0.264799379638E+00
 -0.244187846635E+00 -0.506209890013E+00  0.827117792584E+00
 -0.831933221982E+00  0.321213881380E+00  0.452447518030E+00
 -0.372799832236E+00  0.908130543332E+00  0.190575972652E+00
 -0.822546080505E+00  0.553161510894E+00  0.132023817214E+00
 -0.276690796669E-01  0.922143989343E+00 -0.385856041742E+00
  0.721045352450E-01 -0.312420608672E+00  0.947203409661E+00
  0.420614905884E+00 -0.345575756119E+00 -0.838844739943E+00
  0.176694099134E+00  0.904064540245E+00 -0.389161280708E+00
  0.677425189008E-01 -0.529025101710E-01  0.996299290149E+00
  0.238884317666E+00 -0.216867768258E-02 -0.971045611498E+00
 -0.755509841056E+00  0.297771499850E+00 -0.583555493458E+00
 -0.412186992008E+00 -0.901548588075E+00  0.131575176080E+00
  0.502972593954E-01 -0.703108883385E-01 -0.996256274599E+00
  0.419067776646E-01 -0.878986227753E+00 -0.475002140423E+00
 -0.480889399618E+00  0.566052057455E-02  0.876762991830E+00
 -0.165277889403E+00  0.856311006267E+00 -0.489300193971E+00
 -0.304107427368E+00  0.861666207677E+00 -0.406263484905E+00
 -0.897818598965E+00  0.200735084000E+00 -0.391953044897E+00
 -0.694085484239E+00 -0.656230703438E+00  0.295984128685E+00
  0.637144406750E+00  0.304558961235E-01  0.770142482492E+00
 -0.829312181861E+00  0.579831975517E-01 -0.555769065186E+00
  0.566255386386E+00  0.575710279927E+00 -0.589841089595E+00
 -0.435763020973E+00 -0.875074261440E+00 -0.210607755122E+00
  0.189267999923E+00  0.860224893919E+00  0.473487862661E+00
 -0.179003871758E-01 -0.626823789334E-01 -0.997872985660E+00
 -0.828016071775E+00  0.560645661088E+00 -0.811342013257E-02
 -0.684948446959E+00 -0.101022707039E+00  0.721553904896E+00
  0.549931928731E+00 -0.468045353426E+00 -0.691743030972E+00
  0.418399269639E+00  0.171888973872E+00 -0.891849893102E+00
 -0.239873073049E+00 -0.494236190600E+00  0.835578540131E+00
 -0.785875256089E+00  0.121627140685E+00 -0.606305962791E+00
  0.536645322355E+00  0.710647289633E+00  0.454963985092E+00
  0.700111593931E-01 -0.815581516745E+00 -0.574391179515E+00
  0.910192783345E-01  0.670619800220E-01  0.993588537478E+00
 -0.831229325891E+00 -0.555603053368E+00  0.190539987230E-01
  0.357135939351E+00  0.926865482399E+00 -0.115647301572E+00
  0.986742780542E+00  0.532310314697E-01  0.153313868705E+00
 -0.408662086974E+00  0.209663393077E+00  0.888277299200E+00
 -0.864056676444E+00 -0.108984217986E+00 -0.491455491497E+00
  0.599340897061E+00  0.800278218922E+00  0.185812117226E-01
  0.544259018499E+00  0.755532010752E-01 -0.835508129577E+00
 -0.932591459033E+00 -0.106633989272E+00 -0.344822219224E+00
 -0.747443986353E+00 -0.216904956273E-01  0.663970639159E+00
 -0.126810169024E+00  0.611890223602E+00  0.780710916596E+00
  0.521317762421E+00 -0.543417179094E-02  0.853345334763E+00
 -0.888420211391E+00 -0.298751827392E+00 -0.348506633541E+00
 -0.392815483380E+00 -0.906657708868E+00  0.153843410539E+00
  0.604624971821E+00  0.782683665550E+00 -0.147766447922E+00
  0.856051156101E+00  0.509051213411E+00 -0.896843367712E-01
 -0.571126825954E+00  0.645758506534E-01 -0.818317852786E+00
 -0.480061281306E+00 -0.550987426000E+00  0.682608249716E+00
 -0.933571725161E+00  0.118338089978E+00  0.338289713768E+00
  0.359699384979E+00  0.506316748427E+00 -0.783747218629E+00
 -0.575975313497E-01 -0.946554083920E+00  0.317360820828E+00
 -0.139791522752E+00 -0.712037339837E+00  0.688085137787E+00
  0.475507225732E+00 -0.714078765037E+00 -0.513794117912E+00
  0.313170508503E+00 -0.681572022897E+00 -0.661349990707E+00
 -0.228443566533E+00 -0.232089892349E+00  0.945488137831E+00
 -0.172137751206E+00 -0.638822340050E+00  0.749849726587E+00
  0.774481144190E+00 -0.845184199359E-02 -0.632540531240E+00
  0.682521225716E+00  0.538351335362E+00  0.494310242824E+00
 -0.265541720068E+00  0.940927561246E+00 -0.210102164173E+00
 -0.956048346202E+00  0.137502309229E+00  0.258968482022E+00
 -0.597107461755E+00 -0.802160980040E+00 -0.664242356357E-03
 -0.713393539787E+00  0.186833287742E+00 -0.675398386126E+00
  0.174889760372E+00 -0.731684390688E+00  0.658825867844E+00
  0.753318923100E+00  0.348902498478E-01  0.656729221646E+00
  0.654945073769E+00  0.362366252217E+00 -0.663127174529E+00
  0.595291846228E+00  0.537317767011E+00  0.597425505874E+00
 -0.678075964253E+00  0.248918695506E+00  0.691558001710E+00
 -0.412714482743E+00 -0.752099350576E+00  0.513822267518E+00
  0.553436050082E+00 -0.339433680278E+00 -0.760587480282E+00
  0.808103692433E+00 -0.547613402773E+00 -0.216997657544E+00
 -0.275983343219E+00  0.838557585385E+00 -0.469738619084E+00
  0.312401144486E+00 -0.749466886439E+00  0.583699332753E+00
 -0.983722468248E+00  0.178338405629E+00 -0.220344852841E-01
[...]
CELL_DATA                3996
SCALARS C_p_inc float 1
LOOKUP_TABLE default
  0.531059010845E+00
  0.908216632911E+00
 -0.481091604101E+00
 -0.279358284060E+00
 -0.987692191718E+00
  0.414615704352E+00
  0.565149329784E+00
  0.496681561642E+00
  0.556182844469E+00
 -0.831744423212E+00
 -0.103373854393E+01
 -0.520423627206E+00
 -0.110511490471E+01
 -0.990531926030E+00
  0.101084553584E+00
  0.139336564971E+00
  0.601217449808E+00
  0.688501674456E+00
  0.828244921849E+00
  0.882797954595E+00
  0.934689880769E+00
  0.943941750502E+00
  0.487813071734E+00
  0.555034403413E+00
 -0.152160980285E+00
  0.160119399273E-01
  0.730556305081E-01
  0.852620145993E+00
  0.847305047877E+00
  0.652209166543E+00
  0.731091582598E+00
  0.173684856358E+00
 -0.344998988867E+00
 -0.115381688097E+01
  0.954648464524E+00
  0.989026400605E+00
  0.439013486870E+00
  0.600824315382E+00
  0.594805727615E+00
 -0.155172350172E+00
 -0.100449316724E+00
  0.450104786672E+00
  0.594508352987E+00
  0.690454228462E+00
  0.728061831978E+00
  0.761182224462E+00
 -0.314151167710E+00
 -0.752615591676E+00
 -0.113405363546E+01
 -0.121865738005E+01
 -0.124166514605E+01
 -0.608344745989E+00
 -0.555520200239E+00
 -0.708454465913E+00
 -0.111700532769E+01
 -0.107279208856E+01
 -0.822123353112E+00
 -0.743750264168E+00
 -0.703266136262E+00
 -0.863957411874E+00
 -0.882727371800E+00
 -0.872359481316E+00
 -0.680480163321E+00
 -0.877468469613E+00
 -0.104955165940E+01
 -0.108470285852E+01
 -0.880500496126E+00
 -0.882851056913E+00
 -0.106249006971E+01
 -0.105196511298E+01
 -0.112830545281E+01
 -0.119964798538E+01
 -0.111829625668E+01
 -0.129435257527E+01
 -0.826096061345E-01
  0.596281271416E+00
  0.610422270126E+00
  0.589187874229E+00
  0.101992646215E+00
  0.107025019045E+00
 -0.113425050263E+01
 -0.110486162715E+01
 -0.124846964108E+01
 -0.124091506067E+01
 -0.126984748377E+01
 -0.871026821601E+00
 -0.645803158872E+00
 -0.826697715610E+00
 -0.750006365511E+00
 -0.832969606629E+00
 -0.801970711045E+00
 -0.796511154889E+00
 -0.126050391818E+01
 -0.125905414103E+01
 -0.126318618023E+01
 -0.946629958929E+00
 -0.111213347375E+01
 -0.945319072139E+00
 -0.589936086174E+00
 -0.657779345758E+00
 -0.679720958335E+00
 -0.689229540497E+00
 -0.660254143051E+00
 -0.629060683633E+00
 -0.239519587763E+00
 -0.102414407956E+01
 -0.950995919869E+00
 -0.107450190441E+01
 -0.122973311922E+01
 -0.123718406284E+01
 -0.103185018776E+01
 -0.941708047644E+00
 -0.125170996342E+01
 -0.137628200965E+01
 -0.128079167580E+01
 -0.122298275909E+01
 -0.102978733722E+01
 -0.117291409656E+01
 -0.969140763406E+00
 -0.126900601003E+01
 -0.105003677892E+01
 -0.104453932418E+01
 -0.119183603920E+01
 -0.134138495522E+01
 -0.969603271632E+00
 -0.112969494151E+01
 -0.124500064597E+01
 -0.167968522093E+00
  0.953571182134E+00
  0.405302516976E+00
  0.557501758266E+00
  0.400543302147E+00
  0.241017132884E+00
  0.218297079771E+00
  0.205798964317E+00
  0.567485925445E+00
  0.295081042034E+00
  0.544535363991E+00
  0.461632931316E+00
  0.419919973485E+00
  0.626822168788E+00
  0.523465108881E+00
  0.528503433074E+00
 -0.152241155442E+00
 -0.133362647813E+00
  0.545953649515E+00
  0.477642806900E+00
  0.718347057897E+00
  0.641008803598E+00
  0.809026837444E+00
  0.836616671875E+00
  0.533435774883E+00
  0.808234341382E+00
  0.992850216231E+00
  0.901743351108E+00
  0.899702182292E+00
  0.669558794462E+00
  0.664452659360E+00
  0.889841040887E+00
  0.852369945990E+00
  0.933520642879E+00
  0.631627559696E+00
  0.321198730979E+00
  0.449117719936E+00
 -0.109045041115E+01
 -0.118810351035E+01
 -0.111122848215E+01
 -0.117408538188E+01
 -0.565920241585E-01
 -0.384729918376E-01
 -0.385064669823E+00
 -0.130284136799E+01
 -0.123190735767E+01
 -0.105188741824E+01
  0.298683113813E+00
  0.284423528417E+00
  0.327980840635E+00
  0.662116243797E-01
  0.101259867556E+00
 -0.378374976608E+00
 -0.638187066313E-01
 -0.364128823504E-01
 -0.731889945454E+00
 -0.778838026229E+00
 -0.360649536285E+00
 -0.125157863995E+01
 -0.121877925616E+01
 -0.116279814433E+01
 -0.118691688295E+01
 -0.112749613925E+01
 -0.137586229624E+01
 -0.144320923137E+01
  0.363012137764E+00
  0.204977760630E+00
  0.858000993873E+00
  0.920870624077E+00
  0.389991498152E+00
 -0.150863125857E+00
 -0.536243059872E+00
 -0.484807954485E+00
  0.303958410832E+00
  0.982457837150E+00
  0.974210327186E+00
  0.962286054254E+00
  0.828350826735E+00
  0.286406222871E+00
 -0.380977974030E+00
  0.458015281468E+00
  0.128475230874E+00
  0.102543585884E+00
  0.227330541269E+00
  0.383671490589E+00
 -0.357509308749E+00
 -0.889516130188E+00
  0.268970139676E+00
  0.144879603419E+00
  0.354820697622E+00
  0.375872336354E+00
  0.322066315237E+00
  0.158684447632E+00
  0.320328128219E+00
 -0.391830044551E+00
 -0.389562379312E+00
 -0.380434954243E+00
  0.137632137887E+00
  0.142525627156E+00
 -0.308507090091E+00
 -0.412686122196E-01
 -0.533454416564E-01
 -0.378067700194E+00
 -0.315446288961E+00
 -0.206419970530E+00
 -0.120124189646E+01
 -0.107620927248E+01
 -0.120821869527E+01
 -0.120390500108E+01
 -0.115784872077E+01
 -0.115152830158E+01
  0.945246288116E+00
  0.994368020177E+00
  0.988127478584E+00
  0.945509159894E+00
  0.942784143154E+00
  0.845727472956E+00
  0.819802614826E+00
  0.818178757128E+00
  0.816647226213E+00
  0.702075707279E+00
  0.725008491202E+00
  0.784074648685E+00
  0.743313796234E+00
  0.761690029852E+00
 -0.692956828018E-02
 -0.184762589149E+00
 -0.171495849576E+00
 -0.169869195999E+00
 -0.493239036317E+00
  0.456755411955E+00
  0.453406577644E+00
  0.265569229789E+00
  0.334028159720E+00
 -0.111222758550E+01
 -0.114744182059E+01
 -0.140801715747E+01
 -0.966984955314E+00
 -0.177963499140E+00
 -0.894755486402E-01
  0.281408436102E+00
  0.273542072967E+00
  0.522941596347E-01
  0.454475089989E-01
  0.182155304916E+00
  0.287401441893E+00
  0.210144549225E+00
 -0.121650080203E+01
 -0.223877204624E+00
 -0.190761867525E+00
 -0.612621920591E+00
 -0.130590603979E+01
 -0.114082576279E+01
 -0.124009288875E+01
 -0.114926253904E+01
 -0.105554086471E+01
 -0.110445572738E+01
 -0.129628112116E+01
 -0.118645198599E+01
 -0.121921716549E+01
 -0.463736466553E+00
 -0.124775421776E+01
 -0.125389198209E+01
 -0.511834024482E+00
 -0.308193138662E+00
 -0.161400932039E+00
 -0.866331820877E+00
 -0.113046268110E+01
 -0.919124718961E+00
 -0.882988841197E+00
 -0.755910141115E+00
 -0.891474499103E+00
 -0.707714973647E+00
 -0.717335038817E+00
 -0.996763444492E+00
 -0.899955910071E+00
 -0.863263846023E+00
 -0.133847366534E+01
 -0.128315022968E+01
 -0.123379757384E+01
 -0.114778738274E+01
 -0.120070752844E+01
 -0.114053251916E+01
 -0.114930736003E+01
 -0.113408563113E+01
 -0.105957353248E+01
 -0.110356838987E+01
 -0.102453883138E+01
 -0.114207777340E+01
 -0.105275546492E+01
  0.655627693002E-01
 -0.108386744939E+00
 -0.101095111897E+00
  0.660000998296E-01
 -0.326626600001E-01
 -0.165438568227E+00
 -0.220846116171E+00
 -0.875482562670E+00
 -0.767751749955E+00
  0.291466328873E+00
  0.441282552161E+00
  0.387033062445E+00
  0.832592380298E-01
 -0.161059422552E+00
 -0.148003075390E+00
 -0.111344762692E+01
 -0.112476838633E+01
 -0.127911404589E+01
 -0.126935590928E+01
 -0.125708791397E+01
 -0.126190231670E+01
 -0.118052366111E+01
 -0.111323886327E+01
 -0.908292799262E+00
 -0.973036969236E+00
 -0.103640983598E+01
 -0.103580872414E+01
 -0.106605480978E+01
 -0.123356141917E+01
 -0.109580500219E+01
 -0.103809276558E+01
 -0.118983992091E+01
 -0.846306990087E+00
 -0.993963460703E+00
 -0.959114956334E+00
 -0.791786068888E+00
 -0.753337919788E+00
 -0.533774764055E+00
 -0.593095189574E+00
 -0.363482316131E+00
 -0.288867543737E+00
 -0.284499206410E+00
 -0.303441648094E+00
 -0.962234997866E+00
 -0.102243630631E+01
 -0.110625881783E+01
 -0.113160573579E+01
 -0.128068275398E+01
 -0.391848643931E+00
 -0.437256345073E+00
 -0.462643601251E+00
 -0.880659445535E+00
 -0.677418594789E-01
 -0.312352924663E+00
 -0.308123167613E+00
 -0.124161753515E+01
 -0.119000799988E+01
 -0.133348675939E+01
 -0.133022815552E+01
 -0.127794135872E+01
 -0.140659565499E+01
 -0.116228415558E+01
 -0.662321583148E+00
 -0.841352236126E+00
 -0.535690218658E+00
 -0.511119866012E+00
 -0.977933710011E+00
 -0.534524683648E+00
 -0.950549982375E+00
 -0.941901686612E+00
 -0.109180830186E+01
 -0.122900187565E+01
 -0.144285708482E+01
 -0.107613004206E+01
 -0.111812017347E+01
 -0.121743974557E+01
 -0.112588109509E+01
 -0.713351924263E+00
 -0.578850382240E+00
 -0.279819016963E+00
 -0.360965084855E-01
 -0.245288823519E+00
 -0.298271805596E+00
 -0.185376963245E+00
 -0.628958753690E+00
 -0.690437248209E+00
 -0.118549926160E+01
 -0.127837397726E+01
 -0.126644148939E+01
 -0.123529007320E+01
 -0.129904705150E+01
 -0.128347144093E+01
 -0.124349609035E+01
 -0.123914967351E+01
 -0.850944146540E+00
 -0.912256042913E+00
 -0.905841811404E+00
 -0.955986690512E+00
 -0.100642109132E+01
 -0.926545878065E+00
 -0.107194792582E+01
 -0.996952207549E+00
 -0.943756835357E+00
 -0.959149644686E+00
 -0.120652642358E+01
 -0.122699683959E+01
 -0.123385301436E+01
 -0.122338112229E+01
 -0.134637557685E+01
 -0.955224823257E+00
 -0.935325880591E+00
 -0.107688177912E+01
 -0.105212493824E+01
 -0.115823888554E+01
 -0.106341711497E+01
 -0.108504120952E+01
 -0.129745141966E+01
 -0.122356715098E+01
 -0.123900343100E+01
 -0.125950409684E+01
 -0.130384779679E+01
 -0.128290621356E+01
 -0.109987550511E+01
 -0.107451510593E+01
 -0.420737780573E-01
 -0.270720941983E-01
 -0.942473181157E-01
 -0.172491151521E+00
  0.836507005638E+00
  0.890206662081E+00
  0.931608245545E+00
  0.760129173861E+00
  0.997354130414E+00
  0.985722238571E+00
  0.988521520590E+00
  0.228163488002E+00
  0.506569120738E+00
  0.358685478121E+00
  0.353511603496E+00
  0.426832685635E+00
  0.354815152267E+00
  0.501731730318E+00
  0.453825829404E+00
 -0.144286383698E+00
  0.200024603110E+00
  0.576773270593E+00
  0.387002005503E+00
  0.464683535005E+00
  0.430596084575E+00
  0.419472656283E+00
  0.382814105970E+00
  0.219624940490E+00
 -0.209987751820E+00
  0.270134770485E+00
  0.400373554565E+00
  0.533737894500E+00
  0.483578228351E+00
  0.479533815281E+00
  0.473270767905E+00
  0.306881254567E+00
  0.292406298431E+00
 -0.547112523136E+00
  0.218998104961E+00
 -0.501040877435E-01
 -0.436891678538E-01
 -0.485791017651E+00
 -0.274447243015E+00
 -0.187283566274E+00
 -0.347735628953E+00
 -0.835958818006E+00
  0.497984652458E+00
  0.430674595456E+00
  0.301770371832E+00
  0.342698635722E+00
  0.415789424111E+00
 -0.457189589609E+00
  0.718927738566E+00
  0.627240443268E+00
  0.691994369526E+00
  0.590987975106E+00
  0.629361995562E+00
  0.716593799384E+00
  0.608447448732E+00
  0.490764885783E+00
  0.747835013755E+00
  0.667552275749E+00
  0.726003625402E+00
  0.765605102911E+00
  0.734933830003E+00
  0.694389446417E+00
  0.681420468130E+00
  0.817576298872E+00
  0.962212973380E+00
  0.922550530418E+00
  0.930614738520E+00
  0.931426025927E+00
  0.899584003678E+00
  0.949647794411E+00
  0.944286747886E+00
  0.992914701316E+00
  0.953168061291E+00
  0.980618338774E+00
  0.992860084407E+00
  0.991323659581E+00
  0.991701209891E+00
  0.991830293893E+00
  0.984874265286E+00
  0.956465986184E+00
  0.949426113599E+00
  0.593181267714E+00
  0.490121578825E+00
  0.562890331476E+00
  0.406040354510E+00
  0.403536745002E+00
  0.818288945317E+00
  0.650161082786E+00
  0.642293718384E+00
  0.529006014824E+00
  0.481085806661E+00
  0.442431249521E+00
  0.355488448388E+00
  0.320408655419E+00
  0.135332318918E+00
  0.230473145651E+00
  0.507396275302E+00
  0.855886528568E+00
  0.871754486909E+00
  0.511521413922E+00
  0.486448771406E+00
  0.485267180784E+00
 -0.998829490771E+00
 -0.109205820776E+01
 -0.125592693684E+01
 -0.124686796716E+01
 -0.115696550755E+01
 -0.115616749741E+01
 -0.141589656164E+01
 -0.111771996188E+01
 -0.115639433480E+01
 -0.920250901975E+00
 -0.114354747249E+01
 -0.117974062612E+01
 -0.124172159195E+01
 -0.118799211063E+01
 -0.120587903951E+01
 -0.120360919258E+01
 -0.133357173641E+01
 -0.121971927000E+01
 -0.122098238889E+01
 -0.478624000716E+00
 -0.350610024978E+00
 -0.527356928842E+00
 -0.529427479042E+00
 -0.698562690242E+00
 -0.814872619631E+00
 -0.906787502332E+00
 -0.853133555946E+00
 -0.906156479112E+00
 -0.908064570288E+00
 -0.105704304095E+01
 -0.103683529992E+01
 -0.108767370956E+01
 -0.770869988206E+00
 -0.131442227349E+01
 -0.119604012006E+01
 -0.126010255239E+01
 -0.117541589972E+01
 -0.118088826318E+01
 -0.117851651583E+01
  0.504771103664E-01
  0.140276949786E+00
 -0.150643132809E+00
  0.347233869100E-01
 -0.220921736806E+00
  0.543066857342E-01
  0.101464418281E+00
  0.274644601827E+00
  0.314172653308E+00
 -0.132010362431E+00
 -0.379616146838E+00
 -0.387851619917E+00
 -0.273010403975E+00
 -0.316998127165E+00
 -0.854332402980E+00
 -0.700441444267E+00
 -0.101509825477E+01
 -0.918807541361E+00
 -0.124210613914E+01
 -0.112660185479E+01
 -0.110195771699E+01
 -0.874565090639E+00
 -0.651267932906E+00
 -0.108115593277E+01
 -0.991855736071E+00
 -0.360614163414E+00
 -0.270899477965E+00
 -0.108977434777E+01
 -0.443323274296E+00
 -0.783033200160E+00
 -0.903837703871E+00
 -0.699244658229E+00
 -0.122839636201E+01
 -0.113331980922E+01
 -0.142122369411E+01
 -0.128385976695E+01
 -0.123472249363E+01
 -0.122391659663E+01
 -0.124121799862E+01
 -0.122544554845E+01
 -0.575600212815E+00
 -0.210964781340E+00
 -0.193927316265E+00
  0.108698801694E+00
  0.115733011868E+00
  0.831564776346E+00
  0.837663750771E+00
  0.723144687999E+00
  0.721413550966E+00
  0.853899546748E+00
  0.906522072281E+00
  0.815337747097E+00
  0.919814406862E+00
  0.929536622340E+00
  0.722235839626E+00
  0.770417456935E+00
  0.626410535429E+00
  0.656409882160E+00
 -0.355764516007E-01
 -0.121596674718E+00
 -0.390088300596E+00
 -0.380051304010E+00
  0.521059890542E+00
  0.619901417387E+00
  0.622707970763E+00
  0.541481522756E+00
  0.476869875221E+00
  0.574107140675E+00
  0.520013571219E+00
  0.487941621454E+00
  0.859988394110E+00
  0.516573634183E+00
  0.558646419314E+00
  0.745157194072E+00
  0.744080714584E+00
  0.680217205330E+00
  0.692254737599E+00
  0.684143235519E+00
  0.436980680815E+00
  0.569196924417E+00
  0.857145125359E+00
  0.921544442509E+00
  0.640523074888E+00
  0.981454383364E+00
  0.956897971516E+00
  0.936664427329E+00
  0.769998558526E+00
  0.782143951202E+00
  0.531108649709E+00
  0.397333782166E+00
  0.443963106288E+00
  0.440888322799E+00
  0.480754394622E+00
  0.418155418041E+00
  0.475604260215E+00
  0.586070818664E+00
  0.655868421718E+00
  0.683480899305E+00
  0.436078606388E+00
  0.458142702069E+00
  0.440248901530E+00
 -0.107089852542E+00
  0.801548086616E-01
  0.183586502347E+00
 -0.122458469828E+01
 -0.761830153240E+00
 -0.120659942009E+01
 -0.120958914674E+01
 -0.564025994291E+00
 -0.859297082457E+00
 -0.845768957988E+00
 -0.875164097819E+00
 -0.758990811079E+00
 -0.399295764466E+00
 -0.645679529724E+00
  0.374524974422E-01
 -0.848335152426E-01
 -0.363180841327E-01
  0.464786684941E+00
  0.514737378906E+00
 -0.507376606400E+00
 -0.119552184244E+01
 -0.117586722359E+01
 -0.115401319285E+01
 -0.107905200535E+01
 -0.101237102319E+01
 -0.102676079063E+01
 -0.130036476402E+01
 -0.120092336096E+01
 -0.118192478675E+01
 -0.116873290287E+01
 -0.114560644998E+01
 -0.116846459483E+01
 -0.112376881680E+01
 -0.961047523220E+00
 -0.904566356024E+00
 -0.960839515584E+00
 -0.123800651853E+01
 -0.144125607092E+01
 -0.144641181901E+01
 -0.120004434249E+01
 -0.106643018874E+01
 -0.982826257968E+00
 -0.899579757104E+00
 -0.483969605916E+00
  0.943703521667E+00
  0.966404038963E+00
  0.886294924860E+00
  0.933731629058E+00
  0.865630378125E+00
  0.874624024743E+00
  0.822694642440E+00
  0.906762590969E+00
  0.903619992246E+00
  0.865602371626E+00
 -0.624416475194E-01
 -0.639938554259E+00
 -0.907499312018E+00
  0.465081513240E+00
  0.754622698926E+00
  0.596537114783E+00
  0.617798273562E+00
  0.545120006445E+00
  0.536080787924E+00
  0.121582015897E+00
  0.244198514037E+00
  0.287582172806E+00
 -0.531326543492E-02
 -0.177358615475E+00
  0.607622287923E-02
  0.331369373712E-01
 -0.624287887711E+00
 -0.125951310399E+01
 -0.122024280358E+01
 -0.121851299115E+01
 -0.138295696927E+01
 -0.130107804374E+01
 -0.964904488493E+00
 -0.721865581430E+00
 -0.704329740293E+00
 -0.859008261809E+00
 -0.122550677924E+01
 -0.120685093855E+01
 -0.120772079544E+01
 -0.120067160034E+01
 -0.792405696535E+00
 -0.839624661843E+00
 -0.108713463976E+01
  0.136660922397E+00
  0.350075173785E+00
  0.144415144736E+00
  0.141819059935E+00
 -0.136595866673E+01
 -0.101370745764E+01
 -0.898107840570E+00
 -0.829790249577E+00
 -0.760604242093E+00
 -0.719890849175E+00
 -0.814351920994E+00
 -0.736394843348E+00
 -0.532757553020E+00
 -0.620204648683E+00
 -0.554534674949E+00
 -0.555803021808E+00
 -0.594082513793E+00
 -0.546080814146E+00
 -0.571603622944E+00
 -0.542039086033E+00
 -0.120535166696E+01
 -0.129155253472E+01
 -0.122524534344E+01
 -0.122785058569E+01
 -0.133690149464E+01
 -0.117518056606E+01
 -0.119977025646E+01
 -0.129374320242E+01
 -0.130105947373E+01
 -0.117423721448E+01
 -0.130287082175E+01
 -0.127388379605E+01
 -0.121354331314E+01
 -0.124011255517E+01
 -0.113702326625E+01
 -0.131644452851E+01
 -0.122108964743E+01
 -0.142179724484E+01
 -0.124896902008E+01
 -0.119972449391E+01
 -0.127192901468E+01
 -0.125551449850E+01
 -0.121229214494E+01
 -0.122647096064E+01
 -0.113374629117E+01
 -0.121455984759E+01
 -0.111687351522E+01
 -0.103877578897E+01
 -0.125412880163E+01
 -0.124090218203E+01
 -0.111331422927E+01
 -0.107775888271E+01
 -0.887979902468E+00
 -0.998046488879E+00
 -0.128057986136E+01
 -0.126147570325E+01
 -0.111521594720E+01
 -0.596326051664E+00
 -0.328436098838E+00
 -0.558179817744E+00
 -0.559595113761E+00
 -0.172076086099E+00
 -0.150259801481E+00
 -0.320827823920E+00
 -0.334857765011E+00
 -0.697168283168E+00
 -0.563577647415E+00
 -0.614437530999E+00
 -0.610466709549E+00
 -0.317504335871E+00
 -0.334859899342E+00
 -0.521900587059E+00
 -0.480828174692E+00
 -0.957120753591E+00
 -0.118502604689E+01
 -0.108976857461E+01
 -0.987962296358E+00
 -0.962610278046E+00
 -0.112918533952E+01
 -0.117512089732E+01
 -0.115922966877E+01
 -0.584574232914E+00
 -0.582717781418E+00
 -0.107112317629E+01
 -0.621512387974E+00
 -0.590341689552E+00
 -0.630171595215E+00
 -0.489303996470E+00
 -0.497342624585E+00
 -0.131657536611E+01
 -0.130855073492E+01
 -0.132618697596E+01
 -0.128227335728E+01
 -0.119392986895E+01
 -0.118597088922E+01
 -0.119886841942E+01
 -0.119761626653E+01
 -0.113541824042E+01
 -0.115778785235E+01
 -0.127975932795E+01
 -0.128054162637E+01
 -0.105381236518E+01
 -0.111719930680E+01
 -0.100131887380E+01
 -0.908744686415E+00
 -0.113848819467E+01
 -0.108816773033E+01
 -0.115242203157E+01
 -0.113498860167E+01
 -0.113242853094E+01
 -0.113405284176E+01
 -0.120735104418E+01
 -0.117969063658E+01
 -0.120915238398E+01
 -0.118697086857E+01
 -0.968617868690E+00
 -0.934628667880E+00
 -0.786422602313E+00
 -0.106529901637E+01
 -0.945945340383E+00
 -0.928636491826E+00
 -0.835447709633E+00
 -0.106529143826E+01
 -0.757808107090E+00
 -0.877111472066E+00
  0.113132841662E+00
  0.152657161025E+00
  0.103995210157E+00
  0.259417367341E+00
  0.715362714218E-01
  0.954806298422E-01
  0.108351387746E+00
  0.394660922020E+00
 -0.356107283447E+00
 -0.416495722396E+00
 -0.887599428750E+00
 -0.100004954733E+01
 -0.948036620393E+00
 -0.108314799013E+01
 -0.968239410935E+00
 -0.100252469955E+01
 -0.102880282855E+01
 -0.108829312531E+01
 -0.109735030931E+01
 -0.116643573510E+01
 -0.116590493883E+01
 -0.108105893871E+01
 -0.105789893465E+01
 -0.122482692482E+01
 -0.121075529027E+01
 -0.114027032647E+01
 -0.113940380740E+01
 -0.851365751105E+00
 -0.879550740975E+00
 -0.115231357174E+01
 -0.120195862827E+01
 -0.583649087023E+00
 -0.365738892708E+00
 -0.394964086187E+00
  0.125879161032E+00
  0.198972176229E-02
  0.136324125671E+00
  0.993525747328E-01
 -0.178503659632E-01
 -0.692434192486E+00
 -0.702298758786E+00
 -0.694899299728E+00
 -0.406119451136E-01
  0.864148124745E-01
  0.163004048773E+00
  0.145363538447E+00
 -0.495107140444E+00
 -0.466021493069E+00
 -0.871577704600E+00