# vtk DataFile Version 3.0
MachLine results file. Generated by MachLine, USU AeroLab (c) 2022.
ASCII
DATASET POLYDATA
POINTS                4000 float
 -0.829954899251E+00  0.521661834842E+00  0.197595028476E+00
  0.649252208525E+00 -0.548452496110E-01  0.758593150721E+00
  0.250733091877E+00  0.398113480312E-01  0.967237288986E+00
 -0.685200733158E+00  0.724204954448E+00 -0.776346522730E-01
  0.953304878882E+00  0.270879537726E+00 -0.133544314520E+00
  0.933978706883E+00  0.284185706012E+00 -0.216615464793E+00
 -0.601007403085E+00  0.782458976867E+00  0.162935726462E+00
  0.813840838628E+00  0.130721690963E+00 -0.566193367051E+00
 -0.179599645480E+00 -0.598455336210E-01 -0.981917755950E+00
 -0.399233105373E+00 -0.261377565799E+00  0.878802990249E+00
  0.324399699076E+00  0.144300543046E+00  0.934848751679E+00
  0.805032589538E+00  0.219323961532E+00  0.551198267123E+00
 -0.384015518925E+00 -0.905419064300E+00 -0.180965187888E+00
  0.142092168897E+00 -0.428872490811E+00 -0.892120060398E+00
 -0.947770268982E-01  0.988834689085E+00 -0.114992490342E+00
  0.550704978285E+00 -0.645497498428E+00 -0.529204125471E+00
 -0.550918195081E+00 -0.564493056425E+00  0.614684253561E+00
  0.384013019302E+00  0.786119285376E+00 -0.484304109178E+00
 -0.722307975314E+00  0.103653766083E+00  0.683759523206E+00
  0.567824585820E+00 -0.436624480960E+00  0.697806780108E+00
  0.153291131155E+00  0.928214104631E+00 -0.338999122525E+00
 -0.824731757069E+00  0.338283525635E-01 -0.564511444919E+00
  0.884726311533E+00 -0.239134909285E+00  0.400092300403E+00
  0.183875681727E+00 -0.978504223068E+00 -0.933767589246E-01
  0.492883073289E-01 -0.204304245722E+00 -0.977665810971E+00
 -0.325163604099E+00 -0.926937099262E+00 -0.187233128963E+00
 -0.300519772316E+00 -0.827741459844E+00 -0.473848015826E+00
  0.289897984280E+00  0.671264137754E+00  0.682175648990E+00
  0.185554374849E+00  0.199268871286E+00  0.962216966651E+00
 -0.974175102138E+00  0.719777034513E-01  0.214014206492E+00
 -0.488745884465E-01  0.492643112691E+00  0.868857892939E+00
  0.486688711881E+00  0.736543091651E+00 -0.469721589741E+00
 -0.468154665382E+00  0.214874733529E+00  0.857123128944E+00
  0.625074293034E+00  0.266757375822E+00  0.733568422597E+00
 -0.105049883327E+00 -0.657608940075E+00  0.745999332403E+00
 -0.250277533582E+00  0.875700769349E+00 -0.412927740343E+00
  0.303097818864E-01  0.849276600120E+00 -0.527077388635E+00
 -0.617872816066E-01 -0.441170674904E+00 -0.895293676643E+00
  0.270562301630E-01  0.999560679323E+00  0.120999487942E-01
  0.219740228213E+00 -0.634436899371E+00  0.741083026942E+00
 -0.594421873048E+00 -0.771376898772E+00 -0.227245059095E+00
  0.538564240011E+00  0.526511543137E+00 -0.657825322046E+00
 -0.989425692511E+00  0.144569980098E+00 -0.116756093255E-01
 -0.228040954991E+00  0.119417511387E+00  0.966300564432E+00
  0.245499318466E+00 -0.686507568441E+00  0.684424899536E+00
 -0.728411666404E+00 -0.684058318427E+00 -0.384793611901E-01
  0.643755423238E+00  0.651071913467E+00 -0.402099886280E+00
  0.476244814027E+00  0.528993934263E+00 -0.702393262087E+00
 -0.557384158574E+00  0.351245602488E+00 -0.752296102944E+00
 -0.995018384502E+00  0.882632866193E-01  0.463465935998E-01
  0.303070906112E+00 -0.272387693381E+00 -0.913210255288E+00
  0.460080451071E-01 -0.970028974343E+00  0.238593899167E+00
  0.550711446697E+00  0.661520466123E+00 -0.509026104809E+00
 -0.493051559132E+00 -0.765283713299E+00 -0.413812757412E+00
 -0.387066714437E+00  0.854436841680E+00  0.346579056139E+00
 -0.946161135602E+00 -0.215279934016E+00  0.241730543139E+00
  0.402166798205E+00 -0.513887623016E+00 -0.757747568345E+00
  0.975297167363E+00  0.101936399155E+00  0.195970420883E+00
 -0.715200349986E+00 -0.486194396276E-02  0.698902583256E+00
 -0.308079910485E+00  0.275692689721E+00  0.910538472328E+00
  0.145749527727E+00  0.902143027632E+00 -0.406072694062E+00
 -0.692876885677E+00  0.189560818173E+00  0.695692688986E+00
  0.421311107763E+00  0.596314868501E+00 -0.683304857351E+00
  0.240478925108E+00 -0.551510619682E+00 -0.798752729546E+00
 -0.855395125827E+00 -0.544668667421E-01 -0.515104396350E+00
 -0.117582196799E+00  0.593126709973E+00 -0.796476699541E+00
  0.289625026291E+00  0.790156642988E+00  0.540157221269E+00
  0.397782637213E+00  0.784055369894E+00 -0.476472612511E+00
 -0.261836697087E+00  0.802984022475E+00 -0.535404710204E+00
  0.182583138474E+00  0.982511557220E+00 -0.365299530951E-01
  0.148537490406E+00 -0.988792958039E+00 -0.150033355086E-01
  0.888043522420E+00 -0.417311815964E+00  0.192949606234E+00
  0.452635669546E+00 -0.393882505852E-01  0.890825188446E+00
 -0.992880062576E+00  0.118934802915E+00 -0.661014336955E-02
 -0.464485068262E+00 -0.600568138546E+00 -0.650823733682E+00
  0.548350910268E+00 -0.801152660313E+00 -0.239720032708E+00
 -0.146519045596E+00  0.686396189667E+00  0.712314846180E+00
  0.223911989979E+00  0.935308655334E+00  0.273972881870E+00
 -0.107023563751E+00 -0.988293237485E+00 -0.108731014632E+00
 -0.703156827514E+00  0.617451435161E+00  0.352596371419E+00
 -0.341651229585E+00 -0.938281450486E+00 -0.538735277987E-01
  0.632099410674E+00  0.291497129291E+00  0.717969190593E+00
  0.309583370904E+00 -0.848159363089E+00  0.429864898852E+00
  0.846297319191E+00  0.512103863054E+00  0.146732685438E+00
 -0.626003650626E-01  0.858398828459E+00  0.509148942447E+00
  0.706370320383E+00 -0.550737958269E-01  0.705696710701E+00
 -0.153594752195E+00  0.192128729286E+00  0.969275607596E+00
 -0.399351603741E+00 -0.798086987039E+00 -0.451193370639E+00
  0.156596278213E+00 -0.930050530802E+00  0.332390757699E+00
  0.768760939294E+00 -0.376473521086E+00  0.516985789106E+00
  0.816622037477E+00  0.562320078690E+00 -0.130094492617E+00
 -0.287492068458E+00  0.608563036074E+00 -0.739594038441E+00
  0.991005209726E-01 -0.159981112055E+00  0.982132949518E+00
  0.823593655456E+00  0.343566305493E+00  0.451282266904E+00
 -0.381391373114E+00  0.910426002180E+00  0.160203355363E+00
 -0.698842500888E+00 -0.680879980081E+00  0.219138339132E+00
 -0.341784642242E+00 -0.241555265063E+00  0.908203893544E+00
 -0.379368601039E+00  0.660127527523E+00 -0.648314053489E+00
 -0.806772071577E+00  0.487894080902E+00  0.333283948524E+00
 -0.956581222588E+00 -0.124915603230E+00  0.263340951359E+00
 -0.341287866928E+00  0.341646933754E+00 -0.875671150915E+00
  0.865325863539E+00  0.481666204583E+00 -0.138595877472E+00
 -0.486686555815E+00  0.717564875827E+00 -0.498233725644E+00
 -0.856563911795E-02 -0.276819391873E+00 -0.960883788036E+00
  0.560903045833E+00 -0.246549848551E+00  0.790316990425E+00
  0.951711725145E+00 -0.286109673226E+00  0.111292619288E+00
  0.266988756420E+00 -0.793594221967E+00 -0.546740537006E+00
  0.112843916823E+00 -0.357105227361E-01 -0.992970799672E+00
 -0.467935986464E+00  0.721494603812E+00 -0.510373832834E+00
 -0.785632644365E+00  0.617740156259E+00  0.343285224327E-01
  0.505217068637E+00  0.396509159995E+00 -0.766509099488E+00
 -0.110166690994E+00 -0.140240885430E+00 -0.983969407171E+00
 -0.418819131459E+00 -0.883613968999E+00 -0.209324840654E+00
  0.384387236369E-01 -0.722686941810E+00 -0.690105824250E+00
 -0.415748847369E+00  0.499570470258E+00 -0.759988316461E+00
 -0.435468797065E+00 -0.859325499373E+00 -0.268191373669E+00
 -0.833777769924E+00 -0.349260579084E+00 -0.427588211108E+00
  0.769085104266E+00  0.638951547864E+00 -0.157804270638E-01
 -0.675151906150E-02  0.427022316488E+00  0.904215880314E+00
  0.388106859985E+00 -0.189507396336E+00 -0.901920180485E+00
 -0.382536144208E+00 -0.906189315644E+00 -0.180241567311E+00
  0.166561484167E+00 -0.243386925969E+00 -0.955520840306E+00
 -0.466190893207E+00 -0.263981328846E+00 -0.844381376578E+00
  0.585420777531E+00  0.257676100571E+00 -0.768690796373E+00
  0.865715268983E-01 -0.457885058445E+00 -0.884786213717E+00
 -0.111471372542E+00  0.942208343398E+00 -0.315939188351E+00
 -0.315112669511E+00  0.907260998815E+00 -0.278534532047E+00
 -0.794126263971E+00 -0.576237350483E+00  0.193168301697E+00
 -0.205656347548E-01  0.979761655560E+00 -0.199108395004E+00
 -0.192130648995E+00  0.566986151445E+00  0.801007189597E+00
 -0.335585765611E+00 -0.866411749578E+00 -0.369747040708E+00
 -0.638263670631E+00 -0.759988523069E+00  0.122625166892E+00
 -0.286877647857E+00  0.957615396478E+00 -0.259608857564E-01
 -0.290879971836E+00 -0.842881018271E-01  0.953039536365E+00
 -0.222285389002E+00 -0.835501345209E+00  0.502520355797E+00
  0.551196699396E+00  0.745835141639E+00  0.374048312484E+00
 -0.411796150329E-01  0.412490344434E+00 -0.910030744016E+00
  0.690639651255E+00 -0.366838004799E+00  0.623254964160E+00
 -0.630399776954E+00  0.490332099280E+00 -0.601806076434E+00
  0.908722515912E+00 -0.124421737485E-01 -0.417215269838E+00
  0.181244189764E+00 -0.260089679517E+00  0.948421795556E+00
  0.116515156855E+00 -0.932247660581E+00  0.342547102693E+00
 -0.430836398866E+00 -0.882788362644E+00  0.187255718718E+00
 -0.326312198587E+00 -0.119003175426E-01  0.945187140992E+00
  0.654828855682E-01 -0.475826298652E+00 -0.877098241481E+00
  0.234354988001E+00 -0.460159694140E+00 -0.856347356794E+00
  0.882626496072E+00 -0.432281216379E+00 -0.184671108725E+00
  0.151764985535E+00  0.426076784227E+00  0.891866561268E+00
  0.130262913053E-01 -0.642973762575E+00  0.765777419604E+00
  0.511244943162E+00 -0.985688217917E-01  0.853763899133E+00
 -0.800346675498E+00 -0.346021376830E+00 -0.489606378426E+00
 -0.369807038013E+00  0.319574981505E+00  0.872418813318E+00
 -0.488850721811E+00 -0.533509438757E+00 -0.690212033031E+00
  0.428951501985E-01 -0.981316976749E+00  0.187555317798E+00
 -0.571374678122E+00  0.584261688117E+00 -0.576341267826E+00
  0.716266477938E+00 -0.500735292193E+00  0.486031377314E+00
 -0.658625480081E+00 -0.719277272133E+00 -0.221026430053E+00
 -0.217974740304E+00  0.626040609407E+00  0.748705661767E+00
  0.422491729676E-01  0.837839778018E+00 -0.544278893358E+00
 -0.107238840995E+00  0.797728510277E+00  0.593404629972E+00
 -0.842280234441E+00  0.427262598778E+00  0.328649780700E+00
[...]
CELL_DATA                7996
SCALARS C_p_inc float 1
LOOKUP_TABLE default
  0.999852931551E+00
  0.997442308896E+00
  0.993653099825E+00
 -0.115130080264E+00
 -0.119351475795E+01
  0.925936210453E+00
  0.924695489050E+00
 -0.151256575490E+00
 -0.144789325583E+00
 -0.196413163656E+00
 -0.124434909678E+01
 -0.450256808727E+00
  0.171945244014E+00
 -0.473558170541E+00
 -0.499125894244E+00
 -0.125046862876E+01
 -0.903039994837E+00
 -0.768761192889E+00
 -0.664662441837E+00
 -0.110156926666E+01
  0.759218878164E+00
  0.713878276389E+00
  0.154563085095E+00
 -0.146022537786E+00
  0.771908223084E-01
  0.512922927208E+00
  0.662227454728E+00
 -0.333503685123E+00
 -0.326543395850E+00
 -0.254027416655E+00
 -0.126494272979E+01
 -0.120959496866E+01
 -0.110961147481E+01
 -0.123607808924E+01
 -0.124312518069E+01
 -0.124446789557E+01
 -0.120824688363E+01
 -0.118934355001E+01
 -0.802998318672E+00
 -0.120918081707E+01
 -0.116066995607E+01
 -0.115801813486E+01
 -0.115248532105E+01
  0.953280697673E+00
  0.957931411059E+00
  0.966654400548E+00
  0.967497004023E+00
  0.938850134694E+00
  0.984765557036E+00
  0.995338800514E+00
  0.986858733008E+00
  0.967178099711E+00
  0.967049750811E+00
  0.785600194505E-01
  0.800093419940E-01
  0.901887622218E+00
  0.905323190366E+00
  0.905390263601E+00
  0.639856373511E+00
 -0.225452648061E+00
  0.902840555920E+00
  0.824325820629E+00
  0.761292344575E+00
  0.900109282885E+00
  0.899229002175E+00
  0.256328947536E+00
  0.284861580444E+00
  0.215604606179E+00
 -0.985560003065E-01
  0.571156383593E+00
  0.980129125881E+00
  0.181547049326E+00
  0.152914282532E+00
  0.158811454071E+00
  0.359918917123E+00
  0.316144648985E+00
 -0.500322706435E+00
  0.746836526321E-01
  0.270194725159E+00
 -0.566839811934E+00
 -0.130174554789E+01
 -0.106789514369E+01
 -0.125225234856E+01
 -0.120959586150E+01
 -0.118970861220E+01
 -0.376669669565E+00
 -0.331128762138E+00
 -0.125015623780E+01
 -0.107166702369E+01
 -0.737192057708E+00
 -0.124588669381E+01
  0.961947070050E+00
  0.883357308104E+00
 -0.328325381285E-01
 -0.444307326782E+00
  0.429648685478E-01
 -0.606558322180E-01
 -0.690682563205E+00
 -0.636822195650E+00
  0.365217413550E-01
  0.700009961548E+00
  0.200637366196E+00
  0.921209604594E+00
  0.842560603082E+00
  0.997863934453E+00
  0.630599683588E-01
 -0.198013012923E+00
 -0.152285096459E+00
 -0.153328546969E+00
 -0.577994323947E-01
  0.249593955601E+00
  0.801086221866E+00
  0.827160317418E+00
  0.831385366321E+00
  0.904154633040E+00
  0.868449143892E+00
  0.855463227694E+00
  0.815858550943E+00
  0.126131316012E+00
  0.751933837487E-01
  0.756159072464E-01
  0.273893762365E+00
  0.692059671360E+00
  0.803721654851E+00
  0.758321932083E+00
  0.685919909913E+00
  0.123793211705E+00
 -0.123348734682E+01
 -0.124168783510E+01
 -0.129230038867E+01
 -0.122861174407E+01
 -0.127195568887E+01
 -0.127059118172E+01
 -0.107651721752E+01
 -0.107749813261E+01
 -0.112653712018E+01
 -0.648438720707E+00
 -0.411920907010E+00
 -0.126119147641E+00
 -0.464648719747E+00
 -0.739266018618E+00
 -0.580129153767E+00
 -0.729563611002E+00
 -0.113317035543E+01
 -0.971514673791E+00
 -0.120702914031E+01
 -0.117127431573E+01
 -0.117769664561E+01
 -0.120027843157E+01
 -0.122717345632E+01
 -0.125114307751E+01
 -0.120408390869E+01
 -0.113212469731E+01
 -0.124440385810E+01
 -0.121952812126E+01
 -0.124071518895E+01
 -0.124589343942E+01
 -0.101392230337E+01
 -0.921009943208E+00
 -0.993625934249E+00
 -0.910072760584E+00
 -0.981423242559E+00
 -0.749422673001E+00
 -0.779020154885E+00
 -0.106615226608E+01
 -0.100786700237E+01
 -0.585046656950E+00
 -0.655636417291E+00
 -0.559845886711E+00
 -0.527158364277E+00
 -0.548013803821E+00
 -0.114363560023E+01
 -0.110295734827E+01
 -0.109370913801E+01
 -0.121644523291E+01
 -0.105704630163E+01
 -0.127685466478E+01
 -0.117455346580E+01
 -0.112835279265E+01
 -0.114218030018E+01
  0.752452623693E+00
 -0.272433469734E+00
 -0.542950789252E+00
 -0.492645667875E+00
  0.206115844890E+00
  0.108213095211E+00
  0.664405150124E-01
  0.647056958835E-01
 -0.115836377986E+00
  0.806332805616E-01
  0.107475072067E+00
  0.241101195665E+00
  0.187254940431E+00
  0.210927615604E+00
  0.203060230639E+00
  0.338936333150E+00
  0.494930710492E+00
  0.505111689567E+00
  0.451905160832E+00
  0.425339825581E+00
 -0.122348764740E+01
 -0.119620053655E+01
 -0.111298476804E+01
 -0.113486901270E+01
 -0.114326026947E+01
 -0.116854339803E+01
 -0.116865133651E+01
 -0.131481018741E+01
 -0.122279081458E+01
 -0.129397910182E+01
 -0.133311272120E+01
 -0.128872235690E+01
 -0.123358875106E+01
 -0.120438935436E+01
 -0.119507239142E+01
 -0.121121230252E+01
 -0.118097109768E+01
 -0.126578877226E+01
 -0.119249120826E+01
 -0.117711311310E+01
 -0.125939400664E+01
 -0.125084973162E+01
 -0.121918884516E+01
 -0.114903728071E+01
 -0.125991007311E+01
 -0.119326424259E+01
 -0.129526248559E+01
 -0.121943304873E+01
 -0.111694859060E+01
 -0.827751956315E+00
 -0.114464761894E+01
 -0.121284846651E+01
 -0.122453649077E+01
 -0.120669074423E+01
 -0.120745966473E+01
 -0.123848571214E+01
 -0.121903487994E+01
 -0.121837903554E+01
 -0.910646783040E+00
 -0.820226613018E+00
  0.226778081387E+00
  0.230056243332E-01
 -0.322282908818E+00
 -0.674643066269E+00
 -0.759569336713E+00
 -0.129352203892E+01
 -0.121157496838E+01
 -0.118623745234E+01
 -0.106573117129E+01
 -0.118172283963E+01
 -0.118728048967E+01
 -0.111141988885E+01
 -0.123509908563E+01
 -0.123534218991E+01
  0.977985036881E+00
 -0.688730847381E-01
  0.755624162768E+00
  0.826648898212E+00
  0.874595879128E+00
  0.887674988469E+00
  0.812772547471E-01
  0.868444031006E-01
  0.304858404229E+00
  0.304003591053E+00
  0.159924764486E+00
  0.623629542508E+00
  0.496368311941E+00
  0.536663973168E+00
  0.516617193890E+00
  0.744381918444E+00
  0.742179999988E+00
 -0.325321461042E+00
 -0.396957139683E+00
 -0.403621984527E+00
 -0.532672133285E+00
 -0.521159098790E+00
 -0.420765250359E-01
 -0.322128062866E+00
  0.891835159935E+00
  0.911357980493E+00
  0.755929927651E+00
  0.749549824380E+00
  0.800489320070E+00
  0.828010325369E+00
  0.829744783135E+00
  0.815985121094E+00
  0.858979080885E+00
  0.790808254057E+00
  0.767588840775E+00
  0.756671834135E+00
  0.789393522135E+00
  0.848414425992E+00
  0.744550429942E+00
  0.837300565109E+00
  0.807781137910E+00
  0.709709713383E+00
  0.571947721744E+00
  0.617672960564E+00
  0.305513547366E+00
  0.223566212998E+00
  0.432350038662E+00
  0.147681853938E+00
  0.169459506279E+00
  0.637393250539E-01
  0.261390364331E+00
  0.247428919188E+00
  0.428530146259E+00
  0.427498404705E+00
  0.522604359286E+00
  0.190146713636E+00
  0.105625102298E+00
  0.207846313392E+00
  0.370075230563E+00
  0.982593319039E+00
  0.968061423581E+00
  0.996507111233E+00
  0.997033442209E+00
  0.203619666693E+00
  0.148686118593E+00
  0.234065496679E+00
  0.302216424753E+00
  0.194445758127E+00
  0.273190798081E+00
  0.382997932841E+00
 -0.110715673126E+01
 -0.105692278575E+01
 -0.113435309731E+01
 -0.117326596375E+01
 -0.691481643586E+00
 -0.791860532305E+00
 -0.788503350052E+00
  0.131170760704E+00
  0.139658374060E+00
 -0.957946582953E-01
 -0.240934660847E+00
 -0.113510517157E+00
 -0.256023355331E-02
  0.570896055010E+00
  0.315490652091E+00
  0.301648674632E+00
 -0.483366199239E+00
 -0.448910464830E+00
 -0.268605818021E+00
 -0.485050040247E+00
 -0.416049415878E+00
 -0.131719088147E+01
 -0.125759817379E+01
 -0.121345664480E+01
 -0.117165953984E+01
 -0.122191516139E+01
 -0.112142229060E+01
 -0.110450714300E+01
 -0.107779226079E+01
 -0.122156382637E+01
 -0.963937537153E+00
  0.198649674577E+00
  0.171593332248E+00
 -0.298211532241E+00
 -0.125431046186E+01
 -0.120682234652E+01
 -0.122466495232E+01
 -0.121817741095E+01
 -0.877710094203E+00
 -0.110803428234E+01
 -0.627448693271E+00
 -0.115513946654E+01
 -0.123132104177E+01
 -0.120439908130E+01
 -0.120694875008E+01
 -0.120339588235E+01
 -0.120906342273E+01
 -0.120154640408E+01
 -0.123693469165E+01
 -0.126895022459E+01
 -0.141924656988E+01
 -0.140154224523E+01
 -0.121855200416E+01
 -0.113789158045E+01
 -0.114566039066E+01
 -0.124842445824E+01
 -0.124037624793E+01
 -0.120228878330E+01
 -0.122972808744E+01
 -0.635605527620E+00
 -0.624826126847E+00
 -0.491862733652E+00
 -0.823665789596E+00
 -0.643863200052E+00
 -0.495511697525E+00
 -0.256161985566E+00
 -0.223553787631E+00
 -0.103808744880E+01
 -0.862515948245E+00
 -0.865946574167E+00
 -0.125640870815E+01
 -0.123863240037E+01
 -0.122709931830E+01
 -0.124176912173E+01
 -0.117622498546E+01
 -0.117700349995E+01
 -0.121909590133E+01
  0.951935065199E+00
  0.931566289410E+00
  0.988455152631E+00
  0.989147551920E+00
  0.979782800990E+00
  0.977846980714E+00
  0.930436709534E+00
  0.957102175820E+00
  0.949871084145E+00
  0.892349843804E+00
  0.895516074572E+00
  0.924462468194E+00
  0.924618863401E+00
  0.961565134874E+00
  0.959077151351E+00
  0.797522041914E+00
  0.756667459451E+00
  0.551549933779E+00
  0.890142008779E+00
  0.803761719783E+00
  0.893483044274E+00
  0.809313332496E+00
  0.858743706979E+00
  0.860793322532E+00
  0.503149044797E-01
 -0.823038046999E+00
 -0.440111016303E+00
 -0.633392825644E+00
 -0.533099528690E+00
 -0.594180852766E+00
 -0.572561642909E+00
 -0.426155129090E+00
 -0.555138995580E+00
 -0.636247459463E+00
 -0.286599810414E+00
 -0.776002573778E-01
 -0.890500942364E-01
 -0.222240116321E+00
 -0.221670455953E+00
 -0.228764130344E+00
 -0.174164412817E+00
  0.176282517628E-01
  0.980519837389E+00
  0.976561523705E+00
  0.960034447023E+00
  0.941264981813E+00
  0.982600573163E+00
  0.981884464726E+00
  0.789294033275E+00
  0.708182996095E+00
  0.824164609309E+00
  0.765697056105E+00
  0.775458466630E+00
  0.135224005236E+00
  0.173475309796E+00
  0.169725167048E+00
  0.170413442603E+00
  0.238868714184E+00
  0.250321859023E+00
  0.269075628580E+00
 -0.906639849905E-01
 -0.107214386221E+00
 -0.696686460499E-01
  0.114043180830E+00
  0.446427280272E-01
  0.341836929658E-01
  0.134227506918E-01
  0.126994995904E-01
  0.610013247643E-01
  0.787125492746E-01
  0.659763408224E+00
 -0.685747843820E+00
 -0.407575878672E+00
 -0.329130454834E+00
 -0.216893385672E+00
  0.729326738152E-01
 -0.552956260407E-01
 -0.330567723652E-01
 -0.213400026987E-01
  0.771410595272E-01
 -0.356830321788E+00
 -0.586248505500E+00
 -0.380950887411E+00
 -0.464555292939E+00
 -0.570549807111E+00
 -0.819178899547E+00
 -0.785917011978E+00
 -0.670539937265E+00
 -0.724404959760E+00
 -0.806249863573E+00
 -0.115933521627E+01
 -0.739382801548E+00
 -0.120497070471E+01
 -0.115527247832E+01
 -0.107978312297E+01
  0.115163336614E+00
  0.174527287324E+00
  0.527740391579E+00
 -0.822728760670E+00
 -0.723140634303E+00
  0.474739474966E+00
  0.508811155566E+00
  0.467333887023E+00
  0.403240012671E+00
 -0.350099786410E+00
  0.610337487689E+00
  0.854117132490E+00
  0.573398540079E+00
  0.660801480680E+00
  0.662796360253E+00
  0.794897868808E+00
 -0.101936818817E+01
 -0.983824069133E+00
  0.242930569952E+00
  0.965570297086E+00
  0.956039823169E+00
  0.994330626434E+00
  0.995384960710E+00
  0.996105497051E+00
  0.866244814224E+00
  0.867904305946E+00
  0.920998734869E+00
 -0.203056375689E+00
 -0.214699374520E+00
 -0.395876295765E+00
 -0.198618568864E-01
  0.937133421713E-01
 -0.983983764901E-01
 -0.659654765640E-01
 -0.145778609764E+00
  0.274263951981E+00
  0.294155589902E+00
  0.156765633706E+00
  0.792992150712E+00
  0.756076658025E+00
  0.430899971665E+00
  0.199366923335E+00
  0.225015210820E+00
  0.614689805396E+00
  0.602205457640E+00
  0.742036827202E+00
  0.789200758482E+00
  0.798305026521E+00
  0.488959248960E+00
  0.430944637230E+00
  0.356970486735E+00
  0.355874326558E+00
  0.431346340844E+00
  0.795899548024E+00
  0.658623521680E+00
  0.768413801445E+00
  0.752271772265E+00
 -0.467126337473E+00
 -0.552174225949E+00
 -0.465247539316E+00
 -0.464039329750E+00
 -0.608131821683E+00
 -0.613415546892E+00
 -0.672777011803E+00
 -0.673631844142E+00
  0.356043406003E-01
  0.202523004057E+00
  0.192045265933E+00
 -0.132486843043E-01
 -0.111745767735E+00
 -0.481061441669E-01
 -0.399094446808E-01
 -0.163400977369E+00
 -0.595918214499E-01
 -0.206172489528E-01
 -0.263337150345E+00
 -0.305246055829E+00
 -0.452235340830E+00
 -0.122977280084E+01
  0.120032971755E+00
  0.174659281153E+00
  0.959264271064E-01
  0.801806196436E+00
  0.786081437955E+00
  0.666449956410E+00
 -0.896429424036E+00
 -0.112074570670E+01
 -0.383213726318E+00
  0.568287393336E-01
 -0.561778719529E-01
 -0.120058106838E+01
 -0.377418801871E+00
 -0.325233068583E+00
 -0.991683371339E+00
 -0.783404294939E+00
 -0.895016881544E+00
 -0.128248077231E+01
 -0.129858434003E+01
 -0.130091481164E+01
 -0.115889123290E+01
 -0.116272094073E+01
 -0.396893111213E+00
 -0.379344777264E+00
 -0.114079158115E+01
 -0.107330172287E+01
 -0.783827192485E+00
 -0.582632386463E+00
 -0.656100879747E+00
 -0.791532423410E+00
 -0.577097834430E+00
 -0.605582507924E+00
 -0.108132664223E+01
 -0.108525929623E+01
 -0.107841665528E+01
 -0.106068467201E+01
 -0.115624965489E+01
 -0.102848846501E+01
 -0.103966426881E+01
 -0.117515519671E+01
 -0.114051510356E+01
 -0.120030369193E+01
 -0.127636939472E+01
 -0.123533308382E+01
 -0.121812179582E+01
 -0.431630141173E+00
 -0.390852563310E+00
 -0.309857699775E+00
 -0.320021561758E+00
 -0.399335324545E+00
 -0.395068721303E+00
 -0.390017394380E+00
 -0.618889576687E+00
 -0.444573610462E+00
 -0.110929423182E+00
 -0.159654520152E+00
  0.650580640030E-01
 -0.348026745003E+00
 -0.262531026480E+00
 -0.494539045506E+00
 -0.516646185419E+00
 -0.703418271735E+00
 -0.630440732405E+00
 -0.622563161496E+00
 -0.745098821783E+00
 -0.740757746262E+00
 -0.575470380947E+00
 -0.616464127217E+00
 -0.826589199311E+00
 -0.823782101485E+00
 -0.832273103053E+00
 -0.742923271761E+00
 -0.719669672080E+00
 -0.101398548423E+01
 -0.877654016572E+00
 -0.765948367812E+00
 -0.766094789353E+00
 -0.106456660949E+01
 -0.106769941942E+01
 -0.104940757495E+01
 -0.922763883427E+00
 -0.950956518335E+00
 -0.963239840917E+00
 -0.126457385029E+01
 -0.123555165251E+01
 -0.124459010776E+01
 -0.122059202095E+01
 -0.123255995463E+01
 -0.111542385796E+01
 -0.124159826761E+01
 -0.121063022677E+01
 -0.128920459400E+01
 -0.123529654741E+01
 -0.123440066613E+01
 -0.130652513354E+01
 -0.115909708588E+01
 -0.118360972748E+01
 -0.122794510302E+01
 -0.122863638185E+01
 -0.124622759682E+01
 -0.130622652513E+01
 -0.100101466848E+01
 -0.100592232802E+01
 -0.108690078290E+01
 -0.900160325122E+00
 -0.941601422213E+00
 -0.939352679312E+00
 -0.932432873679E+00
 -0.835377737461E+00
 -0.976350613425E+00
 -0.830170583326E+00
 -0.752705402690E+00
 -0.658848487552E+00
 -0.910051603535E+00
 -0.883983506906E+00
 -0.978636770801E+00
 -0.920045696758E+00
 -0.910661082800E+00
 -0.997059681547E+00
 -0.100027935411E+01
 -0.103324927828E+01
 -0.106517821664E+01
 -0.470320164319E+00
 -0.620975731313E+00
 -0.641416024253E+00
 -0.635708078419E+00
 -0.571320260246E+00
 -0.574510628369E+00
 -0.631246808220E+00
 -0.631450728080E+00
 -0.101420014284E+01
 -0.121089465189E+01
 -0.106886715279E+01
 -0.100589897978E+01
 -0.123583063239E+01
 -0.116338637652E+01
 -0.113840840540E+01
 -0.110937834114E+01
 -0.117641053062E+01
 -0.125891780112E+01
 -0.116930173217E+01
 -0.117256585093E+01
 -0.110781112159E+01
 -0.107842944679E+01
 -0.109762952818E+01
 -0.106048389914E+01
 -0.900633459483E+00
 -0.858925603700E+00
 -0.123191924821E+01
 -0.121680226059E+01
 -0.117583111501E+01
 -0.112126487096E+01
 -0.119921956323E+01
 -0.119831920056E+01
 -0.865096775915E+00
 -0.907739738653E+00
 -0.855331633198E+00
 -0.274314750974E+00
 -0.458249080927E+00
 -0.505169574799E+00
  0.654159744606E+00
  0.712147388363E+00
 -0.565811391873E+00
 -0.712505515285E+00
 -0.692056165460E+00
 -0.606712335374E+00
 -0.576053782005E+00
 -0.543277539891E+00
 -0.544491782331E+00
 -0.538558095878E+00
 -0.509381167895E+00
 -0.227822879550E+00
 -0.129318246005E+00
  0.784975364913E-03
 -0.250608853213E+00
 -0.952292011279E-01
 -0.329412473335E-01
 -0.534761382119E-01
 -0.500857823008E+00
 -0.499742650715E+00
 -0.122033575032E+00
 -0.136171256990E+00
 -0.105248291503E+00
 -0.644343622402E-01
  0.548021229808E-01
  0.114408625057E+00
  0.338021028013E+00
  0.442028198025E+00
 -0.179453761628E+00
 -0.360268663910E-01
 -0.178864208696E+00
 -0.366296352848E-01
  0.219543500117E-01
 -0.479244226964E+00
 -0.430933697452E+00
 -0.555115512131E+00
 -0.288359053322E+00
 -0.451354130028E+00
 -0.543745588388E+00
 -0.562397173545E+00
 -0.643526842179E+00
 -0.630145288561E+00
 -0.100568738106E+01
 -0.917048212059E+00
 -0.101701024771E+01
 -0.105256597935E+01
 -0.270323803223E+00
 -0.252773091592E+00
 -0.416194833969E+00
 -0.363205767179E+00
 -0.388547645632E+00
 -0.504266442145E+00
 -0.107412814941E+01
 -0.124451156865E+01
 -0.103418844936E+01
 -0.121991536407E+01
 -0.123380056061E+01
 -0.122501678362E+01
 -0.118854980447E+01
 -0.107533177804E+01
 -0.117496639798E+01
 -0.117885007044E+01
 -0.118109210857E+01
 -0.118160931877E+01
 -0.126864317782E+01
 -0.129458610226E+01
 -0.122142983387E+01
 -0.123726948924E+01
 -0.119854301620E+01
 -0.115867996627E+01
 -0.124055501771E+01
 -0.126496504681E+01
 -0.126368909020E+01
 -0.128585571566E+01
 -0.125540855499E+01
 -0.142169926643E+01
 -0.122041324274E+01
 -0.137872552986E+01
 -0.126809975974E+01
 -0.121250204878E+01
 -0.126685178940E+01
 -0.131498118305E+01
 -0.131141584926E+01
 -0.130084710472E+01
 -0.120182542485E+01
 -0.118930826393E+01
 -0.120313759583E+01
 -0.124233305013E+01
 -0.117973847808E+01
 -0.120875306033E+01
 -0.101110501239E+01
 -0.920604063177E+00
 -0.934195958574E+00
 -0.100971646024E+01
 -0.102519435714E+01
 -0.133736841459E+01
 -0.120499362064E+01
 -0.117438422922E+01
 -0.117208182162E+01
 -0.118563134550E+01
 -0.121084713740E+01
 -0.593612702563E+00
 -0.797282954090E+00
 -0.852771431138E+00
 -0.878135734081E+00
 -0.896808757091E+00
 -0.932079476915E+00
 -0.101686188228E+01
 -0.936827709729E+00
 -0.953425930302E+00
 -0.121408447298E+01
 -0.119773385385E+01
 -0.122390537766E+01
 -0.129095841178E+01
 -0.124042551494E+01
 -0.118218770351E+01
 -0.118491602184E+01
 -0.122338628011E+01
 -0.122318917309E+01
 -0.122151350478E+01
 -0.124834754616E+01
 -0.115589836760E+01
 -0.119770158427E+01
 -0.116379751668E+01
 -0.115682147508E+01
 -0.115679942321E+01
 -0.119500037808E+01
 -0.121288140471E+01
 -0.117796689483E+01
 -0.875911963964E+00
 -0.950130798779E+00
 -0.831627689004E+00
 -0.868184633021E+00
 -0.891573780072E+00
 -0.666104585576E+00
 -0.814978975683E+00
 -0.587308427208E+00
 -0.623984177915E+00
 -0.825748906411E+00
 -0.792199867109E+00
  0.254710248400E+00
 -0.308705897257E-01
  0.202417824939E+00
  0.293256113620E+00
  0.297973379122E+00
  0.610256755656E+00
  0.123586600577E+00
 -0.173909632357E+00
 -0.936677224110E-01
 -0.308272143997E+00
 -0.260029353116E+00
 -0.102412108097E+01
 -0.520028374101E+00
 -0.679677739590E+00
 -0.869335134551E+00
 -0.457150381784E+00
 -0.705132631540E+00
 -0.623177966086E+00
 -0.765732540347E+00
 -0.555087430265E+00
 -0.622799553253E+00
 -0.524146312099E+00
 -0.118565911398E+01
 -0.130914073300E+01
 -0.129312740764E+01
 -0.126853130693E+01
 -0.131755055212E+01
 -0.124444818548E+01
 -0.129195621477E+01
 -0.105175238208E+01
 -0.105388535068E+01
 -0.105968351905E+01
 -0.104417180491E+01
 -0.105000799721E+01
 -0.122178850913E+01
 -0.128805225416E+01
 -0.132169956076E+01
 -0.128213275391E+01
 -0.121755987951E+01
 -0.116143934476E+01
 -0.117255815961E+01
 -0.120854180490E+01
 -0.118206426553E+01
 -0.120061688604E+01
 -0.126745421095E+01
 -0.441486677088E+00
 -0.112370779262E+01
 -0.112675505206E+01
 -0.118617672819E+01
 -0.122576936747E+01
 -0.118914723097E+01
 -0.124702219662E+01
 -0.123003240657E+01
 -0.124664043546E+01
 -0.124380683338E+01
 -0.123760235274E+01
 -0.124427946142E+01
 -0.124738588872E+01
  0.956119350792E+00
  0.971206886053E+00
  0.966113104990E+00
  0.969000816881E+00
  0.972783636541E+00
  0.985020228886E+00
  0.961984548612E+00
  0.961722569612E+00
  0.990862894792E+00
  0.988486612359E+00
 -0.170627893253E+00
 -0.176313227887E+00
 -0.380705660752E+00
 -0.301178217115E+00
 -0.127160629536E+00