# vtk DataFile Version 3.0
MachLine results file. Generated by MachLine, USU AeroLab (c) 2022.
ASCII
DATASET POLYDATA
POINTS                4000 float
  0.345730171070E+00 -0.896154949751E+00 -0.278167134740E+00
 -0.617457064842E+00  0.785406127353E+00  0.434049328112E-01
  0.857957795685E+00  0.360177418611E+00  0.366306767541E+00
 -0.841945555195E+00  0.394614972680E+00 -0.367976501185E+00
  0.510003121062E+00  0.748997826610E+00 -0.422964622920E+00
 -0.748951620938E+00 -0.520518903191E+00 -0.410038462726E+00
 -0.424906253219E+00 -0.427753814508E+00 -0.797797812825E+00
 -0.666398401500E-01 -0.753718769424E+00 -0.653809718744E+00
  0.733978894288E+00  0.648662336973E+00 -0.201276315876E+00
  0.335522111572E+00 -0.606720031108E+00  0.720635633659E+00
  0.370526147926E+00  0.322787607585E-01  0.928260984480E+00
  0.447884797536E+00  0.120769967054E+00  0.885897185453E+00
  0.115840010070E-01 -0.230734929376E+00 -0.972947687847E+00
 -0.329063744490E+00 -0.608921670014E+00  0.721755811788E+00
  0.289546674202E+00 -0.825661828045E+00 -0.484195486522E+00
 -0.949084686283E+00  0.186519059438E+00 -0.253867876521E+00
  0.540739979288E+00 -0.184884489965E+00  0.820620497045E+00
  0.691746258592E+00 -0.455787485522E+00 -0.560129343782E+00
 -0.310176713687E+00  0.930425205932E+00 -0.195190528595E+00
 -0.533701438601E-01  0.974276871808E+00 -0.218943382647E+00
  0.360424573130E-01 -0.988164408797E+00  0.149104132933E+00
 -0.749601821591E+00 -0.502357926337E-01 -0.659979904395E+00
  0.893806146617E+00 -0.437995931450E+00 -0.962815470481E-01
  0.122428080473E+00 -0.902830812164E+00  0.412198847305E+00
  0.456300086618E+00 -0.817583853825E+00 -0.351207734706E+00
  0.127933370986E+00 -0.987873671064E+00  0.879696686728E-01
  0.891648583559E+00 -0.966303458053E-01  0.442295579570E+00
 -0.198125215401E-01  0.534712073587E+00  0.844802025536E+00
 -0.768781869602E+00  0.605635128593E+00  0.205378986230E+00
  0.692495096003E+00 -0.624871053886E+00  0.360536694425E+00
 -0.561844655696E+00  0.198992981881E+00 -0.802952287517E+00
  0.945162468729E-01  0.833380008950E+00 -0.544558940575E+00
  0.393580630394E+00  0.776033828299E+00  0.492814148248E+00
 -0.401081494198E+00 -0.891422195708E+00  0.210950477626E+00
 -0.497263217692E+00  0.431005829697E+00 -0.752969632255E+00
  0.955535000366E+00 -0.191650018649E+00  0.224105183846E+00
 -0.391431813439E+00 -0.726076551246E+00  0.565326434159E+00
  0.333492258411E+00  0.525760021137E+00 -0.782533905818E+00
  0.556506319081E+00 -0.761590321848E+00 -0.332085679442E+00
  0.295800574695E+00  0.230689985428E+00  0.926975809087E+00
 -0.794949891791E+00  0.513186469062E+00 -0.323565012809E+00
 -0.582337225207E+00  0.701312130295E+00 -0.411150400752E+00
 -0.495508945135E+00  0.909974519414E-01  0.863823100543E+00
 -0.846860549793E+00  0.505285920043E+00  0.165871481004E+00
 -0.430144987761E+00 -0.591124031391E+00  0.682310537084E+00
  0.192399126070E+00  0.196809850108E+00  0.961378416227E+00
  0.734085999162E+00 -0.155173362063E+00  0.661089232661E+00
 -0.394704037787E+00  0.358251354143E+00  0.846087873574E+00
 -0.397635079286E+00 -0.178742360119E+00 -0.899965284008E+00
  0.102596967663E+00  0.841054205995E+00  0.531132455047E+00
 -0.462707365584E+00  0.222586158949E-01 -0.886231599444E+00
 -0.528136690061E+00 -0.841793791163E+00 -0.111601298253E+00
 -0.139670315947E+00  0.462614541943E+00  0.875488428493E+00
 -0.514470340459E+00 -0.552601477290E+00  0.655707157262E+00
 -0.612444965089E+00 -0.159929196771E+00  0.774166530378E+00
 -0.829359724039E+00 -0.372795020863E-01  0.557469897723E+00
  0.981921438307E+00 -0.187644081225E+00 -0.248995536831E-01
 -0.157540068140E+00  0.622394455375E+00  0.766685247575E+00
  0.664282551772E+00  0.455625909831E+00  0.592565373357E+00
 -0.300854537520E+00  0.773851885809E+00 -0.557350702954E+00
  0.533719295037E+00  0.734222691070E+00 -0.419595941380E+00
  0.678949727633E+00  0.176717423797E+00 -0.712599620737E+00
 -0.344416213673E+00  0.701201648575E+00 -0.624254531256E+00
 -0.394561296333E+00 -0.745627322654E+00 -0.536992811076E+00
  0.196149128378E+00 -0.104769740579E-01  0.980518104092E+00
 -0.920494386497E+00 -0.922607170479E-01 -0.379707841001E+00
 -0.424824583201E+00 -0.497385913577E+00  0.756393631969E+00
 -0.809768304780E+00  0.312127155861E+00 -0.496841957917E+00
 -0.288944828592E-01  0.624157379158E+00 -0.780764160872E+00
  0.212585313014E+00 -0.919487258182E+00 -0.330682123393E+00
 -0.472049403518E+00  0.261592539837E+00  0.841866202992E+00
  0.262033075638E+00  0.940587618802E+00 -0.215948138744E+00
  0.163932105630E+00 -0.286966938271E+00  0.943809430491E+00
  0.990752825040E+00 -0.325795410108E-01 -0.131709578935E+00
  0.142576529034E+00  0.583186140625E+00  0.799728615689E+00
  0.210878956599E+00  0.710263479828E+00 -0.671606919922E+00
  0.540353633397E+00  0.525521888372E+00  0.657148914415E+00
 -0.455267664724E+00  0.381489703775E-01 -0.889536963547E+00
 -0.453764469870E+00 -0.535643563888E+00 -0.712168363766E+00
  0.725331693080E-01 -0.832424137348E+00  0.549371454401E+00
 -0.446407314222E+00  0.878610141359E+00 -0.169601678384E+00
 -0.270820935673E+00  0.766718379937E+00  0.582064383611E+00
  0.442431925581E+00  0.458314492775E+00 -0.770844872163E+00
 -0.116165276946E+00  0.806347649575E+00  0.579921629582E+00
 -0.111712617902E+00  0.231315560616E-02 -0.993737862976E+00
  0.876170886939E+00  0.476300681280E+00 -0.739069542940E-01
 -0.191510403314E+00 -0.948027114789E+00  0.254103040215E+00
 -0.193559705902E+00  0.367274068835E+00  0.909749635127E+00
  0.605965107487E+00  0.199572470248E+00  0.770050074753E+00
 -0.875287475450E+00 -0.483473065701E+00 -0.112084817346E-01
 -0.655744254596E+00 -0.559695077050E+00 -0.506696056123E+00
 -0.787571894809E+00  0.616056630265E+00 -0.143086970914E-01
  0.436511367369E-01 -0.401625102601E+00 -0.914763278243E+00
 -0.815421542292E+00  0.431024330197E+00  0.386401003034E+00
  0.788599071896E+00 -0.524169858187E+00  0.321492556015E+00
 -0.699658833901E+00  0.234983567518E+00 -0.674729752672E+00
 -0.795668350402E-01  0.687384898447E+00  0.721921824126E+00
 -0.458873300750E+00  0.372430148117E+00 -0.806679043135E+00
  0.925555866052E+00 -0.103650798651E+00 -0.364146743436E+00
 -0.472551328460E+00 -0.834556354790E+00  0.283215346778E+00
 -0.489313569217E+00 -0.775230403049E+00  0.399487237804E+00
 -0.132285650491E+00 -0.117028446490E+00  0.984278847373E+00
  0.482767686793E+00 -0.124498576657E+00 -0.866853773712E+00
 -0.886171406871E-01 -0.636834583407E+00  0.765890798843E+00
 -0.875113280188E+00 -0.144870399208E+00 -0.461724283822E+00
 -0.457752169597E+00  0.412229652663E-01 -0.888123650380E+00
 -0.958121347111E-01 -0.466575434275E+00 -0.879276633929E+00
  0.256299785172E+00  0.961135691641E+00 -0.102608978042E+00
  0.569360286981E+00 -0.251613724084E+00 -0.782636184611E+00
  0.726502631780E+00  0.648607812018E+00  0.226940151156E+00
  0.699671566647E+00  0.693409977754E+00  0.172169397911E+00
  0.134888506592E+00  0.972167533543E+00  0.191560375637E+00
  0.848677113807E+00 -0.479496469696E+00  0.223226996686E+00
  0.557405485125E+00 -0.810954602940E+00 -0.177909407065E+00
 -0.451846956035E+00  0.125758448416E+00 -0.883186923009E+00
  0.720992656256E+00 -0.692615492182E+00  0.212924778726E-01
 -0.834233404642E+00 -0.500463469239E+00  0.231497176087E+00
 -0.529090543120E+00 -0.147085420788E+00  0.835720692679E+00
  0.361331022784E-01  0.945612586659E+00  0.323281974244E+00
  0.763682304502E+00 -0.307912418340E-02 -0.645584895102E+00
  0.220177757776E+00 -0.513327715345E+00 -0.829467547068E+00
  0.843528702321E+00 -0.308272624668E+00  0.439803725815E+00
  0.422698119150E+00  0.252293777440E+00 -0.870444800049E+00
  0.755964562490E+00  0.593922263305E+00 -0.275270640298E+00
 -0.896928285464E+00 -0.437432604067E+00 -0.645938668426E-01
 -0.703209487137E+00  0.480571520655E-01  0.709356699648E+00
 -0.918561595798E+00 -0.329519462852E+00 -0.218315181163E+00
 -0.924291844373E+00  0.341868493659E+00 -0.169736617940E+00
 -0.637920926332E+00 -0.645978060726E+00 -0.419248418970E+00
  0.485027239826E+00  0.869894344420E+00 -0.896236920302E-01
 -0.701407240629E-01 -0.451798513703E+00  0.889358410228E+00
  0.880376756631E+00  0.647350363264E-01  0.469836292186E+00
  0.685253838824E+00 -0.707653383156E+00 -0.172202978153E+00
  0.600744675448E+00 -0.684897162728E+00 -0.412336890669E+00
 -0.545164444066E+00 -0.543633736287E+00 -0.638167759838E+00
  0.547814256687E+00  0.118527583612E+00 -0.828161066516E+00
 -0.969923035069E+00 -0.240385335030E+00  0.382648238639E-01
  0.140219056667E-01  0.141899503534E+00 -0.989781752235E+00
  0.368440755317E+00 -0.646255373604E+00  0.668285419495E+00
  0.276534389230E+00  0.952026344205E+00 -0.131051789430E+00
  0.598405134487E+00 -0.220700271746E+00  0.770196523669E+00
 -0.490945070319E+00 -0.380856649478E+00  0.783531205810E+00
  0.925361477585E+00 -0.344225737678E+00 -0.158791616029E+00
  0.944719722928E+00  0.743358900800E-01 -0.319341229027E+00
  0.791079729979E+00  0.346689493739E+00 -0.503983388365E+00
 -0.942309573523E+00  0.231591284679E+00  0.241698457811E+00
  0.317280362382E+00 -0.124959460210E+00 -0.940062926059E+00
  0.112801073041E+00  0.777913647611E+00 -0.618163631073E+00
  0.190412768173E+00 -0.980952166590E+00 -0.384164623509E-01
  0.575521778246E+00 -0.707185391942E+00 -0.410686625286E+00
  0.601810030241E-01  0.804175138990E+00 -0.591337968260E+00
 -0.714782745865E+00 -0.394780776413E+00  0.577264033860E+00
 -0.926650660738E+00  0.143726000645E+00  0.347363483533E+00
 -0.999821312871E+00 -0.175323601365E-01  0.706814519413E-02
  0.269231485376E+00 -0.584863870426E-01  0.961297950592E+00
  0.469479083671E+00 -0.846890878103E+00  0.249730315703E+00
 -0.283119781205E+00 -0.781593842065E+00  0.555836536704E+00
  0.883004010614E+00  0.289514473994E+00  0.369439151400E+00
 -0.307635622260E+00  0.137662586234E+00 -0.941493141913E+00
 -0.668986466484E+00 -0.186118720120E-01  0.743041523659E+00
  0.577594733208E+00 -0.681946839785E+00 -0.448701272427E+00
[...]
CELL_DATA                7996
SCALARS C_p_inc float 1
LOOKUP_TABLE default
  0.995937548590E+00
  0.866982665886E-01
 -0.105487164566E+01
 -0.105007545202E+01
  0.246640578039E+00
  0.790558854544E+00
  0.802691300366E+00
  0.837664629805E+00
  0.432682662397E+00
 -0.124361120904E+01
 -0.125943197362E+01
 -0.777121220296E+00
 -0.128376224669E+01
 -0.827964052581E+00
 -0.810758623911E+00
 -0.101557367199E+01
 -0.102845656520E+01
 -0.116686530090E+01
 -0.111427355434E+01
 -0.112492034695E+01
  0.955323910001E-01
  0.523510893788E-01
  0.642734431272E+00
  0.446713594845E+00
  0.449176177650E+00
  0.434361096088E+00
 -0.981722255556E+00
 -0.974347841132E+00
 -0.123232244793E+01
 -0.101248326408E+01
 -0.624839551515E+00
 -0.115276995693E+01
 -0.126439676101E+01
 -0.112082431218E+01
 -0.855064617480E+00
 -0.826867833918E+00
 -0.594917787003E+00
  0.603882183800E+00
  0.597299092627E+00
  0.605000746242E+00
  0.652396664528E+00
  0.593559407053E+00
 -0.410359593708E+00
  0.436247626600E-01
  0.438622679201E+00
  0.200014627325E+00
 -0.522648840547E+00
 -0.425867210080E+00
  0.227560094033E+00
 -0.424761869408E-01
 -0.768849481534E-01
  0.687307750683E-02
 -0.945169192278E-01
  0.128238162351E+00
  0.992440131698E+00
  0.500106613171E+00
  0.556523388406E+00
 -0.211668014169E+00
 -0.364421810557E+00
  0.671116458809E+00
  0.787348960219E+00
  0.611875753313E+00
  0.638348032148E+00
  0.637875627588E+00
  0.696992861449E+00
  0.774575467824E+00
  0.952751139760E+00
  0.872413376180E+00
  0.893033049452E+00
  0.908132501233E+00
  0.828031750888E+00
 -0.264643912882E-01
 -0.111967111171E+00
  0.335732161517E+00
  0.318374826346E+00
  0.825638625232E+00
  0.831825480709E+00
  0.712437955889E+00
  0.814993859714E+00
  0.815496093308E+00
 -0.124538521103E+01
 -0.124613901378E+01
 -0.122331647295E+01
 -0.122334790096E+01
 -0.105276505386E+01
 -0.951963281299E+00
 -0.941069171094E+00
 -0.123315999409E+01
 -0.122221125997E+01
 -0.125894448327E+01
 -0.127489628982E+01
 -0.124371114893E+01
 -0.124609664612E+01
 -0.123949359942E+01
 -0.123948612820E+01
 -0.135718989737E+01
 -0.129521916788E+01
 -0.126397956544E+01
 -0.125742583050E+01
 -0.918413651759E+00
 -0.868562745547E+00
 -0.773506025656E+00
 -0.591762826233E+00
 -0.562957367197E+00
 -0.733379940853E+00
 -0.843090097893E+00
 -0.668036926410E+00
 -0.663003000684E+00
 -0.109925132862E+01
 -0.122822825261E+01
 -0.128060057785E+01
 -0.126983550130E+01
 -0.126376253220E+01
 -0.125046515158E+01
 -0.120871111760E+01
 -0.781001072204E+00
 -0.822237352287E+00
 -0.833444023371E+00
 -0.170165147849E+00
  0.728502362175E-01
  0.865752211158E-01
 -0.701432499340E+00
 -0.821429355797E+00
 -0.749713518271E+00
 -0.104965319668E+01
 -0.107281168669E+01
 -0.962412634867E+00
 -0.963309036833E+00
 -0.854856200212E+00
 -0.872534676209E+00
 -0.964308027312E+00
 -0.938244206188E+00
 -0.802663222104E+00
 -0.795459215358E+00
 -0.112912692977E+01
 -0.889607434127E+00
  0.105059872050E+00
  0.171032092158E+00
 -0.519771989864E+00
 -0.628864835007E+00
 -0.800914296065E+00
 -0.766118319878E+00
 -0.778108884635E+00
 -0.919896023577E+00
 -0.873497742576E+00
 -0.710348110879E+00
 -0.612067511710E+00
 -0.617275749335E+00
 -0.359733382585E+00
 -0.522734985237E+00
 -0.102779012941E+01
 -0.953343836644E+00
 -0.952745258705E+00
 -0.100009562794E+01
 -0.974609940609E+00
 -0.100743104510E+01
 -0.730084686989E+00
 -0.745632915610E-01
 -0.105637994397E+01
 -0.106333949249E+01
 -0.114812874152E+01
 -0.101220561334E+01
 -0.108007232937E+01
 -0.112003954611E+01
 -0.106881779056E+01
 -0.106606439109E+01
 -0.703825162447E+00
 -0.428706928229E+00
 -0.433858772076E+00
 -0.101985395871E+01
 -0.130829189672E+01
 -0.126139932734E+01
 -0.115814482547E+01
 -0.115019809839E+01
 -0.117896947641E+01
 -0.116508706354E+01
 -0.120090703150E+01
 -0.117249227159E+01
 -0.113386978847E+01
 -0.117976201089E+01
 -0.118695522496E+01
 -0.117587337658E+01
 -0.119347834981E+01
  0.826892525782E+00
  0.973145632603E+00
  0.906100163126E+00
  0.883606191829E+00
  0.419256838667E+00
  0.277735393491E+00
  0.242108486112E+00
  0.224252063258E+00
  0.189865303423E+00
  0.234960525140E+00
  0.328550511691E+00
  0.665402104954E-01
 -0.828440025059E-02
 -0.127103397213E-01
  0.623816308423E-01
 -0.220961398489E+00
 -0.305533426747E+00
 -0.308215181407E+00
  0.783487598160E-01
  0.150504127590E+00
  0.121984586909E-03
 -0.792149091049E+00
 -0.632963746488E+00
 -0.988805714574E+00
 -0.812774517655E+00
 -0.373677453440E+00
 -0.371997094211E-01
 -0.348755705683E+00
 -0.137922982939E+00
 -0.336537045190E+00
 -0.738543849188E+00
 -0.609131112817E+00
 -0.126702580424E+01
 -0.131910665397E+01
 -0.124901211905E+01
 -0.108807545303E+01
 -0.123137247666E+01
 -0.123359427985E+01
 -0.122106694983E+01
 -0.126244872700E+01
 -0.113928660461E+01
 -0.114777883885E+01
 -0.113000178716E+01
 -0.102484735975E+01
 -0.127149631285E+01
 -0.127317038155E+01
 -0.122471170344E+01
 -0.100329692869E+01
 -0.126537458108E+01
 -0.128944875271E+01
 -0.129949003807E+01
 -0.701587958250E+00
 -0.615431336223E-01
 -0.544752485178E+00
 -0.122594054271E+01
 -0.104203890590E+01
 -0.731950301311E+00
 -0.762470790710E+00
 -0.737361152181E+00
 -0.973759239922E+00
 -0.760359936434E+00
 -0.844414926991E+00
 -0.113076338203E+01
 -0.112310228592E+01
 -0.113241368815E+01
 -0.110316534637E+01
 -0.105901539666E+01
 -0.124507257940E+01
 -0.123064666505E+01
 -0.108663221282E+01
 -0.117943693058E+01
 -0.116058957351E+01
 -0.119367231671E+01
 -0.118902323036E+01
 -0.129589618118E+01
 -0.129094027508E+01
 -0.763825765935E+00
 -0.946449830727E+00
 -0.119744680277E+01
 -0.118697603501E+01
 -0.688219646108E+00
 -0.947316853440E+00
 -0.134270766118E+01
 -0.118979939697E+01
 -0.119852726934E+01
 -0.134289943584E+01
 -0.105678272880E+01
 -0.114790861616E+01
 -0.115168389959E+01
 -0.116510643709E+01
 -0.115310669896E+01
 -0.104645416301E+00
  0.418747794309E-01
 -0.659890402084E+00
 -0.628615644541E+00
 -0.667752909663E+00
 -0.735778975333E+00
 -0.836342850524E+00
 -0.828548105244E+00
  0.704035795271E+00
  0.684511195780E+00
  0.660837295687E+00
  0.566220322257E+00
  0.929421287890E+00
  0.744437753478E+00
  0.741542399953E+00
  0.739851812938E+00
  0.557426680934E+00
 -0.258262220264E+00
 -0.105507748163E+01
 -0.124562243516E+01
 -0.125615809364E+01
 -0.127128369022E+01
 -0.116078958441E+01
 -0.120619643700E+01
 -0.884815963601E+00
 -0.104325158764E+01
 -0.121523293689E+01
 -0.123894632139E+01
 -0.124258746679E+01
 -0.114630871114E+01
 -0.114920580708E+01
 -0.118387108914E+01
 -0.112908512448E+01
 -0.115390268200E+01
  0.307825120828E+00
  0.636123050492E-01
  0.373150299156E-02
 -0.172566614026E+00
  0.511915641583E+00
  0.552358201045E+00
  0.555693690089E+00
  0.245202368783E+00
  0.318572713399E+00
  0.173499738226E+00
 -0.373915656761E-01
  0.272410858499E-01
 -0.124984598480E+01
 -0.130606271250E+01
 -0.124965706479E+01
 -0.128384398145E+01
 -0.102625131323E+01
 -0.100083489760E+01
 -0.107404675196E+01
 -0.124260530474E+01
 -0.126989875784E+01
 -0.126400656572E+01
 -0.119772553830E+01
 -0.115619433698E+01
 -0.121481508870E+01
 -0.124091083101E+01
 -0.121503041935E+01
 -0.125781150083E+01
 -0.937691269885E+00
 -0.121841431378E+01
 -0.121513225380E+01
 -0.119095191654E+01
  0.478976759857E+00
  0.438724868291E+00
  0.331778359013E+00
  0.278950954508E+00
  0.547381378295E+00
  0.517350369962E+00
  0.577055738145E+00
  0.639722270752E+00
  0.214021818793E+00
  0.217246227447E+00
  0.290054390552E+00
  0.199553449006E+00
  0.199742211253E+00
  0.936059443887E-01
 -0.366022685595E+00
 -0.420445313430E+00
 -0.417633736238E+00
  0.772440751630E-01
  0.231950342760E-01
  0.303827918438E-01
  0.576280636594E-02
  0.703537999336E-01
  0.755625318650E-01
 -0.892157599851E-01
 -0.979837553093E-01
 -0.568051403285E-01
 -0.570456574937E-01
 -0.681905695608E+00
  0.299666419134E+00
  0.437843518029E+00
 -0.343909395118E-01
 -0.165033330778E-01
  0.142145743385E+00
  0.184724625033E+00
  0.334705466228E+00
  0.247861113453E+00
  0.156350085867E+00
  0.208853320583E+00
  0.167431529477E+00
  0.112908734962E+00
  0.144101695879E+00
 -0.163722312772E+00
 -0.373007100817E+00
 -0.330885938329E+00
 -0.360024659729E+00
  0.217132399234E-01
  0.334245779360E-01
 -0.129782383421E+00
 -0.678727271932E-01
  0.415386448145E-02
 -0.537615966904E-01
  0.331851293613E-01
  0.649571025819E-02
  0.459795780967E-01
 -0.110067316688E+00
 -0.625950003677E-01
 -0.880637810452E-02
 -0.991911855663E-01
 -0.306211335017E-01
 -0.219415838421E-01
  0.117389006216E-01
 -0.551977667511E-01
  0.256760489436E-01
  0.115935933127E+00
  0.892387453130E-01
  0.172766354037E+00
  0.916827922709E+00
  0.847232724838E+00
  0.898898538479E+00
  0.963785654120E+00
  0.242089599976E+00
  0.351219817378E+00
  0.302180775856E+00
  0.303130106373E+00
  0.572558165536E+00
  0.658265968954E+00
  0.634259611049E+00
  0.955839031165E+00
  0.862263228253E+00
  0.906379892588E+00
  0.925719067493E+00
  0.511244791141E+00
  0.466086166996E+00
  0.709185869495E+00
 -0.194229260346E+00
 -0.152726259190E+00
 -0.235192540798E+00
 -0.461324612272E+00
 -0.465659165689E+00
 -0.616742973779E+00
 -0.474671245627E+00
 -0.557709858142E+00
 -0.566940310626E+00
 -0.525006789354E+00
 -0.441275724322E+00
 -0.470612870454E+00
 -0.489217932324E+00
 -0.452076454676E+00
 -0.298440375607E+00
  0.697067086670E+00
  0.718755523354E+00
  0.173721183526E+00
  0.339835884245E+00
  0.385039253066E+00
  0.425747035157E+00
  0.832470137548E+00
  0.821360391034E+00
  0.898547305671E+00
  0.917480191633E+00
  0.924871200727E+00
  0.925090867554E+00
  0.973639057646E+00
 -0.107533655252E+01
 -0.847241380648E+00
 -0.103749406013E+01
 -0.101966471232E+01
 -0.972138839322E+00
  0.796396019060E+00
  0.756809617181E+00
  0.758952119967E+00
  0.821591652186E+00
  0.820717823018E+00
  0.993829516736E+00
  0.998402695256E+00
  0.973265061720E+00
  0.980980325157E+00
  0.975777429511E+00
  0.907243621230E+00
  0.916079592822E+00
  0.916033043522E+00
  0.924424526124E+00
  0.954065679346E+00
  0.718006191528E+00
 -0.132954605572E+00
 -0.345341558066E+00
 -0.130114310734E+00
 -0.269966418657E-01
 -0.627471609459E+00
 -0.397769101474E+00
 -0.159465486629E+00
 -0.225843333623E+00
 -0.402184082723E+00
 -0.416438515175E+00
 -0.401014930308E+00
 -0.632536056954E-01
 -0.513494696792E-01
 -0.335255157945E+00
  0.727555288025E+00
  0.605390088250E+00
  0.807084494299E+00
  0.810486983815E+00
  0.792357574629E-01
  0.338069234476E-01
  0.292873168821E+00
  0.299332124971E-01
 -0.115046351768E-01
  0.169858977655E-01
  0.430867193161E-01
  0.376878694595E+00
  0.386724211014E+00
  0.329259689011E+00
  0.364500750823E+00
  0.604993451529E+00
  0.508484709542E+00
  0.565759048252E+00
  0.477813907158E+00
  0.428657101648E+00
  0.439585784568E+00
  0.436888745268E+00
  0.446417674095E+00
  0.478115277288E+00
  0.553949607192E+00
  0.553344670191E+00
  0.988705475382E+00
  0.926032505064E+00
  0.686176310969E+00
  0.675389298960E+00
  0.849870868990E+00
  0.933143340864E+00
  0.708972400996E+00
  0.714095174340E+00
  0.740440337120E+00
  0.829998623934E+00
  0.794657211232E+00
  0.754471598109E+00
  0.704505774633E+00
  0.707511190771E+00
  0.697907141560E+00
  0.700603865623E+00
  0.881224679404E+00
 -0.352784209482E+00
 -0.343357776362E+00
 -0.181004388118E+00
 -0.197635231497E+00
 -0.413741729272E-01
  0.167699538792E+00
  0.198999515224E+00
  0.127119959374E+00
 -0.549451617416E-01
 -0.277203554318E-01
  0.101410616687E-02
 -0.102306077519E+00
  0.211210538231E-01
  0.467132576151E-01
  0.763580908809E-01
 -0.500736580054E+00
 -0.480841566751E+00
 -0.390845168561E-01
  0.117699455317E+00
  0.106855867454E+00
 -0.497516358669E-01
 -0.528733918400E+00
 -0.504296143653E+00
 -0.503505274442E+00
 -0.488044195239E+00
 -0.557208250144E+00
 -0.563584620182E+00
 -0.119479969568E+01
 -0.123564111534E+01
 -0.117493271875E+01
 -0.126736169652E+01
 -0.131469943551E+01
 -0.132813125285E+01
 -0.121253326657E+01
 -0.121585384438E+01
 -0.112114523981E+01
 -0.135931256105E+01
 -0.124108241856E+01
 -0.129346783335E+01
 -0.135052782688E+01
 -0.123756911840E+01
 -0.130098944111E+01
 -0.115458913614E+01
 -0.113465802330E+01
 -0.110658174693E+01
 -0.110050568183E+01
 -0.104934942888E+01
 -0.103770625115E+01
 -0.102548507095E+01
 -0.106685201946E+01
 -0.106144139606E+01
 -0.109224562753E+01
 -0.106489502412E+01
 -0.106776077757E+01
 -0.112729908761E+01
 -0.112544817514E+01
 -0.110874340469E+01
 -0.110874149045E+01
 -0.119518325598E+01
 -0.119266919000E+01
 -0.106977826233E+01
 -0.117285719728E+01
 -0.102741644116E+01
 -0.975198046975E+00
 -0.104083139015E+01
 -0.891406287971E+00
 -0.950885833520E+00
 -0.820842753759E+00
 -0.872218827724E+00
 -0.798083826356E+00
 -0.975310425702E+00
 -0.104093842337E+01
 -0.963652202387E+00
 -0.123054007994E+01
 -0.115689085513E+01
 -0.113006806105E+01
 -0.112686881898E+01
 -0.126053789585E+01
 -0.124213133041E+01
 -0.122210969103E+01
 -0.119915149823E+01
 -0.119248387114E+01
 -0.837850437605E+00
 -0.997670303888E+00
 -0.105215570625E+01
 -0.685925903828E+00
 -0.844875378797E+00
 -0.895135292418E+00
 -0.801643388675E+00
 -0.914681979802E+00
 -0.940252660289E+00
 -0.859163725732E+00
 -0.836510189607E+00
 -0.120700175483E+01
 -0.117727702417E+01
 -0.106506845746E+01
 -0.120710807865E+01
 -0.128964733279E+01
 -0.116918331568E+01
 -0.123240056606E+01
 -0.115162476199E+01
 -0.128552851028E+01
 -0.126939786062E+01
 -0.125854062377E+01
 -0.114605250015E+01
 -0.124949715308E+01
 -0.120977598972E+01
 -0.118398914234E+01
 -0.117843766669E+01
 -0.121353177063E+01
 -0.114161510467E+01
 -0.124930914349E+01
 -0.120945505583E+01
 -0.128131199893E+01
 -0.128527386608E+01
 -0.122485074690E+01
 -0.123764011459E+01
 -0.127180080788E+01
 -0.124932416879E+01
 -0.123933314583E+01
 -0.123491979845E+01
 -0.813114522359E+00
 -0.780623340163E+00
 -0.674481208936E+00
 -0.674192359744E+00
 -0.810828349937E+00
 -0.150009845866E-01
 -0.140774766619E+00
 -0.825611796588E+00
 -0.824451014169E+00
 -0.851213208715E+00
 -0.819369533394E+00
 -0.845348173849E+00
 -0.851474806613E+00
 -0.110931160581E+01
 -0.106744910858E+01
 -0.828239588961E+00
 -0.108871372668E+01
 -0.103329796740E+01
 -0.974746564466E+00
 -0.968110078608E+00
 -0.118266350556E+01
 -0.954244402349E+00
 -0.976899819905E+00
 -0.978022964430E+00
 -0.113939964353E+01
 -0.113216310341E+01
 -0.106807819027E+01
 -0.110484548457E+01
 -0.980286459891E+00
 -0.986479152546E+00
 -0.108463531631E+01
 -0.105410832118E+01
 -0.108140206745E+01
 -0.974511220021E+00
 -0.958187439322E+00
 -0.951354633017E+00
 -0.956106039096E+00
 -0.865107901408E+00
 -0.307772585122E+00
 -0.198227740693E+00
 -0.165551082151E+00
 -0.526583844312E+00
 -0.519567793565E+00
 -0.869080420852E+00
 -0.101753649072E+00
 -0.250407704100E+00
 -0.173181157655E+00
 -0.216205624825E+00
 -0.860227555735E+00
 -0.927905425485E+00
 -0.451054556849E+00
 -0.454542363401E+00
 -0.550864463502E+00
 -0.498028890857E+00
 -0.530855504869E+00
 -0.506126925813E+00
 -0.347692617421E+00
 -0.130148542581E+01
 -0.119387737016E+01
 -0.125737985928E+01
 -0.118209964267E+01
 -0.117282539901E+01
 -0.644862083837E+00
 -0.677648329755E+00
 -0.704734529037E+00
 -0.639920011513E+00
 -0.734253010982E+00
 -0.670199881574E+00
 -0.681919437896E+00
 -0.967982333870E+00
 -0.954314418612E+00
 -0.823038342152E+00
 -0.786671421058E+00
 -0.803244171879E+00
 -0.868789842930E+00
 -0.850782939733E+00
 -0.874716005769E+00
 -0.101382262720E+01
 -0.103673660296E+01
 -0.978325476833E+00
 -0.754428589493E+00
 -0.777084545450E+00
 -0.780896540841E+00
 -0.798563744376E+00
 -0.799465825905E+00
 -0.976857686208E+00
 -0.934258160283E+00
 -0.951263273622E+00
 -0.815114819497E+00
 -0.107949923456E+01
 -0.102851330172E+01
 -0.835980756161E-02
 -0.130433966616E-02
  0.301814499522E-01
  0.139188404069E+00
 -0.211969285168E-01
 -0.258432433306E-01
 -0.204437068896E+00
 -0.230303822790E+00
 -0.193530288291E+00
 -0.352711285120E+00
 -0.235643401571E+00
 -0.920569709961E+00
 -0.914000526429E+00
 -0.100097421427E+01
 -0.939392425234E+00
 -0.989620567820E+00
 -0.108036454351E+01
 -0.108697661896E+01
 -0.109313228305E+01
 -0.882245281224E+00
 -0.888737727321E+00
 -0.886714134421E+00
 -0.123385336617E+01
 -0.125786822630E+01
 -0.122990545800E+01
 -0.122571143292E+01
 -0.748689648746E+00
 -0.694761088689E+00
 -0.659031858329E+00
 -0.602905002169E+00
 -0.489202348822E+00
 -0.496026695599E+00
 -0.993127340482E+00
 -0.100101838257E+01
 -0.998352844022E+00
 -0.951880274198E+00
 -0.127752207619E+01
 -0.108255837134E+01
 -0.126517637088E+01
 -0.122476133133E+01
 -0.119951413002E+01
 -0.126206532784E+01
 -0.134594549768E+01
 -0.120865911308E+01
 -0.120392843974E+01
 -0.120364774744E+01
 -0.120589406858E+01
 -0.113345364307E+01
 -0.115098630640E+01
 -0.109285281474E+01
 -0.116084583434E+01
 -0.116062645397E+01
  0.761864453285E+00
  0.822778304155E+00
  0.419314044333E+00
  0.697256166739E+00
  0.857841942088E+00
  0.821263146255E+00
  0.821071129259E+00
  0.981113859251E+00
  0.983262532618E+00
  0.973466830372E+00
  0.980824407487E+00
  0.996127822359E+00
  0.998252828043E+00
  0.996934176110E+00
  0.448968280945E+00
  0.743421455221E+00
  0.551484932751E+00
  0.949370148003E+00
  0.947383062733E+00
  0.771600526021E+00
  0.827596748585E+00
  0.838694753270E+00
  0.762096980051E+00
  0.782904397470E+00
  0.773878037491E+00
  0.394173546452E+00
  0.526128066202E+00
  0.523562220476E-01
  0.135197529620E+00
  0.163267928578E+00
  0.153540440851E+00
  0.534254188952E+00
  0.445213711374E+00
  0.334985463390E+00
  0.161626534152E+00
  0.579697557307E-01
  0.149339744335E-01
  0.387000503869E-01
  0.183608901179E+00
  0.893837337037E-01
 -0.955533726494E-02
  0.153032260277E+00
  0.158670633806E+00
  0.950439817468E-02
  0.361170894980E-01
  0.607357504850E-01
  0.198152570207E+00
  0.432232816068E-01
  0.185614095867E-01
 -0.353157418806E+00
 -0.258303143084E+00
 -0.537904959542E+00
 -0.523833820310E+00
  0.637229990159E+00
  0.627457052660E+00
 -0.522985385083E+00
 -0.112769049580E+01
 -0.114898062271E+01
 -0.112994155039E+01
 -0.114624987004E+01
  0.428807313573E+00
  0.369256084539E+00
  0.449412033421E+00
 -0.197939825917E+00
 -0.259127382643E+00
 -0.248148725592E+00
 -0.613822764725E+00
 -0.634046163945E+00
 -0.446381968398E+00
 -0.200457295695E+00
 -0.100520970256E+01
 -0.102318025072E+01
 -0.110207437753E+01
 -0.105985413127E+01
 -0.988486248956E+00
 -0.947531272990E+00
 -0.909000838194E+00
 -0.117465414298E+01
 -0.115754169716E+01
 -0.118511633935E+01
 -0.120662612794E+01
 -0.117441860670E+01
 -0.122049604250E+01
 -0.124276542915E+01
 -0.711904212973E-02
 -0.610649020873E-01
 -0.158639384397E-01
 -0.544749211932E-01
 -0.627637318571E+00
 -0.650549484929E+00
 -0.562255074425E+00
 -0.649079987226E+00
 -0.572813500593E+00
 -0.381106037340E+00
 -0.235822697398E+00
 -0.285170585753E+00
 -0.366352154115E+00
 -0.350409633453E+00
 -0.362549484551E+00
 -0.407881097656E+00
 -0.294313732880E+00
 -0.421945395079E+00
 -0.423367637538E+00
 -0.374196695738E+00
 -0.565723969535E+00
 -0.553553351912E+00
 -0.381889449015E+00
 -0.509519542642E+00
 -0.391074968684E+00
 -0.775742865795E+00
 -0.772563353385E+00
 -0.709830844068E+00
 -0.799211040196E+00
 -0.951929571763E+00
 -0.861350967053E+00
 -0.142871508520E+01
 -0.124239289579E+01
 -0.131605075235E+01
 -0.126773368736E+01
 -0.131124937732E+01
 -0.120458769739E+01
 -0.118998548068E+01
 -0.121357817914E+01
 -0.105201612348E+01
 -0.106230502879E+01
 -0.103222175332E+01
 -0.102181547729E+01
 -0.936516882129E+00
 -0.881420014810E+00
 -0.907988831948E+00
 -0.844957356446E+00
 -0.105824098399E+01
 -0.107421613849E+01
 -0.110960536431E+01
 -0.119102121663E+01
 -0.119137517060E+01
 -0.119738230884E+01
 -0.118495132119E+01
 -0.118598264377E+01
 -0.119065361984E+01
 -0.113338864221E+01
 -0.112829814003E+01
 -0.116379726294E+01
 -0.116626258774E+01
 -0.109200250115E+01
 -0.109735789395E+01
 -0.115230611681E+01
 -0.105931061800E+01
 -0.105076597934E+01
 -0.123228149448E+01
 -0.134787641720E+01
 -0.143412123417E+01
 -0.121614355040E+01
 -0.120761992397E+01