# vtk DataFile Version 3.0
MachLine results file. Generated by MachLine, USU AeroLab (c) 2022.
ASCII
DATASET POLYDATA
POINTS                2000 float
 -0.890180601478E+00  0.265573507610E-01 -0.454833160480E+00
 -0.306930862372E+00 -0.227136273934E+00  0.924230793031E+00
 -0.137030511260E+00  0.919014936869E+00 -0.369640615728E+00
  0.727512834178E+00  0.276608804616E+00 -0.627863556288E+00
 -0.995132442324E+00 -0.855824184737E-01 -0.488576696284E-01
  0.397240672222E+00  0.813214736645E+00 -0.425301822753E+00
  0.153858431395E+00  0.936683238870E+00  0.314566516193E+00
  0.559952332904E+00 -0.156249515530E+00 -0.813658081612E+00
  0.840197304479E+00  0.210916606414E+00 -0.499582500379E+00
  0.611370102280E+00  0.378643144072E+00  0.694878383233E+00
 -0.860504376864E+00 -0.666645559055E-01  0.505062426224E+00
 -0.703902359891E+00 -0.707041067264E+00  0.679293525784E-01
 -0.942853360956E+00 -0.181371623672E+00  0.279520793253E+00
 -0.382022223990E+00 -0.261308774730E+00  0.886440491306E+00
  0.368721730368E+00 -0.666338139185E+00 -0.648103209235E+00
 -0.533954833153E+00  0.167013125277E+00  0.828853938965E+00
 -0.202482934267E-01  0.833180334858E+00  0.552630560338E+00
 -0.824194913470E+00 -0.403044091279E+00 -0.397816798407E+00
  0.767024793981E+00  0.632433292753E+00 -0.108171602730E+00
 -0.938805326754E+00 -0.168998313291E+00 -0.300140181521E+00
  0.395143313565E+00 -0.158331880137E+00  0.904871691168E+00
  0.293728242157E+00  0.779801146637E+00  0.552841651346E+00
 -0.385525011097E-01 -0.897011219512E+00  0.440323263895E+00
 -0.388441614105E+00 -0.583921546655E+00  0.712845523086E+00
  0.661859557294E+00 -0.731073798228E+00  0.165749895815E+00
 -0.112721656903E+00 -0.239004770909E+00  0.964453496830E+00
 -0.854919762981E+00  0.508187378457E+00  0.104200706533E+00
 -0.844870088163E+00  0.534970040836E+00  0.126076793462E-02
  0.821972048753E+00 -0.279513258909E-01 -0.568841519626E+00
  0.493450044370E+00 -0.346025413193E+00 -0.797980868903E+00
 -0.749883769960E+00  0.469205324525E+00  0.466391139482E+00
  0.498634333859E+00 -0.717284542671E+00  0.486689516984E+00
 -0.420954292495E-01  0.466859217512E+00  0.883329183182E+00
 -0.976041094157E-01 -0.199459573744E+00 -0.975032982143E+00
 -0.238053018345E+00  0.298047994206E+00 -0.924390693163E+00
 -0.852594171824E+00  0.280912377121E+00  0.440648856292E+00
  0.822160407275E+00  0.109074900111E+00 -0.558708269919E+00
  0.564278909331E-03 -0.440787557956E+00 -0.897611280199E+00
 -0.943919618947E+00  0.260827907499E+00 -0.202446426582E+00
  0.337914288620E+00  0.329244942096E+00 -0.881709533605E+00
  0.319973602519E+00 -0.298038311185E+00  0.899327559211E+00
  0.122642775657E-01  0.598010391609E-01  0.998134972442E+00
 -0.187010547872E+00 -0.195254067015E+00 -0.962757967663E+00
  0.231002293854E+00 -0.868668724095E+00 -0.438238049481E+00
 -0.891764950346E+00  0.191487924098E+00  0.409984936625E+00
  0.947098056383E+00 -0.128870464245E+00  0.293934814273E+00
 -0.503139326632E+00 -0.651171505415E-01 -0.861748556542E+00
  0.322425563444E-01 -0.980886171089E-01 -0.994655237132E+00
 -0.728260493030E-01  0.145796356255E-01 -0.997238086300E+00
  0.626717731748E+00  0.739861656586E+00 -0.244600927690E+00
  0.791757416660E+00  0.466495793584E+00 -0.394337251262E+00
 -0.191829413142E+00  0.979982894456E+00 -0.532447445979E-01
  0.267618471093E+00 -0.604702129334E+00  0.750143778691E+00
  0.294129354021E+00  0.134094256937E+00 -0.946312133157E+00
  0.480479174255E+00 -0.378383503646E+00  0.791179933565E+00
  0.125994301975E+00  0.705595415349E+00  0.697323845648E+00
 -0.423954984930E+00 -0.855107581201E+00  0.298417820055E+00
 -0.942276314999E+00  0.869182557770E-01  0.323358257981E+00
 -0.524349543751E+00  0.338549757945E+00 -0.781307632987E+00
  0.492109240418E+00  0.572008296187E+00 -0.656227860265E+00
 -0.879586806009E-01 -0.903446136115E+00 -0.419581159784E+00
  0.774946996607E+00 -0.118381694004E-01 -0.631915350498E+00
  0.839249707717E+00 -0.125428413804E+00 -0.529081885068E+00
 -0.213038073190E+00  0.294268141633E+00  0.931676467553E+00
  0.564070583835E+00  0.537128092772E+00 -0.627150530899E+00
 -0.103546536232E+00  0.112976010151E+00 -0.988187500409E+00
 -0.723399437051E+00 -0.601581952961E+00  0.338810283707E+00
 -0.245186689558E+00 -0.538264876759E+00 -0.806321529981E+00
  0.143099037753E+00  0.601223229658E+00  0.786163655681E+00
  0.204068582501E+00 -0.936822710303E+00  0.284111286465E+00
 -0.943448983094E+00 -0.336438862061E-01  0.329806163101E+00
 -0.179236131068E+00  0.913941713375E+00 -0.364122168883E+00
  0.561892469348E-01  0.937103292752E+00  0.344499908914E+00
 -0.119888761237E+00  0.744253418731E-01  0.989993713827E+00
  0.602667467445E+00 -0.169574050326E+00  0.779766994133E+00
  0.798202976694E+00 -0.482507361027E+00  0.360636457603E+00
 -0.124308444512E-01  0.272035376293E+00 -0.962206957027E+00
  0.403625080082E-01  0.488862286573E+00 -0.871426722515E+00
 -0.474041085122E+00  0.555746704519E+00  0.682957282729E+00
 -0.652828916363E+00 -0.446464445847E+00 -0.611950900445E+00
  0.548535308993E+00  0.827333594222E+00 -0.120946842289E+00
  0.946676821385E-01 -0.910277162908E+00  0.403030416527E+00
 -0.127778992335E+00 -0.882356991401E+00 -0.452900285763E+00
  0.238058086720E+00  0.228960550084E+00 -0.943877859605E+00
  0.987422932936E+00 -0.901037865151E-01  0.129912505818E+00
 -0.174649770536E+00  0.542365345257E+00  0.821789078728E+00
 -0.205555013886E-01  0.689658689714E+00 -0.723842775100E+00
 -0.959969364622E+00 -0.174447857462E+00  0.219150094717E+00
  0.571235612675E+00 -0.739073536174E+00  0.357015662036E+00
 -0.613692745464E+00 -0.775996697870E+00 -0.145637697935E+00
  0.598347507424E+00  0.244549215707E+00  0.763004548779E+00
 -0.289275215024E+00  0.592319660967E+00  0.751982226655E+00
  0.934693427495E+00  0.354088849293E+00 -0.311333166265E-01
  0.192876802566E+00  0.860196098096E+00  0.472081785131E+00
  0.945356889040E+00 -0.250586626573E+00 -0.208582585388E+00
 -0.992743094714E+00 -0.319312440262E-01  0.115937670982E+00
  0.919947893889E+00  0.372391387570E+00 -0.122558259589E+00
 -0.715880890274E+00 -0.525680912531E+00 -0.459536863745E+00
  0.515704699192E+00 -0.745965568180E+00 -0.421407207249E+00
  0.290090814688E+00 -0.178582022681E+00 -0.940189225852E+00
 -0.502255329692E+00  0.667939741237E-01 -0.862135806481E+00
  0.145169411820E+00  0.123102953365E-01  0.989330227225E+00
 -0.291783235920E-01 -0.366999106812E+00 -0.929763561897E+00
  0.583565930005E+00  0.568079293495E+00 -0.580290204673E+00
  0.865914065914E+00 -0.466730797064E+00 -0.179875494510E+00
  0.133501307655E-01 -0.502819511578E+00 -0.864288327345E+00
  0.156858338552E+00  0.650213545698E+00  0.743382678448E+00
 -0.576246550318E+00 -0.797364785031E+00  0.179302294573E+00
  0.421345388160E+00 -0.368159655059E+00  0.828810311388E+00
  0.992333072445E+00  0.108084180902E+00 -0.599406637544E-01
 -0.528021041133E+00  0.760371338302E+00  0.378192025312E+00
 -0.940930209561E+00  0.235746648443E+00  0.243051143761E+00
 -0.270482029131E+00 -0.911077557109E-02 -0.962681913036E+00
 -0.543630367573E+00  0.578128051584E-01 -0.837331298240E+00
  0.493914381739E+00 -0.750229157147E+00 -0.439550674300E+00
  0.120201877714E+00  0.608487383654E+00 -0.784407172665E+00
 -0.756325934042E+00  0.527702347054E+00 -0.386653998311E+00
 -0.246523232931E+00 -0.835835559532E+00  0.490515252614E+00
  0.566411900883E+00  0.478328898812E+00  0.671102840926E+00
 -0.324629001301E+00  0.841263583334E+00  0.432309605341E+00
  0.334465606230E+00  0.283085812429E+00  0.898885521660E+00
 -0.317078066269E+00  0.599881853274E+00  0.734576927220E+00
 -0.343904506068E+00  0.101107533600E+00  0.933545369736E+00
 -0.121548582325E+00  0.726647478810E+00  0.676172599026E+00
  0.958427419201E+00  0.233333827915E+00  0.164232173686E+00
 -0.306966784000E+00  0.950222864100E+00 -0.533657386478E-01
  0.382232162412E+00 -0.476770957138E+00  0.791573135249E+00
  0.578328535687E+00  0.793174216525E+00  0.190816055537E+00
 -0.886921816131E+00 -0.409859571583E+00  0.213037141485E+00
  0.660848002533E+00  0.681805233397E+00  0.313722076463E+00
 -0.394950469419E+00 -0.915051981254E+00  0.818168583427E-01
  0.698874327480E+00 -0.911186395102E-01 -0.709416709645E+00
 -0.200215054231E-01  0.903266997001E+00 -0.428611562431E+00
  0.459366381728E+00  0.861810546865E+00 -0.215093255705E+00
  0.603357919334E+00 -0.274099114887E-01  0.796999321160E+00
 -0.504831134482E+00  0.620999645319E+00  0.599587329896E+00
 -0.883328292787E+00 -0.157483298961E-02 -0.468752223529E+00
 -0.462458437969E+00 -0.850806163325E+00  0.249521673605E+00
  0.453146284372E-01 -0.820976296445E+00 -0.569161229464E+00
 -0.594223716139E+00  0.235437914304E+00  0.769069024006E+00
  0.520784219065E-01 -0.526340630288E+00  0.848677429227E+00
  0.649892885558E+00 -0.301586791740E+00  0.697627869533E+00
 -0.866141873958E+00 -0.399840468507E+00  0.299876397737E+00
 -0.236318050364E+00  0.581424222424E+00 -0.778524021884E+00
  0.483682869090E+00  0.108695666027E+00 -0.868467693317E+00
  0.243647827129E+00  0.143542227956E+00 -0.959182654727E+00
 -0.724190354737E+00 -0.689112678043E-01 -0.686148356608E+00
  0.561320187918E+00  0.773543462793E+00  0.294194081867E+00
  0.454771274755E+00  0.566306418611E+00  0.687371899264E+00
  0.195360071563E-01  0.766332376484E+00  0.642147205224E+00
  0.739380966576E+00  0.631148916535E+00  0.234450061682E+00
  0.241240197316E-01  0.999202999921E+00  0.318024624880E-01
  0.458392542410E+00 -0.119071944268E+00  0.880737275895E+00
  0.559347141922E+00  0.219350979339E+00 -0.799384715069E+00
 -0.703679919825E+00  0.280609743839E+00  0.652757797423E+00
 -0.876081522084E+00  0.118498397618E-02 -0.482161552259E+00
  0.573715012192E-01 -0.902238220223E+00 -0.427404614876E+00
 -0.643428729976E+00  0.745858544572E+00  0.172320924236E+00
  0.386527896774E+00 -0.869775519898E+00  0.306735602762E+00
 -0.810282444722E+00 -0.117445401005E+00 -0.574150622710E+00
  0.369415349040E+00 -0.759834106018E+00  0.534962083913E+00
[...]
CELL_DATA                3996
SCALARS C_p_inc float 1
LOOKUP_TABLE default
  0.983332503034E+00
  0.242384339057E-02
 -0.546270011663E+00
 -0.107196352623E+01
 -0.119980552809E+01
  0.926429477639E-01
  0.237953352337E+00
 -0.348425224762E+00
 -0.338801063588E+00
 -0.143437539142E+00
 -0.123847435583E+01
 -0.121717631243E+01
 -0.132885991591E+01
 -0.117282275183E+01
  0.995242470316E+00
  0.934986242500E+00
 -0.703590681329E+00
 -0.472803388289E+00
 -0.472629696833E+00
  0.561162919116E+00
 -0.824003283813E+00
 -0.117171560672E+01
  0.850293997128E+00
  0.713250459713E+00
 -0.401913902708E+00
 -0.396814519758E+00
  0.850295310443E+00
 -0.209619019625E+00
 -0.475871554798E+00
  0.334619092887E+00
 -0.489662913894E+00
 -0.778042366816E+00
 -0.695617556411E+00
 -0.708712086272E+00
 -0.405509379585E+00
 -0.450975516932E+00
  0.651726199055E+00
  0.574035910592E+00
  0.656286238791E+00
  0.658763910591E-01
  0.143026770251E+00
  0.337156036752E+00
  0.714572325631E+00
  0.727929544758E+00
  0.450094682805E+00
  0.991932558382E+00
  0.990377080634E+00
 -0.884357811602E+00
 -0.800656272717E+00
  0.599915836318E+00
 -0.770749425348E+00
 -0.122440001087E+01
 -0.128093466844E+01
 -0.713766279263E+00
 -0.992410514833E+00
 -0.998043429339E+00
 -0.103319788512E+00
 -0.114994424859E+00
 -0.538710506978E+00
 -0.465921180901E+00
 -0.561803394035E+00
 -0.582915529687E+00
 -0.107041525539E+01
 -0.102292133260E+01
 -0.536106060841E+00
 -0.798602257214E+00
 -0.768176380351E+00
 -0.962646021620E+00
 -0.108687537130E+01
 -0.104699051669E+01
 -0.109122736517E+01
 -0.618981072616E+00
 -0.574327184984E+00
 -0.586748334774E+00
 -0.118530137245E+01
 -0.111252812604E+01
 -0.117501543420E+01
 -0.107319480865E+01
 -0.107388690206E+01
 -0.127579435064E+01
 -0.101342519081E+01
 -0.101905535951E+01
 -0.956358521608E+00
 -0.913494612468E+00
 -0.928724593165E+00
 -0.877099748774E+00
 -0.928695576382E+00
 -0.115583469277E+01
  0.176923595622E+00
  0.369547751509E+00
 -0.671564893906E-02
  0.126157587749E+00
  0.268037341968E+00
  0.264288021724E+00
  0.282917168860E+00
  0.642016424379E+00
 -0.131814854669E+00
 -0.203642303500E-01
 -0.181265018628E-01
 -0.589193147150E-01
 -0.133838085502E+00
 -0.118824849644E+01
 -0.391628996767E+00
 -0.123635132614E+01
 -0.125500706647E+01
 -0.130348339644E+01
 -0.125796862558E+01
 -0.128980759074E+01
 -0.123981933165E+01
 -0.114223270130E+01
 -0.728676565244E+00
 -0.908875438598E+00
 -0.121403717023E+01
 -0.879909896127E+00
 -0.931716667320E+00
 -0.923496082891E+00
 -0.887755804247E+00
 -0.948502920163E+00
 -0.911406134749E+00
 -0.766619299417E+00
 -0.897297465894E+00
 -0.123671141609E+01
 -0.116675585695E+01
 -0.115329658533E+01
 -0.124431390282E+01
 -0.117531308196E+01
 -0.129189686396E+01
 -0.127069054254E+01
 -0.121499208476E+01
 -0.118927757079E+01
 -0.123311070479E+01
 -0.120455458456E+01
 -0.127911010738E+01
 -0.115198354650E+01
 -0.123512064788E+01
 -0.127827127074E+01
 -0.323357484369E+00
 -0.443745611134E+00
 -0.733392813677E+00
 -0.431599195778E+00
 -0.382236226810E+00
 -0.840205185372E+00
 -0.766240043009E+00
 -0.121385189540E+01
 -0.124917957665E+01
 -0.100739670362E+01
 -0.121162631961E+01
 -0.128136247341E+01
 -0.396446790989E+00
 -0.896571378677E+00
 -0.888339010312E+00
 -0.104678897106E+01
 -0.419682036141E+00
 -0.440558503992E+00
 -0.110250365988E+01
 -0.120866564137E+01
 -0.119556994537E+01
 -0.126199432907E+01
 -0.130271977904E+01
 -0.120293773240E+01
 -0.115764233314E+01
  0.620224740745E+00
  0.798191379910E+00
  0.954412844432E+00
  0.865351479058E+00
  0.938065657294E+00
  0.989098643846E+00
 -0.118586396587E+01
 -0.507795619633E+00
 -0.385298722443E+00
 -0.341531197968E+00
 -0.521898124040E+00
 -0.641895469769E+00
 -0.639015910430E+00
 -0.841810693097E+00
  0.786641744689E+00
  0.922957826846E+00
  0.853780752200E+00
  0.877109564613E+00
  0.856877435924E+00
  0.816333632060E+00
  0.148031777512E+00
 -0.901088434032E-01
 -0.401912745754E+00
 -0.277388298497E-01
  0.299195485738E-01
  0.669270239314E+00
  0.229938522580E+00
 -0.367931881000E-02
  0.128839011130E+00
  0.105511407040E+00
  0.338632138035E+00
  0.394634445245E+00
  0.246287308269E+00
  0.244396568217E+00
 -0.102196247440E+01
  0.677149968922E+00
  0.284926212523E+00
  0.115036172500E+00
  0.344890083735E+00
  0.795375653976E-01
 -0.468480820636E+00
  0.216967631856E-01
  0.328477175455E-01
 -0.411310632992E+00
 -0.698924448337E+00
 -0.473355980448E+00
 -0.766354307821E+00
 -0.199054418501E+00
 -0.200185783578E+00
 -0.341659907489E+00
 -0.181426642368E+00
 -0.947279032528E+00
 -0.714170921569E+00
 -0.871999754898E+00
 -0.891354126600E+00
 -0.569575148988E+00
 -0.540700838121E+00
 -0.498614610613E+00
 -0.117438028608E+01
 -0.120819161060E+01
 -0.113513405458E+01
 -0.101497171160E+01
 -0.739717525867E+00
 -0.126607568547E+01
 -0.125062054071E+01
 -0.117262744673E+01
 -0.100843884570E+01
 -0.107490739872E+01
 -0.110948292411E+01
 -0.113642915483E+01
 -0.132654852411E+01
 -0.126395223380E+01
 -0.127892693039E+01
 -0.127887606241E+01
 -0.131712831468E+01
  0.207706082913E-01
 -0.122626759089E+01
 -0.122393593188E+01
 -0.128324312661E+01
  0.956594037494E+00
  0.868573403191E+00
  0.912027017700E+00
  0.801712274422E+00
  0.803129409927E+00
  0.937494906009E+00
  0.879259840627E+00
  0.841414402322E+00
  0.843415541671E+00
 -0.513686866262E+00
 -0.829444434421E+00
 -0.310781301598E+00
 -0.261008916210E+00
 -0.104469875421E+00
  0.811620757550E+00
  0.818726591176E+00
  0.723909821059E+00
  0.765343219947E+00
  0.826660830146E+00
  0.954298148947E+00
  0.986665380808E+00
  0.984972582062E+00
  0.958556608403E+00
  0.206282070377E+00
  0.338241184211E+00
  0.388862373282E+00
  0.385960600211E+00
  0.450811411807E+00
 -0.208845509621E+00
 -0.168253918997E+00
  0.528259990761E+00
  0.448960578653E+00
  0.520284937417E+00
  0.374350549244E+00
  0.384256921452E+00
  0.381307803995E+00
 -0.781195993300E+00
 -0.761552738019E+00
 -0.521173513867E+00
 -0.218052098735E+00
 -0.185118629102E+00
 -0.403296242308E+00
 -0.542750960508E+00
 -0.344423063337E-01
  0.145816151203E+00
  0.231108947592E+00
 -0.310485598224E+00
 -0.237090680317E+00
 -0.274305691607E+00
 -0.240965240620E+00
 -0.283514337437E+00
 -0.511674256623E-01
  0.456471821168E+00
  0.491765914706E+00
  0.589486670120E+00
  0.347432923182E+00
  0.725386448230E+00
  0.708913971445E+00
  0.818398044943E+00
 -0.233985032024E+00
  0.785478063990E-01
  0.253592196784E-01
  0.350402882057E+00
  0.438428753171E+00
  0.712397618649E+00
  0.602347724506E+00
  0.701698963082E+00
  0.504275262174E+00
  0.884774609066E+00
  0.538226184930E+00
  0.454245899582E+00
  0.465823314184E+00
  0.346852088663E+00
  0.361683457070E+00
  0.878957275978E+00
  0.616828397081E+00
  0.732418497919E+00
  0.758999359149E+00
  0.832108299637E+00
  0.898773278668E+00
  0.993867377473E+00
  0.921457359281E+00
  0.959768653273E+00
  0.921633823776E+00
  0.939596182891E+00
  0.912084295581E+00
  0.987475957574E+00
  0.975862569288E+00
  0.952874729873E+00
 -0.387648980887E+00
 -0.486478309149E+00
 -0.517010343768E+00
 -0.738781062186E+00
 -0.618535526207E+00
 -0.731265686809E+00
 -0.619660616699E+00
 -0.690673063876E+00
 -0.498919249944E+00
  0.181294288489E+00
  0.592480320882E+00
  0.585932729632E+00
  0.669419836496E-01
 -0.804720708318E+00
 -0.738808735783E+00
 -0.766020369770E+00
 -0.165908176187E+00
 -0.138118958992E+00
 -0.123116279124E+00
 -0.105900979415E+01
 -0.108095226540E+01
  0.131751929482E+00
 -0.371503646498E+00
 -0.444580355058E+00
 -0.389324326294E+00
 -0.219387236158E+00
 -0.763471905593E+00
 -0.568325502239E+00
 -0.577501961634E+00
 -0.802851468907E+00
 -0.814449850520E+00
 -0.649113412181E+00
 -0.527116523487E+00
 -0.157469128128E+00
 -0.149421585926E+00
 -0.159994355792E+00
 -0.360618226350E+00
 -0.125547795809E+01
 -0.110194861087E+01
 -0.979651511704E+00
 -0.105511568035E+01
 -0.114196492507E+01
 -0.121413735272E+01
 -0.129301876850E+01
 -0.863293488079E+00
 -0.105811610242E+01
 -0.536948360014E+00
 -0.542614462739E+00
 -0.383558364297E+00
 -0.410693249602E+00
 -0.462306308497E+00
 -0.103124314486E+01
 -0.864571223659E-01
 -0.171370710493E+00
 -0.345724970509E+00
 -0.125556831248E+00
 -0.136367713721E+00
 -0.113932799554E+00
  0.126917824062E+00
  0.133806331730E+00
 -0.705747120258E+00
 -0.781779488916E+00
 -0.167194909391E+00
 -0.461691579803E+00
 -0.392780891641E+00
 -0.152152433182E+00
 -0.250925452557E+00
 -0.303854152350E+00
 -0.722839871874E+00
 -0.677708160243E+00
 -0.105801568771E+01
 -0.119815921351E+01
 -0.997564477635E+00
 -0.105002443954E+01
 -0.709851107189E+00
 -0.601620220388E+00
 -0.352350930800E+00
 -0.175025953838E+00
 -0.127083595120E+01
 -0.127571554298E+01
 -0.123623530981E+01
 -0.127793497955E+01
 -0.611001730925E+00
 -0.820990486885E+00
 -0.790486865577E+00
 -0.109494897174E+01
 -0.962011990935E+00
 -0.105921945536E+01
 -0.814068372906E+00
 -0.109675444818E+01
 -0.121159025382E+01
 -0.119189703053E+01
 -0.115382669268E+01
 -0.115764606121E+01
 -0.114037484528E+01
 -0.108487733844E+01
 -0.106750276816E+01
 -0.911982503080E+00
 -0.102214373604E+01
 -0.116730499643E+01
 -0.984646528742E+00
 -0.574062519507E+00
 -0.803774907229E+00
 -0.785609082959E+00
 -0.122787951985E+01
 -0.123462721242E+01
 -0.142422090129E+01
 -0.144939520767E+01
 -0.125144280330E+01
 -0.124221268838E+01
 -0.125510059997E+01
 -0.126591601833E+01
 -0.126475148893E+01
 -0.124624980956E+01
 -0.125425334379E+01
 -0.128054096285E+01
 -0.123987339383E+01
 -0.127591665108E+01
 -0.130970694241E+01
 -0.125141980622E+01
 -0.118756632172E+01
  0.157360360848E+00
  0.162877414141E+00
  0.155547639490E+00
  0.163299484634E+00
  0.384775277838E+00
 -0.301625275746E+00
 -0.984529163282E-01
 -0.103539123822E-02
  0.203780480028E+00
  0.157984872683E+00
  0.224588833929E+00
  0.254492409733E+00
 -0.150370582016E-01
  0.647019521903E+00
  0.307547936775E+00
  0.369747660398E+00
  0.371401186637E+00
  0.427960054597E+00
  0.637589891217E+00
  0.609857983843E+00
 -0.403247365457E+00
 -0.251832707701E+00
 -0.244272636614E+00
 -0.218273069055E+00
  0.353267873161E+00
  0.509434436503E+00
  0.310068943637E+00
  0.319901413542E+00
 -0.164861230583E-01
 -0.291041717188E-01
  0.266867762008E-01
  0.331789306782E+00
 -0.292203808474E-02
 -0.678597496377E-01
 -0.758501223589E-01
  0.144547770862E+00
  0.194558499739E+00
  0.139232888538E+00
  0.440548239728E+00
  0.384919906676E+00
  0.208190898635E+00
  0.221371811514E-01
 -0.121121935473E+01
 -0.122348800369E+01
 -0.113354578510E+01
 -0.954267054573E+00
 -0.100853419714E+01
 -0.116327836119E+01
 -0.122461455289E+01
 -0.122902364794E+01
 -0.126741152088E+01
 -0.122952480782E+01
 -0.743333340726E+00
 -0.364033250105E+00
 -0.380186508575E+00
 -0.112297453368E+01
 -0.114558110443E+01
 -0.117949786849E+01
 -0.112468492385E+01
 -0.123862943539E+01
 -0.125105754575E+01
 -0.106712770872E+01
 -0.113828644696E+01
 -0.112155674288E+01
 -0.111673685054E+01
 -0.121941775113E+01
 -0.129596580563E+01
 -0.124306165855E+01
 -0.121258653243E+01
 -0.121717496602E+01
 -0.133139122081E+01
 -0.125017322047E+01
 -0.129182537602E+01
 -0.122737867222E+01
 -0.101889755396E+01
 -0.125559802630E+01
 -0.119961552201E+01
 -0.114424357251E+01
 -0.115648378968E+01
 -0.110500216619E+01
 -0.120379545663E+01
 -0.123908498347E+01
 -0.717298387312E+00
 -0.739722363614E+00
 -0.715993295248E+00
 -0.725585287685E+00
 -0.108530948668E+01
 -0.108518202126E+01
 -0.114459320695E+01
 -0.982294106601E+00
 -0.109402639209E+01
 -0.932271872592E+00
 -0.893987023132E+00
 -0.118413534821E+01
 -0.126546029268E+01
 -0.119857656493E+01
 -0.127166796031E+01
 -0.119011639199E+01
 -0.116322882420E+01
 -0.117710531968E+01
 -0.771906131634E+00
 -0.876123992683E+00
 -0.855341247429E+00
 -0.114125302833E+01
 -0.125154423817E+01
 -0.117819479737E+01
 -0.882300125124E+00
 -0.101248018517E+01
 -0.103230026310E+01
 -0.103802073375E+01
 -0.117217405921E+01
 -0.128664177709E+01
 -0.126042284576E+01
 -0.128552158863E+01
 -0.115684272904E+01
 -0.163915016797E+01
 -0.163497699681E+01
 -0.927085756080E+00
 -0.741555081101E+00
 -0.754744930541E+00
 -0.115287910296E+01
 -0.112043766737E+01
 -0.964861069824E+00
 -0.890656298344E+00
 -0.122063699824E+01
 -0.108283261009E+01
 -0.106998982671E+01
 -0.104558532661E+01
 -0.112736105990E+01
 -0.109437633184E+01
 -0.108418681770E+01
 -0.107606390883E+01
 -0.101857360111E+01
 -0.105641310948E+01
 -0.115835873019E+01
 -0.120671044540E+01
 -0.115507077497E+01
 -0.120615093935E+01
 -0.121462578562E+01
 -0.121134133231E+01
 -0.123678015235E+01
 -0.138734928999E+01
 -0.128135380838E+01
 -0.122279924077E+01
 -0.129466148914E+01
 -0.339070529651E+00
 -0.701128310743E+00
 -0.902736515228E+00
 -0.894963170982E+00
 -0.914526427929E+00
 -0.918416032355E+00
 -0.913270329180E+00
 -0.110767567505E+01
 -0.119818687683E+01
 -0.119671135388E+01
 -0.110921221184E+01
 -0.105158002183E+01
 -0.846524077566E+00
 -0.892583818609E+00
 -0.117096422714E+01
 -0.115424817644E+01
 -0.104545948084E+01
 -0.105998006846E+01
 -0.892234478898E+00
 -0.820223716754E+00
 -0.817786682320E-01
 -0.125485144887E+01
 -0.126284001947E+01
 -0.110183028477E+01
 -0.107240096941E+01
 -0.995113022628E+00
 -0.967613882837E+00
 -0.921527513573E+00
 -0.149036104484E+01
 -0.125404333935E+01
 -0.123250700201E+01
 -0.275532115294E+00
 -0.563651830789E+00
 -0.389930955838E+00
 -0.970833742299E-01
 -0.252971830317E+00
 -0.260383345854E+00
 -0.323104006521E+00
 -0.288339999408E+00
  0.449878373593E+00
 -0.138518209953E+00
 -0.336066422848E+00
 -0.121106826316E+01
 -0.127434678504E+01
 -0.114156701412E+01
 -0.104812746642E+01
 -0.969989100623E+00
 -0.898482914996E+00
 -0.968112383076E+00
 -0.946828928636E+00
 -0.687236310183E+00
 -0.715647939736E+00
 -0.930067232503E+00
 -0.847989399538E+00
 -0.126780778085E+01
 -0.124881147311E+01
 -0.108081591386E+01
 -0.110735014133E+01
 -0.122530009998E+01
 -0.120382136550E+01
 -0.125766232899E+01
 -0.137064799970E+01
 -0.125397893915E+01
 -0.113257348388E+01
 -0.100495512566E+01
 -0.122341889216E+01
 -0.896882020435E+00
 -0.922977861081E+00
 -0.119493351891E+01
 -0.118122301872E+01
 -0.122271034644E+01
 -0.990576695239E+00
 -0.973686500139E+00
 -0.120150363254E+01
 -0.126528192629E+01
 -0.137699620950E+01
 -0.138388513810E+01
 -0.121774392976E+01
  0.841008486002E+00
  0.504392733608E+00
  0.802230543685E+00
  0.831437812783E+00
  0.791650160874E+00
  0.815693118106E+00
  0.746338797987E+00
  0.691663889970E+00
  0.781886759462E+00
  0.823471841544E+00
  0.688415180162E+00
 -0.701997068361E-01
 -0.108216010173E+01
 -0.109782314037E+01
 -0.460630507415E+00
 -0.295756594041E+00
 -0.312170275465E+00
 -0.107335420932E+00
 -0.832618433282E+00
 -0.891217491366E+00
 -0.846629188761E+00
 -0.580069758786E+00
 -0.701837057385E+00
 -0.710825532254E+00
 -0.701771051508E+00
 -0.598115460262E+00
 -0.584816582321E+00
 -0.899006031960E+00
 -0.804009906811E+00
 -0.921084284270E+00
 -0.960207603488E+00
 -0.972020360171E+00
 -0.914353798386E+00
 -0.826620751538E-01
 -0.409207321173E-01
  0.255511252979E+00
  0.759819314394E+00
  0.647069447368E+00
  0.587229110265E+00
  0.605189436846E+00
  0.645418342978E+00
  0.668103168771E+00
  0.886326526827E+00
 -0.425297356297E+00
 -0.511220832634E+00
 -0.519915817903E+00
  0.495270902189E+00
  0.619463863617E+00
  0.631798155926E+00
  0.492515675701E+00
 -0.214531914197E-01
  0.201297540712E+00
  0.261469420173E+00
  0.217219436298E+00
  0.173614407233E+00
  0.215904084761E+00
 -0.297364974585E-01
 -0.108983428974E+01
 -0.910065497512E+00
 -0.101119633286E+01
 -0.909907081160E+00
  0.308067547694E+00
  0.324686354927E-01
  0.849582368502E-01
 -0.566243330451E-01
  0.100302180606E-01
 -0.129655423453E+00
 -0.514133609561E+00
  0.461883324510E+00
  0.676727320140E+00
  0.587400598268E+00
  0.638972590149E+00
  0.824391087946E+00
 -0.706354316609E-01
 -0.251569748866E+00
 -0.255871171651E+00
 -0.286834687199E-01
 -0.152948482061E-01
 -0.394054934712E+00
 -0.811651431345E+00
 -0.127665628670E+01
 -0.108451663572E+01
 -0.807522087054E+00
 -0.917710808763E+00
 -0.111962575052E+01
 -0.478778956719E+00
 -0.497463413367E+00
 -0.480179216759E+00
 -0.442959729282E+00
 -0.568300747187E+00
 -0.751843296624E+00
 -0.756676190882E+00
 -0.221704042211E+00
 -0.806776795661E+00
 -0.578345360273E+00
 -0.435458679444E+00
 -0.414543853244E+00
 -0.455789998307E+00
 -0.671203956129E+00
 -0.732133956914E+00
  0.155018509109E+00
  0.419494181232E-01
  0.733725547569E-01
  0.198286794959E-01
 -0.495817187149E+00
 -0.518831641416E+00
 -0.513595527785E+00
 -0.816690470216E+00
 -0.123498652940E+01
 -0.124027135322E+01
 -0.121208425759E+01
 -0.107480231520E+01
 -0.124330295132E+01
 -0.967018023359E+00
 -0.948046465043E+00
 -0.894078820818E+00
 -0.395016197085E+00
 -0.494253262572E+00
 -0.263806827837E+00
 -0.284449549536E+00
 -0.295908963549E+00
 -0.275789597548E+00
 -0.281766152255E+00
 -0.123668028294E+01
 -0.121033551380E+01
 -0.115206285303E+01
 -0.645904593447E+00
 -0.607436168653E+00
 -0.631656559841E+00
 -0.126996881700E+01
 -0.145851152045E+01
 -0.127493148203E+01
 -0.124552303915E+01
 -0.133889250394E+01
 -0.129539927475E+01
 -0.123647868908E+01
 -0.896642361183E+00
 -0.686206548245E+00
 -0.913690213990E+00
 -0.850871777796E+00
 -0.777382145521E+00
 -0.561932529289E+00
 -0.594520698178E+00
 -0.558121605471E+00
 -0.880675183003E+00
 -0.101781856863E+01
 -0.583825704157E+00
 -0.112578063300E+01
 -0.996800470089E+00
 -0.903590499212E+00
 -0.913117964985E+00
 -0.111042055279E+01
 -0.108943824491E+01
 -0.112136093088E+01
 -0.125374417003E+01
 -0.206522652748E+00
  0.733592078897E-01
  0.496305422281E-01
  0.574553982036E+00
  0.456469778418E+00
 -0.508300022935E+00
 -0.766676121596E+00
 -0.543170099870E+00
 -0.430064778105E+00
 -0.524754860853E+00
  0.251943399307E+00
  0.340095945733E+00
  0.785697298582E-01
  0.138560090802E+00
 -0.112653640994E+01
 -0.114292914881E+01
 -0.125751385606E+01
 -0.122416295217E+01
 -0.121959239782E+01
 -0.121486989443E+01
 -0.765452314206E+00
 -0.732527808891E+00
 -0.975403868939E+00
 -0.921932549769E+00
 -0.118598159833E+01
 -0.118636773076E+01
 -0.132587922702E+01
 -0.131596926280E+01
 -0.124001419254E+01
 -0.122564783939E+01
  0.872724338745E+00
  0.938484317363E+00
 -0.868732778407E+00
 -0.609511161227E+00
 -0.610888307571E+00
 -0.424712522903E+00
 -0.589727969743E+00
 -0.498291385605E+00
 -0.295051831194E+00
 -0.269924289585E+00
 -0.272549406193E+00
  0.235969210700E+00
  0.119617504677E+00
  0.227293946714E+00
  0.538024030491E+00
  0.577192921829E+00
  0.550448685054E+00
  0.614646278881E+00
  0.789242459541E+00
  0.729915608584E+00
 -0.810081196928E-01
 -0.237487262751E+00
 -0.180040501141E+00
 -0.173178978552E+00
 -0.207377851060E+00
 -0.131559882196E+00
 -0.297331562747E+00
 -0.394478114583E+00
  0.955437881689E+00
  0.979218503027E+00
  0.719998309428E+00
  0.817676276566E+00
  0.813834408905E+00
  0.693894467780E+00
  0.297117661116E+00
  0.306559744835E+00
 -0.443359907847E-02
 -0.345565750582E+00
 -0.480921682835E+00
  0.829327231845E+00
  0.813255197932E+00
  0.407837006326E+00
  0.436975651263E+00
  0.435982317406E+00
  0.243798896988E+00
 -0.276773122472E-01
  0.329910891698E+00
  0.283432070045E+00
  0.255498162528E+00
 -0.867784457542E+00
 -0.781165573866E+00
 -0.796433738637E+00
 -0.694304085094E+00
 -0.237962772088E+00
 -0.316315328640E+00
 -0.416110251244E+00
 -0.474791919905E+00
 -0.219175034970E+00
 -0.140781100885E+00
 -0.638837628072E-01
 -0.304143121491E-01
  0.342363880483E-01
 -0.221465540523E+00
 -0.234698981979E+00
 -0.278703020772E+00
 -0.259287702117E+00
 -0.472068467635E+00
 -0.463478185131E+00
 -0.329149106427E+00
 -0.508154551982E+00
 -0.512936059726E+00
  0.164080024282E+00
  0.206203782223E+00
  0.302690601430E+00
  0.369225408727E+00
  0.182228596671E+00
 -0.807136393882E-01
 -0.756181602557E-01
 -0.818608524392E-01
 -0.380961434296E-01
 -0.151540606314E+00
 -0.578829573333E-01
 -0.319792529403E-01
 -0.281668782573E+00
 -0.214899559432E+00
 -0.459472076122E+00
 -0.482639967729E+00
 -0.495502038138E+00
 -0.360266269564E+00
  0.352504676127E+00