# vtk DataFile Version 3.0
MachLine results file. Generated by MachLine, USU AeroLab (c) 2022.
ASCII
DATASET POLYDATA
POINTS                1000 float
  0.259882390446E+00  0.311666867497E+00 -0.913961107948E+00
 -0.860057908790E+00 -0.396381117906E+00  0.321220178221E+00
 -0.430391966174E+00 -0.900668287679E+00  0.596606320988E-01
  0.444615553930E+00 -0.402630921296E+00  0.800128333719E+00
 -0.956937766924E+00  0.273023408904E+00 -0.986322889531E-01
  0.360661929047E+00  0.899440126374E+00  0.246840904237E+00
  0.444450867063E+00  0.839108975567E+00  0.313623267457E+00
 -0.367199617095E+00 -0.589617558999E+00 -0.719385554015E+00
 -0.888935225477E+00 -0.457302678604E+00  0.258539174514E-01
  0.156034112391E+00 -0.649306581711E+00 -0.744348250966E+00
 -0.195677908415E+00  0.933058913314E+00  0.301846352379E+00
 -0.166320166205E+00 -0.130055022783E+00 -0.977457566016E+00
 -0.637815652848E+00 -0.768268243185E+00 -0.543608268394E-01
 -0.919161244874E+00 -0.238989395753E+00  0.313092118458E+00
 -0.705411305069E+00  0.611628830213E+00  0.358196963600E+00
 -0.171215731914E+00  0.423656330101E+00 -0.889494512131E+00
 -0.657882350091E+00  0.331433787291E+00  0.676270994558E+00
 -0.822044682924E+00  0.809579884200E-01 -0.563638486432E+00
 -0.547471058205E+00  0.135124652245E+00 -0.825843065469E+00
  0.699942350245E+00 -0.677694876938E+00  0.225411534989E+00
 -0.440379478343E+00 -0.770715298541E+00  0.460503901883E+00
  0.461022849763E+00  0.708441911945E+00  0.534385618628E+00
  0.492464933476E+00 -0.826075611008E+00  0.274002507641E+00
  0.993586523479E+00  0.539207365644E-01  0.993900122174E-01
 -0.969673222165E+00  0.242095339974E+00 -0.335214644474E-01
 -0.191571625527E+00 -0.435204878485E+00 -0.879714172920E+00
 -0.502794599966E+00  0.587173232179E+00  0.634369912321E+00
 -0.780973146244E+00  0.621829125097E+00 -0.583907871698E-01
 -0.903655915980E+00  0.186330492441E+00  0.385599446448E+00
  0.977582706704E+00  0.188981778245E+00 -0.928328554120E-01
 -0.359900234360E+00  0.256115246008E+00 -0.897149264097E+00
 -0.210279941708E+00  0.253349338269E-01 -0.977312891168E+00
 -0.324543913804E-01  0.866870701559E+00 -0.497475526291E+00
 -0.284365229374E+00  0.625202929798E+00 -0.726813396200E+00
  0.422420494697E+00  0.651057321468E+00 -0.630622937914E+00
  0.992511828714E-01  0.863245613300E+00 -0.494930514130E+00
  0.905087741727E+00 -0.789347350878E-01 -0.417834282189E+00
 -0.665988448502E+00 -0.737374036126E+00  0.112866812259E+00
 -0.517954307095E+00  0.854303223462E+00 -0.434665175017E-01
  0.625614113400E+00  0.771430468712E+00 -0.116198162884E+00
 -0.893824189365E+00  0.448356747072E+00  0.738551696781E-02
  0.203587313455E+00  0.976997293538E+00  0.634704200436E-01
 -0.118472898934E+00  0.953170908147E+00 -0.278261373678E+00
 -0.853935427421E+00 -0.408352958430E+00  0.322555649673E+00
 -0.650506614910E+00 -0.637612840818E+00  0.412663312136E+00
  0.782081782174E+00 -0.184815928494E+00  0.595139612668E+00
  0.413057990332E+00 -0.565693503058E+00 -0.713704390641E+00
  0.565386374036E+00 -0.395952934103E+00 -0.723574130293E+00
  0.423826489617E+00 -0.787159037139E+00 -0.448053296997E+00
  0.751309684653E+00 -0.642868331853E+00  0.149177966359E+00
 -0.626615287529E+00 -0.765730565971E+00  0.144948203759E+00
  0.471775644855E+00  0.490483798996E+00  0.732702793664E+00
  0.201534175903E-01  0.795999802119E+00 -0.604961283708E+00
 -0.119890875224E+00  0.300139654128E+00 -0.946331002376E+00
  0.233058128770E+00  0.655061657434E+00  0.718733701432E+00
  0.968270433218E+00  0.213309791541E+00  0.130197161979E+00
 -0.600735994466E+00  0.452547283432E+00  0.659027481378E+00
  0.979515182317E+00 -0.154558561384E+00 -0.129080047697E+00
 -0.233296964330E+00  0.968013888916E+00 -0.923127147311E-01
 -0.893511906641E+00 -0.159624636385E+00 -0.419709957173E+00
 -0.553967698977E+00  0.638254064131E+00  0.534557329116E+00
  0.812701756704E+00 -0.579658206977E+00  0.592639665836E-01
  0.681987304437E-01 -0.972334475140E+00 -0.223415759561E+00
 -0.881809969226E+00 -0.511385154815E-01 -0.468824093246E+00
  0.209841858384E+00  0.104169272685E+00 -0.972170333377E+00
  0.594463627222E+00  0.963786261572E-01 -0.798325845961E+00
  0.420747448335E+00 -0.356274782486E+00 -0.834290035950E+00
 -0.746043747869E+00 -0.371069017106E-01  0.664862244462E+00
 -0.815236345623E+00  0.551683856740E+00 -0.176166463856E+00
  0.328322601272E+00  0.857998136447E+00  0.395023375697E+00
  0.527917541094E+00  0.526619569739E+00 -0.666314414202E+00
 -0.200695103917E+00 -0.546907856617E+00  0.812781195424E+00
 -0.693013601525E+00 -0.499882085179E+00  0.519470931832E+00
  0.685734909152E+00 -0.430306576276E+00 -0.587029713715E+00
 -0.739540286845E+00  0.393803885521E+00 -0.545892538767E+00
  0.102311275785E+00  0.365077984707E+00 -0.925338029009E+00
 -0.892285618216E+00  0.428707731964E+00 -0.141548776329E+00
  0.359484195586E+00 -0.868669286886E+00 -0.340858890371E+00
 -0.994982604710E-01 -0.852118847831E+00 -0.513803041383E+00
 -0.152841121618E+00 -0.926146270972E+00 -0.344808173203E+00
 -0.214022723620E+00  0.969689740599E+00  0.117881638740E+00
 -0.419051188465E-01  0.485502639121E+00 -0.873230295181E+00
 -0.619385525831E+00 -0.593432877308E+00 -0.514002909058E+00
  0.194531761755E+00 -0.230472267900E+00 -0.953435853845E+00
  0.946363719184E+00  0.315430862732E+00  0.699934414709E-01
 -0.591951872773E+00  0.792597021500E-01 -0.802066630609E+00
  0.754469784987E+00  0.638813970622E+00  0.150638821289E+00
 -0.862191943829E+00 -0.302119773801E+00 -0.406630906688E+00
  0.598907758374E+00  0.128501364904E+00 -0.790440950468E+00
 -0.672450903620E+00  0.439594750695E+00  0.595454647629E+00
  0.519706775936E+00  0.181591217515E+00  0.834823033204E+00
 -0.913207285741E+00 -0.452959032234E-01 -0.404970041386E+00
  0.673942222291E+00 -0.125784315152E-01 -0.738676968691E+00
  0.160136539872E+00 -0.555349747993E+00  0.816053273997E+00
 -0.177967692212E-01 -0.951423377360E+00  0.307370837943E+00
 -0.929442601379E-01 -0.554982198668E+00  0.826653569320E+00
  0.651907234002E+00  0.853696242721E-02 -0.758250669982E+00
 -0.835700283330E+00 -0.383257613736E+00 -0.393342901239E+00
 -0.318466970269E+00 -0.702953569250E+00 -0.635952095937E+00
 -0.560906947607E+00 -0.638058549630E+00 -0.527507993654E+00
  0.966131798566E+00  0.141362970283E+00 -0.215883900353E+00
 -0.353487219883E-01 -0.669704618275E-01 -0.997128590051E+00
 -0.255949804677E+00 -0.966167409303E+00 -0.317841892544E-01
  0.244906307062E+00 -0.735899462506E+00  0.631247084623E+00
 -0.549693062075E+00  0.311272611401E+00  0.775207648891E+00
 -0.122033415164E+00 -0.804536444778E+00  0.581230552025E+00
  0.572392685074E+00  0.360934952143E+00  0.736269362662E+00
  0.449947149336E-02  0.899187320460E+00  0.437540760936E+00
 -0.608668383881E+00  0.380388382118E+00  0.696295538700E+00
 -0.308217294158E+00  0.409095112166E+00  0.858861623770E+00
 -0.143160225154E-01 -0.710457622329E+00 -0.703594356411E+00
 -0.306141220221E+00  0.558399965573E+00  0.771016881611E+00
 -0.676543325398E+00  0.536111261124E+00 -0.504850318962E+00
  0.813622327412E+00 -0.576426219006E+00 -0.758387920538E-01
  0.592893950658E+00  0.561407121554E+00 -0.577320367857E+00
  0.703271625311E+00  0.150429958463E+00 -0.694823609723E+00
  0.425272201162E+00  0.138852363456E+00 -0.894350924460E+00
  0.247996091686E+00 -0.584425621780E+00  0.772621919904E+00
  0.264044067825E+00  0.762934044868E+00  0.590095224034E+00
 -0.950628317965E-01 -0.464294701802E+00  0.880564300826E+00
 -0.627716539284E+00  0.425117640797E+00  0.652109605659E+00
 -0.639204635279E+00  0.725420545561E+00  0.255308570785E+00
 -0.813816349413E-01 -0.186310481754E+00  0.979114617337E+00
 -0.402190781576E+00 -0.909809728829E+00  0.102415001554E+00
 -0.656750259836E-01 -0.903278958695E+00  0.423997539782E+00
  0.444700605929E+00  0.266448413025E+00  0.855129589175E+00
  0.651276188503E+00 -0.758818988928E+00  0.575050707688E-02
  0.902731690763E+00  0.363894836916E+00  0.229469044008E+00
 -0.977431076356E+00 -0.177962023376E+00 -0.113833251773E+00
 -0.400728626343E+00  0.290155039083E+00  0.869037755983E+00
  0.485554158595E+00 -0.820681766053E+00  0.301195282067E+00
  0.715116771024E+00  0.674915017337E+00 -0.181927796595E+00
 -0.559880275016E+00 -0.123761495169E+00 -0.819278444707E+00
 -0.262095543811E+00 -0.195171410016E-01 -0.964844550755E+00
 -0.508209722096E+00  0.717172876640E+00 -0.476850021892E+00
  0.295942925823E+00  0.432278202514E+00 -0.851794188925E+00
  0.300978407507E+00 -0.255787447224E+00 -0.918686442731E+00
  0.755273015071E+00 -0.331057145498E+00  0.565653462042E+00
  0.248356214833E+00  0.738139803610E+00  0.627270931002E+00
  0.711854697588E+00  0.680815762069E+00  0.172489963880E+00
  0.963332370146E-01  0.665875692435E+00  0.739817186655E+00
  0.675761703427E+00  0.465975640221E+00 -0.571150438065E+00
  0.352357619735E+00  0.349976924525E+00 -0.867963282699E+00
 -0.148651185557E+00  0.762944092005E+00  0.629141587805E+00
  0.443539796166E+00  0.554382605152E+00  0.704224663244E+00
  0.418217510352E+00  0.358806651033E+00 -0.834477022577E+00
  0.258114675326E+00  0.759932004253E+00 -0.596556923767E+00
 -0.567608027691E+00  0.189690289461E+00  0.801148376385E+00
 -0.904408762089E+00  0.403238631333E+00 -0.139439582821E+00
  0.659565359227E+00  0.475567191129E+00  0.582073349011E+00
 -0.501773151718E+00 -0.731309645676E+00  0.461963100643E+00
  0.119905212536E+00  0.804763944696E+00  0.581358523910E+00
 -0.579180086738E+00 -0.636022705780E+00 -0.509926999538E+00
 -0.312559806998E+00 -0.849030033864E+00 -0.425974610330E+00
  0.237794309720E+00 -0.219189948216E+00  0.946260869352E+00
 -0.448514768017E+00 -0.328873135853E+00 -0.831069770467E+00
 -0.887964347160E+00  0.397770833165E+00  0.230862908358E+00
  0.759946048790E+00 -0.568868412184E+00 -0.314437167884E+00
 -0.879899658818E+00  0.847148198320E-01  0.467546778101E+00
  0.749637544199E+00 -0.617000770913E+00  0.239486118637E+00
 -0.180771605089E+00  0.805876439311E+00  0.563812727204E+00
[...]
CELL_DATA                1996
SCALARS C_p_inc float 1
LOOKUP_TABLE default
 -0.118587549143E+01
 -0.118135204442E+01
 -0.119045521608E+01
  0.340125939510E+00
 -0.120657204224E+01
 -0.126188516019E+01
 -0.124172840071E+01
 -0.130577621089E+01
 -0.115186250776E+01
  0.993541635948E+00
  0.807029484405E+00
 -0.782877092066E+00
  0.712029141874E+00
  0.715299350798E+00
  0.511654003938E+00
  0.561790927503E+00
  0.993306621806E+00
  0.301019717154E+00
 -0.423910931516E+00
  0.523727128677E+00
  0.497646591414E+00
 -0.137729745432E+01
 -0.117633408022E+01
 -0.132247637137E+01
 -0.120857976718E+01
 -0.140901702934E+01
 -0.125423933714E+01
 -0.125358973806E+01
 -0.103537659205E+01
 -0.117054220847E+01
 -0.120902668864E+01
 -0.675990245298E+00
 -0.265889742683E+00
 -0.206183115225E+00
 -0.130438141964E+01
 -0.136182144417E+01
  0.829489171684E+00
  0.968975708488E+00
  0.948395380351E+00
  0.968013524256E+00
  0.790202137936E+00
 -0.123517314796E+01
 -0.110454587356E+01
 -0.840971634887E+00
 -0.149582030076E+01
 -0.121366927034E+01
 -0.121528234403E+01
 -0.729176863810E+00
 -0.121370578989E+01
 -0.136834250567E+01
  0.871777529828E+00
  0.935135490670E+00
  0.717204474416E+00
  0.535503996211E+00
  0.530393374210E+00
 -0.247172943176E+00
 -0.382004041379E+00
 -0.446367689522E+00
  0.120676676063E+00
  0.332140538993E-01
 -0.164020190238E+00
 -0.876273534548E+00
 -0.109697486245E+01
 -0.115531688560E+01
 -0.110756820575E+01
 -0.123233278544E+01
 -0.123566675993E+01
 -0.107275233385E+01
  0.116449786948E+00
 -0.427064465807E+00
 -0.264239636586E+00
  0.827002388508E+00
  0.863014631515E+00
  0.879294732491E+00
  0.974612551349E+00
  0.916276943630E+00
  0.905135848991E+00
  0.874206364130E+00
 -0.476885956329E+00
 -0.984970440153E+00
  0.689968988301E+00
 -0.113062122241E-01
  0.417362374638E+00
 -0.717574357426E+00
  0.453868182148E+00
 -0.186411072088E-02
  0.636115920979E+00
  0.802616877985E+00
  0.684350686815E+00
  0.536413543157E+00
  0.564932444014E+00
 -0.533968113009E+00
  0.710028056099E-01
 -0.203756546414E+00
  0.238501227161E+00
  0.591553816987E+00
  0.684237526475E+00
 -0.112017129178E+01
 -0.790204137985E+00
 -0.582986181766E+00
 -0.596274619800E+00
 -0.659812510247E+00
 -0.802471884237E+00
 -0.690131048782E+00
 -0.699458177530E+00
 -0.455046531697E+00
 -0.439694634572E+00
 -0.756886968876E+00
 -0.113404347872E+01
 -0.118459626493E+01
 -0.119042172914E+01
 -0.428245930645E+00
 -0.962369398132E+00
 -0.998002551514E+00
 -0.110813822192E+01
 -0.334316435144E-01
 -0.978100374746E+00
 -0.941378784773E+00
 -0.100918982147E+01
 -0.134776654816E+01
 -0.113367889543E+01
 -0.114857874527E+01
 -0.124957517196E+01
 -0.118690713634E+01
 -0.121878666708E+01
 -0.961108084917E+00
 -0.116921847416E+01
 -0.117749540475E+01
  0.147858861634E+00
 -0.122491702518E+01
 -0.120024413834E+01
 -0.123638597716E+01
 -0.138599453523E+01
 -0.131005567580E+01
 -0.160073289641E+01
 -0.157857149181E+01
 -0.131059735173E+01
 -0.133717200419E+01
 -0.121885991929E+01
 -0.130217902666E+01
 -0.129996269959E+01
 -0.102366439920E+01
 -0.102580861993E+01
 -0.100433992757E+01
 -0.530803799604E+00
 -0.411423255975E+00
 -0.414026122558E+00
 -0.781761789584E+00
 -0.841320380968E+00
 -0.106434446461E+01
 -0.111347179125E+01
 -0.111929984348E+01
 -0.125074111255E+01
 -0.123857036780E+01
 -0.108439103301E+01
 -0.108050170189E+01
 -0.276678087141E+00
 -0.122644040751E+00
 -0.994113676328E-01
 -0.486533004984E+00
 -0.274118822787E+00
  0.882044803471E+00
 -0.128884168278E+01
 -0.130547411001E+01
 -0.123732528332E+01
 -0.123405631688E+01
 -0.893985691754E+00
 -0.118073376043E+01
 -0.117707906803E+01
  0.502075154502E+00
 -0.549431599259E+00
  0.892489802284E-01
  0.924775448425E-01
  0.157717687798E+00
 -0.412301461539E-01
  0.349479480311E+00
  0.324148608950E+00
 -0.121106119946E+01
 -0.394049419069E+00
 -0.111400251925E+01
 -0.528820181193E+00
 -0.533596521379E+00
 -0.888796066194E+00
 -0.716550469154E+00
 -0.850574623920E+00
 -0.518473936739E+00
 -0.154836412537E+00
 -0.101300802793E+01
 -0.143861203411E+01
 -0.139567006235E+01
 -0.145715379632E+01
 -0.117222582850E+01
 -0.116812245001E+01
 -0.115507879018E+01
 -0.119023773948E+01
 -0.103294156045E+01
 -0.105961306110E+01
  0.830029906584E+00
  0.718971450283E+00
  0.831501753375E+00
  0.477529932817E+00
  0.647822040380E+00
  0.646227680248E+00
  0.657020711438E+00
 -0.112776494823E+01
 -0.101547723813E+01
 -0.116449283985E+01
 -0.117516023592E+01
 -0.100493863379E+01
 -0.437962919517E+00
 -0.528921574825E+00
 -0.541372256009E+00
 -0.344371535330E+00
 -0.396549220442E+00
 -0.848428503205E+00
 -0.811178845600E+00
 -0.933760621426E+00
 -0.872078448137E+00
 -0.930226795217E+00
 -0.107342276419E+01
 -0.112878592426E+01
 -0.801288417925E+00
 -0.899794086781E+00
 -0.111009290415E+01
 -0.113168275642E+01
 -0.109111775827E+01
 -0.123577689545E+01
 -0.900767791827E+00
 -0.116516988912E+01
 -0.123234838416E+01
  0.121136224971E+00
  0.156074018403E+00
  0.297050817722E-01
 -0.227801128880E+00
 -0.261663769732E+00
  0.251428208906E+00
  0.344148529439E+00
  0.370478647150E+00
 -0.755448367447E+00
 -0.439646650796E+00
 -0.289717809106E-01
 -0.366989337998E-01
 -0.280489871100E-01
  0.292865819914E+00
  0.420245230670E+00
  0.243991496577E+00
  0.247541112279E+00
 -0.912083796580E+00
 -0.891791864424E+00
 -0.809264472431E+00
 -0.793999940011E+00
 -0.934535749942E+00
 -0.944906131785E+00
 -0.356272660697E+00
 -0.507610974850E+00
 -0.703598850224E+00
 -0.200021204361E+00
 -0.492213613576E+00
 -0.349463281399E-01
 -0.169205702534E-01
  0.669396023166E+00
  0.701962010727E+00
 -0.144879740016E+00
  0.945942811796E+00
  0.851343210116E+00
  0.974867299284E+00
  0.980854306811E+00
 -0.526724319110E+00
 -0.952053673943E-01
 -0.138444450666E+00
 -0.196791972610E+00
 -0.197281021284E+00
  0.522969968491E+00
  0.762562563031E+00
 -0.967150878699E+00
 -0.115124970592E+01
 -0.118527660269E+01
 -0.163300097940E+00
 -0.112424464167E+00
 -0.598291645094E-01
  0.401333657809E+00
  0.730998260471E+00
  0.644508428416E+00
 -0.131797903103E+00
 -0.120459933843E+01
 -0.801951237584E+00
 -0.638052307915E+00
 -0.112547983546E+01
 -0.107570384182E+01
 -0.902319369668E+00
 -0.849785848310E+00
  0.363770375145E+00
  0.179923336282E+00
  0.109950819755E+00
 -0.857133175021E+00
  0.448035832811E+00
  0.433561330699E+00
  0.549885689848E+00
  0.549820394383E+00
 -0.917614021893E-01
 -0.909227476062E-01
 -0.320359148335E+00
 -0.466252735600E+00
 -0.573030525730E+00
 -0.573385169154E+00
 -0.202825583791E-01
 -0.243417111731E+00
 -0.185640028479E+00
 -0.230507379586E+00
  0.748709418096E+00
  0.669267373036E+00
  0.845882874319E+00
  0.851501480296E+00
  0.760291541697E+00
  0.766364082034E+00
 -0.123564513728E+01
 -0.121622737722E+01
 -0.134102158509E+01
 -0.124303193426E+01
 -0.123321941467E+01
 -0.117955116127E+01
 -0.772648719733E+00
 -0.720427497152E+00
 -0.592481463384E+00
 -0.648212824459E+00
 -0.773896277558E+00
 -0.112800634710E+01
 -0.108990960781E+01
 -0.106835889973E+01
 -0.118315940575E+01
 -0.770312858346E+00
 -0.804315584762E+00
  0.250494341641E-01
 -0.388107162131E+00
 -0.169244193189E+00
 -0.961392895526E-01
 -0.115007525389E+00
 -0.840030588379E+00
 -0.961400317642E+00
 -0.117715084256E+01
 -0.112948348511E+01
 -0.104616692553E+01
 -0.844790338398E+00
 -0.707507244001E+00
 -0.711122007954E+00
 -0.619355014903E+00
 -0.620182128658E+00
 -0.992470206311E+00
 -0.112189075606E+01
 -0.636473294887E+00
 -0.408466949952E+00
 -0.412231911512E+00
 -0.525720941393E+00
 -0.780924486325E+00
 -0.689869593598E+00
 -0.849110822485E+00
 -0.750851320408E+00
 -0.726286054968E+00
 -0.791696691874E+00
 -0.873549880437E+00
 -0.717982935476E+00
 -0.102247996778E+01
 -0.111696244254E+01
 -0.104584330933E+01
 -0.114588820634E+01
 -0.108993213347E+01
 -0.115495083607E+01
 -0.123115292088E+01
 -0.111229344283E+01
 -0.115472330241E+01
 -0.115639621627E+01
 -0.115134767171E+01
 -0.749825802229E+00
 -0.650651806788E+00
 -0.119094068244E+00
 -0.113846515610E+01
 -0.915411814327E-01
 -0.209554075597E+00
  0.182667684121E+00
  0.140127052613E+00
  0.967779505944E-01
 -0.189379780091E-01
 -0.629089459343E+00
 -0.675578625016E+00
 -0.832263909851E+00
 -0.892580704832E+00
 -0.850437021380E+00
 -0.121837875601E+01
 -0.120479033122E+01
 -0.119767757912E+01
 -0.119802073519E+01
 -0.134336079804E+01
 -0.140369504954E+01
 -0.140959804442E+01
 -0.123430018233E+01
 -0.130002311179E+01
 -0.125877618417E+01
 -0.139570818370E+01
 -0.125877215443E+01
 -0.128671414040E+01
 -0.108606361472E+01
 -0.111126107867E+01
 -0.111113343747E+01
 -0.113518911800E+01
 -0.112730130015E+01
 -0.104399342022E+01
 -0.100567452236E+01
 -0.105991484464E+01
 -0.642342433901E+00
 -0.264839142321E+00
 -0.106624582976E+01
 -0.871241737604E+00
 -0.928648985156E+00
 -0.102753467542E+01
 -0.985864347407E+00
 -0.958136998724E+00
 -0.116974378897E+01
 -0.121879043587E+01
 -0.120141487456E+01
 -0.141213273813E+01
 -0.109305363172E+01
 -0.101211364411E+01
 -0.918491359439E+00
 -0.955668039093E+00
 -0.997968768321E+00
 -0.674073391389E+00
 -0.377463546937E-01
 -0.957178805228E-01
  0.161582838554E-01
 -0.128754684313E+01
 -0.132276841565E+01
 -0.121015444865E+01
 -0.125979127523E+01
 -0.137461993848E+01
  0.329118557041E+00
  0.198742650332E+00
  0.195899213488E+00
  0.573392363154E+00
 -0.104442028782E+01
 -0.592504206731E+00
 -0.718843700811E+00
 -0.328916902343E+00
 -0.749200919964E+00
 -0.747004501481E+00
 -0.855369612657E+00
 -0.689089774895E+00
 -0.741544799723E+00
 -0.836663265854E+00
 -0.853375338072E+00
  0.364276460321E+00
  0.629029506643E+00
 -0.317356017486E+00
 -0.146267993330E+00
  0.675359237230E-01
 -0.383973985988E-01
  0.685704311328E+00
  0.688635560965E+00
  0.913737717941E+00
  0.884978105997E+00
  0.850164023445E+00
  0.778315761314E+00
  0.703628398362E+00
 -0.108654301202E+01
 -0.114927322747E+01
 -0.112851887391E+01
 -0.105146320737E+01
 -0.105727834859E+01
 -0.139140236968E+01
 -0.125076657040E+01
 -0.125035420353E+01
 -0.108590157471E+01
 -0.121358111398E+01
 -0.112723050164E+01
  0.305757253377E+00
  0.192580604787E+00
  0.115757331294E+00
  0.797129405775E-01
  0.273197559187E+00
  0.623587609073E+00
  0.721546524122E+00
  0.744238217909E+00
  0.319230890074E+00
  0.439178331367E+00
  0.243112079566E+00
  0.493716382510E+00
  0.455419341199E+00
 -0.667691925367E+00
 -0.118897580341E+01
 -0.112390763984E+01
 -0.106316409180E+01
 -0.124522859844E+01
 -0.123105256364E+01
 -0.114172177999E+01
 -0.118323299045E+01
 -0.125622555649E+01
 -0.555873241656E+00
 -0.199176183861E+00
 -0.194904321926E+00
 -0.923395502649E+00
 -0.948993322206E+00
 -0.113071864380E+01
 -0.121912035963E+01
 -0.879476050267E+00
 -0.837534043768E+00
 -0.795224246286E+00
 -0.905851071980E+00
 -0.941415978653E+00
 -0.938677885109E+00
 -0.119482300503E+01
 -0.120784401173E+01
 -0.113352732361E+01
 -0.113214015249E+01
 -0.131376937583E+01
 -0.107453870831E+01
 -0.117372543638E+01
 -0.114800960380E+01
 -0.118612282933E+01
 -0.116976305389E+01
 -0.124734327741E+01
  0.709919737215E+00
  0.845875280872E+00
  0.696547278293E+00
  0.699217551251E+00
  0.845396207176E+00
  0.900312685378E+00
  0.900533696134E+00
  0.882572286102E+00
  0.987064342499E+00
  0.946644261997E+00
 -0.241336187003E+00
 -0.423882302031E+00
 -0.317103804473E+00
 -0.421839449225E+00
 -0.354046021788E+00
  0.191027910210E+00
  0.372854440741E+00
  0.590298240796E+00
  0.643988519166E+00
  0.637385238095E+00
  0.371921375852E+00
  0.332713338676E+00
  0.870405425038E-01
  0.109327909003E+00
 -0.271291309085E+00
 -0.131628629500E+00
 -0.236697629596E+00
 -0.243306147197E+00
 -0.238543816912E+00
 -0.273294069490E+00
  0.577182658012E+00
  0.477858319676E+00
  0.692863099877E+00
  0.696622209295E+00
  0.634560902640E+00
  0.608742947800E+00
 -0.925185718468E+00
 -0.996925025063E+00
 -0.889235549223E+00
 -0.921345614455E+00
 -0.913051058516E+00
 -0.121846070082E+01
 -0.113468082588E+01
 -0.108482947980E+01
 -0.946299022341E+00
 -0.120210737081E+01
 -0.615661314063E+00
 -0.102990453909E+01
 -0.111124952434E+01
 -0.115608488663E+01
 -0.115227602112E+01
 -0.107694986520E+01
 -0.110300058231E+01
 -0.121463904169E+01
 -0.131713268847E+01
 -0.124465386995E+01
 -0.121491238469E+01
 -0.121325688789E+01
 -0.902584625941E+00
 -0.967536509274E+00
 -0.784987981218E+00
 -0.989580002673E+00
 -0.953960559676E+00
 -0.943950195013E+00
 -0.105582482184E+01
 -0.908751334199E+00
 -0.109217170029E+01
 -0.335215445764E+00
 -0.947732613830E+00
 -0.946790151915E+00
 -0.111321070924E+01
 -0.124174368157E+01
 -0.133069298744E+01
 -0.132483596549E+01
 -0.120555028323E+01
 -0.130837897283E+01
 -0.133068360653E+01
 -0.111990699659E+01
 -0.105089813000E+01
 -0.111959544134E+01
 -0.104530060279E+01
 -0.127004797231E+01
 -0.122890574775E+01
  0.718208025980E+00
  0.540447938424E+00
  0.662237640134E+00
  0.276967916406E+00
  0.294768669222E+00
  0.231782835304E+00
 -0.163098636045E+00
 -0.103741946960E+00
 -0.180340722872E+00
 -0.462105549522E+00
 -0.516626815636E+00
 -0.437668623031E+00
 -0.607123108485E+00
 -0.573251492865E+00
 -0.461138429110E+00
 -0.220340053921E+00
 -0.378227571848E+00
 -0.150400766243E+00
 -0.299570739714E+00
 -0.426881184038E+00
 -0.891420748884E+00
 -0.998931624127E+00
 -0.706847063305E+00
 -0.510470564166E+00
 -0.100980928494E+01
 -0.956515456321E+00
 -0.874512005364E+00
 -0.683402000428E+00
 -0.836540169648E+00
 -0.727074815779E+00
 -0.686008805664E+00
 -0.672890809215E+00
 -0.392784168500E+00
 -0.480093980297E+00
 -0.728022308630E+00
 -0.543139010579E+00
 -0.311396396658E+00
 -0.431521723323E+00
 -0.205650710760E-01
  0.505946719132E+00
  0.450577027690E+00
  0.877970243759E+00
  0.864365396004E+00
  0.879142057164E+00
  0.887128759327E+00
  0.964267435431E+00
  0.954337483466E+00
  0.973479310881E+00
  0.970569297174E+00
  0.997058130017E+00
  0.990963909685E+00
  0.972990701899E+00
 -0.583518751053E+00
 -0.394037603924E+00
 -0.511347734888E+00
 -0.648477806488E+00
 -0.628354614209E+00
 -0.105748071092E-01
 -0.952897876461E-01
 -0.292976026544E+00
 -0.124486459757E+00
 -0.712741872836E+00
 -0.552849955412E+00
 -0.360078358207E+00
 -0.545688972242E+00
 -0.401523327542E+00
 -0.246416179163E+00
 -0.550634576351E-01
 -0.148977294549E+00
 -0.123046171682E+00
  0.878050328756E+00
  0.895477967161E+00
  0.843637059011E+00
  0.784427954891E+00
  0.719739971991E+00
  0.719467483468E+00
  0.979344606826E+00
  0.963355923417E+00
  0.969259212856E+00
  0.840408602957E+00
  0.876691331810E+00
  0.571105455393E+00
  0.733779411011E+00
  0.583795653350E+00
  0.681779310638E+00
  0.542892298092E+00
  0.751872164344E+00
  0.743577631033E+00
 -0.139628103572E+01
 -0.925406376979E+00
 -0.112425772748E+01
 -0.113457653359E+01
 -0.124701302030E+01
 -0.128147606302E+01
 -0.162396027146E+01
 -0.151386021696E+01
 -0.143861245146E+01
 -0.135009946373E+01
  0.216951052996E+00
  0.174976746081E+00
  0.148039618865E+00
  0.986811273000E+00
  0.989850117262E+00
  0.952038235140E+00
  0.844725142206E+00
  0.914711300213E+00
  0.915308674880E+00
 -0.415274812993E+00
 -0.436266130865E+00
 -0.432258113271E+00
 -0.655029657052E+00
 -0.333581851191E+00
 -0.174298759044E+00
 -0.111246532005E+01
  0.292359704568E+00
  0.259979619127E+00
  0.562991191437E+00
 -0.974347297326E+00
 -0.878765207738E+00
 -0.715882709269E+00
 -0.655150322075E+00
 -0.698713711120E+00
 -0.777864781715E+00
 -0.836837416690E+00
 -0.909853084676E+00
 -0.973655698771E+00
 -0.102474469219E+01
  0.154809887538E+00
  0.310777127492E+00
  0.188064295069E+00
  0.288601885260E+00
  0.287889269227E+00
  0.320485132755E+00
 -0.106868221409E+01
 -0.105751564660E+01
 -0.882767433907E+00
 -0.461591234732E+00
 -0.434240333040E+00
 -0.554241913715E+00
 -0.389990441876E+00
 -0.426193606055E+00
 -0.698230104459E-01
 -0.119054910279E+00
 -0.153312160289E+00
 -0.119461854408E+00
  0.610256511700E-01
 -0.193086279743E+00
 -0.217631011287E+00
 -0.789997885116E+00
 -0.107495989267E+01
 -0.122424995448E+01
 -0.156106243285E+00
 -0.115181622181E+00
  0.731883450263E-01
  0.102699233439E+00
  0.858138047325E+00
  0.774259478180E+00
  0.934084258946E+00
  0.816367570515E+00
  0.821606467521E+00
  0.886271833323E+00
  0.921159529457E+00
  0.945426654022E+00
  0.946060445859E+00
  0.969582391768E+00
  0.968503600104E+00
 -0.132180672032E+01
 -0.130842359784E+01
 -0.118055188139E+01
 -0.124774878401E+01
 -0.930681014179E+00
 -0.790558958980E+00
 -0.851475869352E+00
 -0.911114767537E+00
 -0.948075558680E+00
 -0.127510431293E+01
 -0.127622175871E+01
 -0.135390866986E+01
 -0.112951428670E+01
 -0.110360677820E+01
 -0.111469352614E+01
 -0.117757546415E+01
 -0.124541032220E+01
 -0.758518813433E+00
 -0.765028992587E+00
 -0.530534057438E+00
 -0.451605037650E+00
 -0.635187028643E+00
 -0.526740212718E+00
 -0.489421571725E+00
 -0.960601028333E+00
 -0.841901869023E+00
 -0.884218110524E+00
 -0.101073565508E+01
 -0.944082684499E+00
 -0.991955019399E+00
 -0.102280981549E+01
 -0.112281993490E+01
 -0.604234117217E+00
 -0.721473458414E+00
 -0.822483782307E+00
 -0.825538900909E+00
 -0.737353710835E+00
 -0.857784578420E+00
 -0.746211188516E+00
 -0.132084255057E+01
 -0.118997914278E+01
 -0.175839275829E+01
 -0.116911773400E+01
 -0.139168881714E+01
 -0.123619976593E+01
 -0.133182909250E+01
 -0.121219833525E+01
 -0.121173696114E+01
 -0.113117576597E+01
 -0.145758948501E+01
 -0.127371524126E+01
 -0.131163822638E+01
 -0.115438039923E+01
 -0.123090839905E+01
 -0.795319925894E+00
 -0.747463670088E+00
 -0.111517037407E+01
 -0.250542482814E+00
 -0.252850530338E+00
  0.137655736628E+00
 -0.320820975220E+00
 -0.324304056305E+00
 -0.186474767221E+00
 -0.174189066806E+00
 -0.916929609550E-01
 -0.185638476029E+00
 -0.233623390115E+00
 -0.751222303329E+00
 -0.549765488626E+00
 -0.618899011461E+00
 -0.777389071555E+00
 -0.109197949631E+01
 -0.950609209066E+00
 -0.737641495468E+00
 -0.549391016093E+00
 -0.595237279704E+00
 -0.520294226181E+00
 -0.886077755058E+00
 -0.825873158964E+00
 -0.120681353048E+01
 -0.118045438151E+01
 -0.128739437834E+01
 -0.128614919807E+01
 -0.135157882493E+01
 -0.120788444788E+01
 -0.124980632851E+01
 -0.120273563195E+01
 -0.132598708917E+01
 -0.115494017917E+01
 -0.109152738479E+01
 -0.971433488409E+00
 -0.724568631248E+00
 -0.892681540803E+00
 -0.928568512301E+00
 -0.964685656839E+00
 -0.992305538028E+00
 -0.617748981135E+00
 -0.662909747088E+00
 -0.693025384499E+00
 -0.943800472370E+00
 -0.898406603383E+00
 -0.105223164005E+01
 -0.120311040892E+01
 -0.124951742878E+01
 -0.103877870448E+01
 -0.107175905281E+01
 -0.107002297593E+01
 -0.104443517402E+01
  0.115536067554E+00
  0.395670080722E+00
  0.434836704631E+00
 -0.906714789154E+00
 -0.959940008289E+00
 -0.850472219394E+00
 -0.824446347748E+00
 -0.116807810109E+01
 -0.112302282862E+01
 -0.111547847971E+01
 -0.671443805907E+00
 -0.708883668514E+00
 -0.525847011681E+00
 -0.110285027549E-01
 -0.499771920518E-01
  0.273591493584E+00
  0.357558266828E+00
  0.369846507424E+00
 -0.451333891210E+00
 -0.890927459570E-01
 -0.795277012466E-01
 -0.468327999178E+00
 -0.484541817140E+00
  0.649681091082E+00
  0.265197972007E+00
  0.634118560851E+00
  0.565498487618E+00
 -0.518685657102E+00
 -0.650273410719E+00
 -0.374903809222E+00
 -0.736827380514E+00
 -0.768462087054E+00
 -0.891458310714E+00
 -0.719290044440E+00
 -0.744540011088E+00
 -0.738800799846E+00
 -0.362922314688E+00
 -0.363361045228E+00
  0.473861964754E+00
  0.726402352173E+00
  0.661900623920E+00
  0.565580910430E+00
  0.529552267056E+00
  0.570870911886E+00
  0.533616350960E+00
  0.760529995576E+00
  0.693560501955E+00
  0.498385555025E+00
  0.462031965677E+00
  0.253299647109E+00
  0.429974861194E+00
  0.436390867346E+00
  0.210728665043E+00
  0.302068970708E+00
  0.416469577088E-01
 -0.272527359848E+00
 -0.587135154151E+00
 -0.642916854141E+00
  0.903602666010E+00
  0.880950554162E+00
  0.829575003534E+00
 -0.895525215325E+00
 -0.931532365781E+00
 -0.966798166489E+00
 -0.109462796286E+01
 -0.120166052793E+01
 -0.110239209332E+01
 -0.128027276914E+01
 -0.994049061693E+00
 -0.981487438278E+00
 -0.126764946087E+01
 -0.110720778960E+01