# vtk DataFile Version 3.0
MachLine results file. Generated by MachLine, USU AeroLab (c) 2022.
ASCII
DATASET POLYDATA
POINTS                 500 float
 -0.871273196378E+00 -0.484116196646E+00 -0.807126100335E-01
 -0.233873911430E+00 -0.416845764420E+00 -0.878374978149E+00
 -0.221425311188E-01  0.981460984998E+00  0.190378683794E+00
 -0.796117895923E-01  0.219582738201E+00  0.972340158608E+00
 -0.282956740986E+00 -0.574835781297E+00 -0.767788582405E+00
  0.151162484007E+00  0.891191745032E+00 -0.427699867917E+00
  0.876880624721E+00  0.464591547235E+00  0.123430402361E+00
  0.901065708328E+00  0.428578623104E+00 -0.663396796292E-01
 -0.781673383923E-01  0.996696309677E+00 -0.220529699868E-01
  0.839389790124E+00  0.235263039937E+00  0.489975593550E+00
 -0.852028645069E+00  0.521877011757E+00  0.411287318191E-01
  0.899605358293E+00  0.298541534669E+00 -0.318721118547E+00
  0.283730170193E+00 -0.321271571714E+00  0.903483130850E+00
 -0.597320041842E+00  0.779336099939E+00  0.189325146100E+00
  0.213695975311E+00  0.573583212790E+00 -0.790782099026E+00
  0.464175119099E+00 -0.200943810619E-01 -0.885515485274E+00
 -0.908839347009E+00 -0.405195252103E+00  0.991355082785E-01
  0.446121331114E+00 -0.204864585915E+00 -0.871209652933E+00
 -0.787832648594E+00 -0.265966947338E+00 -0.555500945753E+00
 -0.554013275163E+00 -0.582812063838E+00  0.594474044167E+00
  0.345813181222E+00  0.155140879264E+00  0.925388864897E+00
 -0.605129806423E+00  0.623253590479E+00 -0.495351268631E+00
 -0.124798352659E+00 -0.979348687023E+00  0.159064516473E+00
 -0.822078502005E+00 -0.341132800126E+00  0.455867688282E+00
 -0.263663699348E+00  0.561562012149E+00  0.784301957257E+00
  0.413481533576E+00  0.895590143557E+00 -0.164168560188E+00
  0.496106808607E+00  0.236516539743E+00  0.835426813600E+00
  0.540868060686E+00  0.378097084589E+00  0.751335035490E+00
  0.871842759732E+00 -0.394148693298E+00  0.290752489023E+00
  0.169917848954E+00 -0.818466787606E+00  0.548853388614E+00
  0.792354727386E+00 -0.215881400744E+00 -0.570586721544E+00
 -0.566807404477E+00 -0.366050452875E+00  0.738062620771E+00
 -0.688916877565E+00 -0.320549707520E+00 -0.650108776140E+00
  0.302750184523E+00 -0.362430575157E+00  0.881468322722E+00
 -0.664721611381E+00  0.661629881543E-01  0.744155654659E+00
  0.568887208752E+00  0.770285326132E+00 -0.288145553607E+00
 -0.833269222444E+00  0.205094636234E+00 -0.513418536007E+00
 -0.135811631964E-01  0.928170007532E+00 -0.371908576299E+00
  0.436465217566E+00  0.165292212493E+00  0.884407484333E+00
 -0.558331487760E+00 -0.172712772848E+00 -0.811440846809E+00
 -0.342932755628E+00 -0.879462560492E+00  0.330064735786E+00
  0.628342536744E+00  0.687014055600E+00  0.364962113001E+00
 -0.302698830058E+00  0.949179311261E-02 -0.953038994032E+00
 -0.879852968737E+00 -0.510940113808E-01 -0.472491434214E+00
 -0.491555928967E+00  0.640518964530E+00 -0.590006970107E+00
  0.933342496231E+00  0.267427501668E-01  0.357989678683E+00
 -0.832319478216E-01 -0.972993934250E+00  0.215302686408E+00
  0.667079669024E+00  0.535896570514E+00 -0.517512879923E+00
  0.746411817661E+00  0.543018250367E+00  0.384708432744E+00
  0.447979687658E+00 -0.774469760335E+00  0.446666306959E+00
  0.920736652653E+00 -0.953577437066E-01  0.378352900314E+00
  0.708330083983E+00 -0.691352481433E+00 -0.142478905600E+00
 -0.764792295055E+00 -0.540137557774E+00 -0.351203878262E+00
  0.553056734730E+00 -0.943720748002E-01 -0.827781468546E+00
 -0.407960014774E+00  0.575257255975E+00 -0.708976526969E+00
  0.492101760499E+00 -0.866949030517E+00  0.789635092863E-01
  0.693324460358E-01  0.769581125903E+00 -0.634773898786E+00
 -0.515839796234E+00  0.492496609901E+00  0.700968183199E+00
 -0.957138784431E-01 -0.929418843973E+00 -0.356397903953E+00
 -0.336861013313E+00  0.126993482917E+00  0.932950863125E+00
  0.257380324062E+00  0.591074588746E+00 -0.764451567677E+00
 -0.453299988830E+00  0.475418933895E+00  0.753986709047E+00
  0.329647077866E+00 -0.148689222512E+00  0.932322004011E+00
 -0.164060955617E+00 -0.409789472619E-01  0.985598665139E+00
 -0.636761421276E+00  0.354053021760E+00  0.684968138060E+00
  0.138046381830E+00  0.674266686730E-01  0.988127947594E+00
 -0.736444357148E+00  0.673859987831E+00 -0.596860588801E-01
 -0.301817920662E+00 -0.825563884956E+00  0.476812557115E+00
  0.325137053726E+00 -0.873399468145E+00 -0.362573117231E+00
 -0.472262012017E-01  0.575197844180E+00 -0.816649940899E+00
 -0.924122156044E+00  0.129390401731E-02  0.382094970551E+00
 -0.665956509741E-01  0.570059793281E+00  0.818899781021E+00
  0.471172951491E+00 -0.529746761508E+00  0.705240681226E+00
 -0.971561861531E+00  0.236481426514E+00 -0.120035050060E-01
 -0.473037549325E+00  0.836363950943E+00  0.277003282458E+00
 -0.614842362422E+00 -0.750194582570E+00 -0.243263144875E+00
  0.760508206029E+00 -0.183888227077E+00  0.622745845835E+00
 -0.722976948368E+00  0.145287062769E+00  0.675422831655E+00
  0.379275618152E+00  0.449701427082E+00  0.808652355438E+00
  0.921179723756E-01  0.963326424582E+00 -0.252024758441E+00
  0.468605119768E+00 -0.853425113799E+00 -0.228199072881E+00
 -0.608574207110E+00 -0.401643362449E+00 -0.684339129264E+00
 -0.115283083816E+00  0.666842219667E+00  0.736227726084E+00
 -0.327909807624E+00  0.942879530960E+00 -0.587651951417E-01
  0.405893029276E+00 -0.872454929923E+00  0.272164002099E+00
  0.822451519273E+00  0.543013209718E+00 -0.169440705018E+00
 -0.928393945443E-01 -0.376886040483E+00  0.921595225308E+00
 -0.514370903114E+00 -0.156340004541E+00 -0.843196523362E+00
  0.935633977846E+00 -0.138686954460E+00  0.324584331357E+00
  0.706749580738E+00 -0.509507788829E+00 -0.490822618926E+00
  0.179476209962E+00 -0.818173127762E+00  0.546242641201E+00
  0.455774662518E+00 -0.173606397516E-01  0.889925876236E+00
  0.381406177653E+00  0.160146796957E+00 -0.910429750762E+00
  0.384306973866E-01 -0.911845242443E+00 -0.408731373071E+00
  0.930578750514E+00 -0.650668450658E-01 -0.360263091039E+00
  0.894308545583E+00 -0.142952542726E+00  0.424000938472E+00
 -0.270279961349E+00 -0.292073423418E-01 -0.962338648110E+00
  0.981874557298E+00 -0.816737266311E-01 -0.171031447718E+00
 -0.663243477878E-01 -0.996086284312E+00  0.584225563945E-01
  0.423451961012E+00  0.652710774442E+00  0.628217384065E+00
  0.917605160718E+00 -0.318828709741E+00 -0.237379491254E+00
 -0.113714509078E+00  0.776572765437E+00 -0.619680361482E+00
 -0.956396381518E+00 -0.274894093117E+00  0.986873800840E-01
 -0.440623788834E+00  0.673449872612E+00 -0.593562082509E+00
  0.527572879292E+00 -0.659246262007E+00 -0.535780946904E+00
  0.688670233770E+00  0.164169063652E-01  0.724888815133E+00
  0.896670820959E+00 -0.442692730941E+00 -0.214121768936E-02
  0.294020813313E+00 -0.910435188968E+00  0.290963104239E+00
 -0.498667747322E+00 -0.864807362412E+00  0.586404612804E-01
  0.761219643737E+00 -0.558509628585E+00  0.329562814599E+00
 -0.297727132426E+00  0.676377545747E+00 -0.673700207976E+00
 -0.848172723937E-01 -0.910219771299E+00  0.405346762958E+00
  0.521021381994E+00 -0.466926258884E+00 -0.714504435445E+00
  0.417011750994E+00  0.544279470239E+00 -0.727915556784E+00
 -0.819606663047E+00  0.567985765339E+00 -0.750805451553E-01
  0.581046368344E+00  0.711784810882E+00  0.394648578905E+00
 -0.611881695881E-01  0.931864737858E+00 -0.357608890045E+00
 -0.998623459587E+00  0.314155509045E-01 -0.420029656527E-01
 -0.990175927253E+00  0.136275253913E+00  0.313159425858E-01
  0.745935427787E+00  0.565645384772E+00 -0.351604374628E+00
  0.664351168480E+00 -0.400307845485E+00 -0.631182345905E+00
  0.611937256232E+00  0.516479908226E+00 -0.598983554728E+00
 -0.117317614791E-01  0.920705221446E+00 -0.390082377165E+00
 -0.465029057265E+00 -0.599246142454E+00 -0.651653310168E+00
  0.222994660261E+00 -0.348381009743E+00 -0.910441680475E+00
 -0.695136125388E+00  0.416199568221E-01 -0.717672311278E+00
 -0.905782252245E+00 -0.423696696892E+00 -0.629448649911E-02
 -0.947648713288E+00 -0.233200829547E+00 -0.218126773466E+00
 -0.608574362392E+00  0.676015587565E+00  0.415499904703E+00
  0.178134034706E-01  0.268953964928E+00  0.962988290378E+00
  0.746157454879E+00  0.292192826238E+00  0.598224376654E+00
 -0.456975128039E-01  0.977700087368E+00 -0.204973843414E+00
  0.840246354780E+00  0.193914030416E+00 -0.506343176202E+00
  0.801219504911E+00 -0.145068659656E+00 -0.580519068538E+00
 -0.601131128711E+00  0.521026950936E+00 -0.605947425519E+00
 -0.942577615433E+00 -0.163060318574E+00 -0.291476879686E+00
  0.584202897179E+00 -0.776323964886E-01 -0.807886245670E+00
 -0.676609752717E+00  0.361577486455E+00  0.641452230348E+00
 -0.365841633964E-01  0.671588542262E+00 -0.740020559776E+00
  0.829168649305E-01  0.510983470239E+00  0.855582074761E+00
  0.624899780087E+00 -0.248211300544E+00  0.740196875925E+00
 -0.997339710505E+00 -0.495390816686E-01  0.534731824034E-01
 -0.782640277114E+00 -0.512834805911E+00 -0.352809663255E+00
 -0.626230463777E+00  0.522578806220E+00  0.578573070171E+00
  0.546316743429E+00  0.806024276651E+00 -0.227734233917E+00
  0.221095677374E+00  0.570111868174E+00 -0.791257959969E+00
  0.516816218556E+00 -0.293359043520E+00 -0.804264550893E+00
 -0.353962709609E+00 -0.845245431634E+00  0.400338057781E+00
 -0.907227574441E-01  0.233465587666E+00 -0.968123546174E+00
 -0.946096507219E+00 -0.118188932977E+00 -0.301550617889E+00
  0.411693515093E-01  0.954798607652E+00 -0.294388694283E+00
  0.180443739167E-01  0.450471019980E+00 -0.892608682866E+00
 -0.290932150034E+00 -0.271910950528E+00  0.917291076518E+00
 -0.998275191299E+00 -0.281993208186E-01  0.514921425320E-01
  0.491900498544E+00 -0.770550874563E+00 -0.405321168016E+00
  0.748189883964E+00  0.618956087410E+00 -0.238967067589E+00
 -0.405948473648E+00 -0.598894501683E+00  0.690312402175E+00
 -0.444296636999E+00 -0.269704567925E+00  0.854318409255E+00
 -0.487244617083E+00  0.379503934655E+00  0.786491860546E+00
  0.809436178163E+00  0.874464575826E-01 -0.580660133414E+00
  0.243722150937E+00 -0.278872857652E+00  0.928886129947E+00
[...]
CELL_DATA                 996
SCALARS C_p_inc float 1
LOOKUP_TABLE default
  0.804845093213E+00
 -0.110572566478E+01
  0.929714393498E+00
 -0.721992455802E+00
 -0.340912463508E+00
  0.650671102634E+00
  0.526314660055E+00
  0.400173332472E-02
 -0.105431779588E+01
 -0.140055996927E+00
 -0.170753269951E+00
 -0.597109162238E-01
 -0.741934288600E-01
  0.700532150583E+00
 -0.111345757037E+01
 -0.117269656132E+01
 -0.131699860005E+01
 -0.677604670757E+00
 -0.879977325479E+00
 -0.567026812266E+00
 -0.623865194172E+00
 -0.239256211776E+00
  0.766943744476E+00
 -0.620019299929E+00
 -0.851075926582E+00
 -0.921675093332E+00
 -0.116000598505E+01
  0.929139133877E+00
  0.499136273037E+00
  0.530360048937E+00
  0.910250442540E+00
  0.885903446058E+00
 -0.163826865848E+00
 -0.683907661005E+00
 -0.600590784840E+00
 -0.345272425258E+00
 -0.233972285567E+00
  0.991367137594E+00
  0.870565423503E+00
  0.537226521541E+00
  0.870745871234E+00
  0.770065192234E+00
  0.559828853397E-02
  0.434341383845E-01
 -0.508707800747E-01
 -0.136412472389E+01
 -0.102238878983E+01
 -0.146242172456E+01
 -0.151277071837E+01
 -0.785343904335E+00
 -0.102628682972E+01
 -0.605051275882E+00
 -0.110909192518E+01
 -0.105361822959E+01
 -0.516293350898E+00
  0.365693189516E+00
  0.811552686704E+00
 -0.344125975183E+00
 -0.362995628494E+00
 -0.988754947174E+00
 -0.113100853732E+01
 -0.553346964029E+00
 -0.809317986199E+00
 -0.107151652219E+01
 -0.160858034695E+00
 -0.115494508468E+01
 -0.141130006397E+01
 -0.112227577731E+01
 -0.242840108768E+00
 -0.715762861581E+00
 -0.555443515130E+00
 -0.103050593909E+01
 -0.134970081969E+01
 -0.106924544732E+01
 -0.127574923540E+01
 -0.132149421245E+01
 -0.372313991411E+00
 -0.135282182248E+01
 -0.965702496757E+00
 -0.128837760537E+01
 -0.110578629548E+01
 -0.794753950874E-01
 -0.235878134077E+00
 -0.463654909556E+00
 -0.358881152005E+00
 -0.750810210848E+00
 -0.748808762608E+00
  0.157875410759E+00
  0.358477282487E+00
  0.191679879459E+00
 -0.829057298101E-02
 -0.159104874259E+00
  0.813921319166E+00
  0.834063376391E+00
  0.907390695904E+00
  0.590061202014E+00
  0.592932662647E+00
 -0.378698389328E+00
 -0.204376905341E+00
 -0.357488324498E+00
 -0.414450896005E+00
 -0.419494600779E+00
 -0.628793820777E+00
 -0.141004457605E+01
 -0.109307253931E+01
 -0.117407613145E+01
 -0.109440367546E+01
 -0.103585873240E+01
 -0.467898880201E+00
  0.469543621583E-01
 -0.117606364402E+01
 -0.124026218829E+01
 -0.104505635330E+01
 -0.968111307455E+00
 -0.787346761500E+00
 -0.871972581606E+00
 -0.101770898586E+01
 -0.824274151328E+00
 -0.106022940988E+01
 -0.563422434584E+00
 -0.511365297878E+00
 -0.109917317156E+01
 -0.106119441079E+01
 -0.987030303617E+00
 -0.964321213886E+00
 -0.745428793877E+00
 -0.939643030180E+00
 -0.778751563575E+00
 -0.228366831712E+00
  0.773431780234E+00
  0.932210735173E+00
  0.920979663840E+00
  0.452389440121E+00
  0.203157493877E+00
 -0.213000885471E+00
  0.541629551070E+00
  0.674101776286E+00
  0.688008249918E+00
  0.880006338147E+00
  0.703927330023E+00
  0.867569305055E+00
  0.525995741962E+00
  0.506837043969E+00
  0.474331413021E+00
  0.905678957398E+00
  0.941203087781E+00
  0.973365913597E+00
  0.994076604514E+00
  0.994423873059E+00
 -0.178430710848E+01
 -0.114858683662E+01
 -0.128635617136E+01
 -0.128489562873E+01
 -0.887424483509E+00
 -0.944724486384E+00
 -0.837395312488E+00
 -0.324943293799E+00
 -0.592654206395E+00
 -0.335260056684E+00
 -0.100397404169E+01
 -0.367545062159E+00
 -0.321795298870E+00
 -0.272648107466E+00
 -0.360403035318E+00
  0.985630388330E+00
  0.900191102181E+00
  0.929601548562E+00
  0.273631769099E+00
  0.977487112530E-01
  0.178426117379E+00
 -0.134645952318E+00
 -0.424095189033E-01
 -0.141222207578E+01
 -0.109110829301E+01
 -0.102418562814E+01
 -0.103914978080E+01
 -0.489934252214E+00
  0.987184972773E-01
  0.256558954722E+00
  0.392854894231E+00
 -0.101096861967E+01
 -0.104409884046E+01
 -0.835467942692E+00
 -0.984685534429E+00
 -0.808790975361E+00
 -0.616404087245E+00
 -0.557444163556E+00
 -0.487700688916E+00
 -0.630978186638E+00
 -0.534141454858E+00
 -0.596213360265E+00
 -0.277448005791E+00
 -0.895365447624E+00
 -0.884476525613E+00
 -0.103840741800E+01
 -0.118379821179E+01
 -0.446342936120E-01
  0.166914077353E+00
  0.664618572847E-01
 -0.214949431445E-01
 -0.118686989329E+01
 -0.898432846479E+00
 -0.129081725101E+01
 -0.165539292593E+01
 -0.109700320615E+01
 -0.719659136802E+00
 -0.779821245269E+00
 -0.117986568878E+01
 -0.928766740054E+00
 -0.100956536290E+01
 -0.100867842987E+01
 -0.114515981626E+01
 -0.117731149033E+01
 -0.121512583291E+01
 -0.114874769315E+01
 -0.103577585696E+01
 -0.125870774697E+01
 -0.125564403985E+01
 -0.135480109630E+01
 -0.105699999527E+01
 -0.142945206084E+01
 -0.113328942946E+01
 -0.126343094254E+01
 -0.138394861163E+01
 -0.102932595259E+01
 -0.942979324431E+00
 -0.425699459392E+00
 -0.658137585962E+00
 -0.394943272818E+00
  0.117988842950E+00
 -0.622968462417E+00
 -0.416003344841E+00
 -0.152390753091E+00
 -0.102143447836E+01
 -0.115540692457E+01
 -0.108429937011E+01
 -0.105507505606E+01
 -0.110446539506E+01
 -0.923852392689E+00
 -0.962293212369E+00
 -0.975318342904E+00
 -0.100383774054E+01
 -0.884199719044E+00
 -0.874309781824E+00
 -0.134192456666E+01
 -0.102031196444E+01
 -0.106418458853E+01
 -0.938129171072E+00
 -0.107657332627E+01
 -0.935256683129E+00
 -0.419060510033E+00
 -0.132754538252E+01
 -0.921404337434E+00
 -0.949871984989E+00
 -0.114211395728E+01
 -0.674694970228E+00
 -0.755055843589E+00
 -0.779911982253E+00
 -0.653062634711E+00
 -0.699671859643E+00
 -0.118127420343E+01
 -0.880089768468E+00
 -0.858000101252E+00
 -0.135999181240E+01
 -0.149578778879E+01
  0.548416903900E+00
  0.510989714555E+00
  0.579417377907E-01
  0.313662591793E+00
  0.240208352930E+00
  0.831678771905E+00
  0.835415286094E+00
  0.998969564210E+00
  0.995496468506E+00
  0.811525351719E+00
  0.672357085089E+00
 -0.382323832042E+00
 -0.386851239171E+00
 -0.232352163777E+00
 -0.107968624528E+01
  0.169361582888E+00
 -0.169800170712E+00
  0.551840841073E+00
  0.548924433442E+00
  0.631669623711E+00
 -0.616524487297E+00
 -0.715550038589E+00
 -0.631768541968E+00
 -0.984516894581E+00
 -0.122941394092E+01
 -0.115193154182E+01
 -0.126445497757E+01
 -0.973628752485E+00
 -0.123002468997E+01
 -0.124852872709E+01
 -0.118421449177E+01
 -0.109303356060E+01
 -0.125765608146E+01
  0.158805315613E+00
  0.108521680957E+00
 -0.509336636705E-01
 -0.100804739411E+00
  0.394953881005E+00
  0.489133710793E+00
 -0.101565121153E+01
 -0.466476837617E+00
 -0.400858487177E+00
 -0.770997321380E+00
 -0.764728854254E+00
 -0.391635598842E+00
 -0.123054731810E+01
 -0.124352725469E+01
 -0.111775312808E+01
 -0.111429837548E+01
 -0.810979579880E+00
 -0.901517831713E+00
 -0.111752064992E+01
 -0.548341081808E+00
 -0.692974349271E+00
 -0.759062642808E+00
 -0.503855177497E+00
 -0.398823779040E+00
 -0.689511352384E+00
 -0.100192377681E+01
 -0.479319089499E+00
 -0.546964786845E+00
 -0.782556375342E+00
 -0.696858149038E+00
 -0.161973749855E+01
 -0.109452184369E+01
 -0.117860594566E+01
 -0.110326778129E+01
 -0.502731855758E+00
 -0.757508369966E+00
 -0.224801961625E+00
 -0.179617175573E+00
 -0.621696895026E+00
 -0.551476579365E+00
  0.931414453328E+00
  0.827720944717E+00
  0.883322969810E+00
  0.857999953372E+00
  0.300687823345E+00
  0.166958526814E+00
 -0.168769886638E+00
 -0.209599267404E+00
  0.417686185902E+00
  0.655987369195E-01
  0.483143393161E-01
 -0.124887698314E+01
 -0.113628420147E+01
 -0.739978673143E+00
 -0.748008640019E+00
 -0.546723546294E+00
 -0.636008817111E+00
 -0.664895416657E+00
 -0.690147700531E+00
 -0.647883860174E+00
 -0.657473185360E+00
 -0.466848504916E+00
 -0.594676648924E+00
 -0.125085612554E+01
 -0.122115680222E+01
 -0.127734316013E+01
 -0.122321373279E+01
 -0.118362501321E+01
 -0.103900097644E+01
 -0.116254533847E+01
 -0.115283618608E+01
 -0.278624178817E+00
 -0.372819282737E+00
 -0.122225800398E+01
 -0.141946458626E+01
 -0.646183302265E+00
 -0.571198664472E+00
 -0.494669209581E+00
 -0.478896013080E+00
 -0.718284653822E+00
 -0.608578681397E+00
 -0.504612691723E+00
  0.789509786812E+00
  0.824783062305E+00
  0.859475190650E+00
  0.651358552410E+00
  0.401223921052E+00
  0.138791849547E+00
  0.526669778569E+00
 -0.280149479672E+00
 -0.304370398123E+00
  0.558411852709E+00
  0.533082834696E+00
  0.703417753723E+00
  0.683836929286E+00
  0.625239004892E+00
  0.680287760861E-01
  0.323264774738E+00
  0.493777998898E+00
  0.489685570974E+00
 -0.506128019532E+00
  0.336862423353E+00
  0.378101297647E+00
 -0.679758891426E+00
 -0.462828423498E+00
 -0.920493704812E-03
  0.103839848344E+00
 -0.879330277936E+00
 -0.877636085123E+00
 -0.104540021538E+01
 -0.996351689727E+00
 -0.989887914816E+00
  0.875221885689E+00
  0.998736884719E+00
  0.947203365170E+00
 -0.103877121169E+01
 -0.703294421658E+00
 -0.758337005561E+00
 -0.395686710028E+00
 -0.472049179308E+00
 -0.447581960630E+00
 -0.118220312258E+01
 -0.117826635349E+01
 -0.135048512699E+01
 -0.117047439536E+01
 -0.109489022237E+01
 -0.685524395513E+00
 -0.776589611737E+00
 -0.986281254279E-01
 -0.175025525017E+00
 -0.409585419187E+00
 -0.313726331192E+00
 -0.386015772299E+00
 -0.348030033864E+00
 -0.112804159216E+01
 -0.124283142897E+01
 -0.124672109550E+01
 -0.113628234960E+01
 -0.112814495049E+01
 -0.110225537157E+01
 -0.960869269221E+00
 -0.960942667483E+00
 -0.147040541087E+01
 -0.117764528634E+01
 -0.153869689927E+01
 -0.107776077599E+01
 -0.114870324043E+01
 -0.111214507380E+01
 -0.112942050702E+01
 -0.118372718712E+01
 -0.119501997195E+00
  0.464578884585E-02
 -0.249017774915E+00
 -0.107806067649E+00
 -0.371823635498E+00
  0.485115214631E+00
  0.170760180508E+00
  0.559594721745E-01
 -0.953867552184E+00
 -0.936110254410E+00
 -0.896992519061E+00
 -0.670218103457E+00
 -0.123665376940E+01
 -0.159280378514E+01
 -0.119171536165E+01
 -0.155621145246E+01
 -0.143654912472E+01
 -0.136476338062E+01
 -0.108744806508E+01
 -0.108563812128E+01
 -0.113071620689E+01
 -0.111468571286E+01
 -0.109598108823E+01
 -0.123874277451E+01
  0.107024633929E+00
  0.286194543780E-01
 -0.979648591740E-01
 -0.117334434322E+01
 -0.912976713453E+00
 -0.769248080452E+00
 -0.709431535198E+00
 -0.119327076983E+01
 -0.139712995479E+01
 -0.114140429133E+01
 -0.121404673505E+01
 -0.127658539355E+01
 -0.182998711585E+01
 -0.915815740730E+00
 -0.902789836899E+00
 -0.978164535658E+00
 -0.109305152779E+01
 -0.112729686650E+01
  0.357869395739E+00
  0.165868079938E+00
  0.358414204265E+00
  0.437721134670E+00
 -0.420714606717E+00
 -0.630648253901E+00
 -0.464814215009E+00
 -0.900451634698E+00
 -0.100286218366E+01
 -0.100666757973E+01
 -0.725078028948E+00
 -0.123482353062E+01
 -0.849326439894E+00
 -0.246314730657E+01
 -0.771197022819E+00
 -0.853523609304E+00
 -0.103245755967E+01
 -0.984579045109E+00
 -0.107872980993E+01
 -0.107573861188E+01
 -0.115191740985E+01
 -0.907790199045E+00
 -0.693453920696E+00
 -0.778338186753E+00
 -0.903839904243E+00
 -0.577933608018E+00
 -0.584720983605E+00
 -0.109452453066E+01
 -0.129463348416E+01
 -0.140831125055E+01
 -0.106159184479E+01
 -0.108565774628E+01
 -0.109632697367E+01
 -0.696088396104E+00
 -0.117600489583E+01
 -0.101210557726E+01
 -0.661728408006E+00
 -0.605405158345E+00
 -0.526013974470E+00
 -0.887507908418E+00
 -0.707340409987E+00
 -0.276377941907E+00
 -0.353771529181E+00
 -0.243633477638E+00
 -0.138140058929E+00
  0.496421226383E-02
 -0.256057860059E-01
  0.172233155742E+00
  0.766717841849E-01
  0.770453904656E-01
  0.483428025794E+00
  0.725262504481E+00
  0.373965520571E+00
  0.330317031532E+00
  0.719340755245E+00
  0.592655658330E+00
  0.642442052381E+00
 -0.635881522586E+00
 -0.971996929660E+00
 -0.106216193742E+01
 -0.629721447720E+00
 -0.792052095838E+00
 -0.909800422804E+00
 -0.111812740308E+01
 -0.111484728316E+01
 -0.629405020908E+00
 -0.614834831267E+00
 -0.112009291055E+01
 -0.114828131754E+01
 -0.116524790075E+01
 -0.992825243065E+00
 -0.106909070371E+01
 -0.115400464769E+01
 -0.110633393116E+01
 -0.973833097326E+00
 -0.103735705530E+01
 -0.103566363667E+01
 -0.124516045149E+01
 -0.138942524544E+01
 -0.136086933065E+01
 -0.126903275084E+01
 -0.120061398707E+01
 -0.108312146274E+01
 -0.121196990639E+01
 -0.119604242397E+01
 -0.110647041343E+01
 -0.112250345006E+01
 -0.815799295962E+00
 -0.784607676744E+00
 -0.993091950250E+00
 -0.104593479326E+01
 -0.966293218542E+00
 -0.918845231929E+00
  0.474680178350E+00
  0.717064332887E+00
  0.318780111296E+00
  0.288564108299E+00
  0.320536648839E+00
  0.354574203781E+00
  0.600129412373E+00
  0.616335970417E+00
  0.101924218837E-02
  0.963099601810E-01
 -0.845600100219E-01
 -0.212823963484E+00
 -0.287496340534E+00
 -0.284735542187E+00
 -0.847697195154E-02
 -0.260169340501E+00
 -0.197454293214E+00
  0.454307812417E+00
  0.134252832854E+00
 -0.662240880308E+00
 -0.545775465316E-01
  0.229060745867E+00
 -0.397998950849E-01
 -0.496154433659E-01
 -0.137646333805E+00
  0.355570091452E+00
  0.586158357670E+00
  0.362709281583E+00
 -0.533233204856E+00
 -0.516323799322E+00
 -0.787871645318E+00
 -0.125936676577E+01
 -0.111719927522E+01
 -0.126808799807E+01
 -0.108864277632E+01
 -0.755355350661E+00
 -0.741679706197E+00
 -0.116429701769E+01
 -0.112247095198E+01
  0.429368514585E+00
  0.542673646173E+00
  0.527132110986E+00
  0.790587253156E+00
  0.862074408433E+00
 -0.104071121491E+01
 -0.905324381195E+00
 -0.110673004674E+01
 -0.235017597123E+00
  0.576526633029E-01
  0.105346684263E+00
 -0.187469498035E-01
 -0.867024614596E-01
  0.372632869980E+00
  0.371871898702E+00
  0.173150147881E+00
  0.144274980533E-01
 -0.745513917675E+00
 -0.809702352098E+00
 -0.869626688766E+00
 -0.102349464782E+01
 -0.965491072566E+00
 -0.913354082469E+00
 -0.644201118059E+00
 -0.457699676582E+00
 -0.407901569984E+00
 -0.742440625590E+00
 -0.734912203717E+00
 -0.878599004303E+00
 -0.108074747039E+01
 -0.125850736893E+01
 -0.124581796193E+01
 -0.119662714854E+01
 -0.140817189699E+01
 -0.114444803735E+01
 -0.145342519638E+01
 -0.129606990433E+01
 -0.112718805343E+01
 -0.158619711759E+01
 -0.114601631090E+01
 -0.153028394312E+01
 -0.128432751847E+01
  0.146096321163E+00
  0.143649069974E+00
  0.444618599321E+00
  0.564942101184E+00
  0.470201304757E+00
 -0.231046418227E-01
 -0.282248123677E-01
 -0.719874524497E-01
 -0.171625929038E+01
 -0.180740314504E+01
 -0.116059673059E+01
 -0.101996392111E+01
 -0.105378747548E+01
 -0.960352819087E+00
 -0.102083654524E+01
 -0.468187620591E+00
 -0.489469385404E+00
 -0.572116457314E+00
 -0.900521115709E+00
 -0.937335217425E+00
 -0.881582151265E+00
 -0.303605335231E+00
 -0.437942857033E+00
 -0.333118133846E-01
 -0.819286782257E-02
 -0.237718016034E+00
 -0.266926683090E+00
 -0.308742441814E+00
 -0.142127278793E+00
 -0.217803454872E+00
 -0.183082669153E+00
 -0.411449387930E-01
 -0.492870317923E-01
  0.332841930761E+00
  0.400269424190E-01
  0.380182960434E-01
  0.104056386666E+00
  0.425668450453E+00
  0.433742299012E+00
 -0.286257063364E+00
 -0.458397898746E-01
 -0.125850315484E+01
 -0.123958678319E+01
 -0.125540792477E+01
 -0.853094977631E+00
 -0.100682755052E+01
 -0.102768668729E+01
 -0.105742319775E+01
 -0.619992553952E+00
 -0.654443904272E+00
 -0.849568034988E+00
 -0.103772959325E+01
 -0.929658878867E+00
 -0.111200326674E+01
 -0.593542320645E+00
 -0.676426486036E+00
 -0.696818970917E+00
 -0.111853372271E+01
 -0.111804618217E+01
 -0.105771393091E+01
 -0.114884088596E+01
 -0.111506018533E+01
 -0.112023994336E+01
 -0.106030118190E+01
 -0.127948020573E+01
 -0.109621474829E+01
 -0.155823688350E+01
 -0.104346160487E+01
 -0.152622370049E+01
 -0.142469784913E+01
 -0.109947827889E+01
  0.442088765305E+00
  0.446445295974E+00
  0.671101442061E+00
  0.807310823445E+00
  0.792076182382E+00
  0.789264079744E+00
  0.173011086775E+00
  0.233772142959E+00
 -0.127003538200E+00
  0.353561189970E-01
  0.220055843973E+00
  0.280530494050E+00
  0.241736391440E+00
  0.555890451994E+00
  0.516261493778E+00
  0.507830062638E+00
  0.297507829360E+00
 -0.753296606292E+00
 -0.137519578835E+01
 -0.961288395970E+00
 -0.132333537718E+01
  0.794586743096E-01
 -0.126178613590E+00
 -0.656512099255E-01
 -0.301916519321E+00
 -0.354887102964E+00
 -0.441576999465E+00
  0.137336593508E+00
  0.177832345930E+00
 -0.155847887705E+00
 -0.398148048441E+00
 -0.338502525491E+00
  0.594804999421E+00
  0.441877914757E+00
  0.194831199676E+00
 -0.664858600913E+00
 -0.695216437507E+00
 -0.926084731744E+00
 -0.910051077588E+00
 -0.982983970855E+00
 -0.991236466378E+00
 -0.399486156135E+00
 -0.997664381392E-01
 -0.162043528821E+00
 -0.609165838212E+00
 -0.188754873025E+00
 -0.827150181510E+00
 -0.602643670237E+00
 -0.691385041250E+00
 -0.834226244811E+00
 -0.909696255687E+00
 -0.121083807681E+01
 -0.107042384620E+01
 -0.102905295642E+01
 -0.101235758187E+01
 -0.115211261216E+01
 -0.709525360500E+00
 -0.836259389287E+00
 -0.124136508092E+01
 -0.121870708708E+01
 -0.119952516115E+01
 -0.119038802940E+01
 -0.133976999706E+01
 -0.124956124967E+01
 -0.133809709634E+01
 -0.128786412597E+01
 -0.143738724174E+01
 -0.133273187770E+01
 -0.128573285091E+01
 -0.143887248889E+01
 -0.116885304365E+01
 -0.126663940434E+01
 -0.103819094452E+01
 -0.139528176768E+01
 -0.132236471914E+01
 -0.104245578398E+01
 -0.144354800903E+01
 -0.169756135098E+01
 -0.116871192715E+01
 -0.139237040077E+01
 -0.114186443956E+01
 -0.143485382184E+01
 -0.114311257181E+01
 -0.751217705792E-01
 -0.979427261282E-01
  0.679510922918E+00
  0.429452790504E+00
  0.620253011877E+00
  0.533005810996E+00
  0.522403297241E+00
  0.156531681188E+00
  0.163616816670E-02
 -0.138110708528E-01
  0.653261785564E-02
  0.402630098183E+00
  0.766583014960E+00
  0.745950376463E+00
  0.928331563282E+00
  0.959019116719E+00
  0.868337363200E+00
  0.797433079115E+00
 -0.322581699602E-02
  0.125359683680E+00
  0.105293057392E+00
  0.312383984364E+00
  0.455673387410E+00
  0.425583167931E+00
 -0.754439397931E+00
 -0.668343090070E+00
 -0.454808221270E-01
 -0.101727931894E+00
 -0.561350949494E+00
 -0.548959781954E+00
  0.329318296879E+00
  0.261872716324E+00
  0.315419205599E+00
 -0.124020219295E+00
  0.607934824733E+00
  0.774314317097E+00
  0.582032322581E+00
  0.572677780989E+00
  0.810197071408E+00
  0.842942905113E+00
 -0.150691069126E+01
 -0.123543777616E+01
 -0.125541688075E+01
 -0.129740295118E+01
 -0.136795124407E+01
 -0.310256539236E+00
 -0.265379467064E+00
 -0.166745151301E+00
 -0.145762235659E+00
 -0.215288632613E+00
 -0.725745481385E+00
 -0.817791937266E+00
 -0.743505118009E+00
 -0.760489980815E+00
 -0.827580006581E+00
 -0.661761771919E+00
 -0.812214395381E+00
 -0.102771855643E+01
 -0.900235542522E+00
 -0.116259069527E+01
 -0.907652661950E+00
  0.224101537063E+00
 -0.129262155793E+00
 -0.162729300507E+00
 -0.184948288965E+00
 -0.114812402229E+00
 -0.196661921135E+00
  0.774035188370E-01
  0.960614311477E-01
  0.285132188030E+00
  0.202956220981E+00
  0.428130516100E+00
  0.406237229296E+00
  0.234901011910E+00
  0.255427837813E+00
  0.275949024631E+00
  0.281331910594E+00
  0.466488138306E+00
  0.612304603848E+00
  0.712350082127E+00
  0.584224473389E+00
 -0.100499667865E+01
 -0.102981289040E+01
 -0.112654682480E+01
 -0.107472839716E+01
 -0.108110546010E+01
 -0.101232487429E+01
 -0.122204194324E+01
 -0.122436712122E+01
 -0.111516537386E+01
 -0.121737733627E+01
 -0.139996527810E+01
 -0.127038982184E+01
 -0.121174352785E+01
 -0.119650543589E+01
 -0.127623500160E+01
 -0.114884078687E+01
 -0.103848727901E+01
 -0.959389748698E+00
 -0.987871208179E+00
 -0.163936264657E+01
 -0.107423707675E+01
  0.566185618251E+00
  0.520854253307E+00
  0.239506780591E+00
  0.226443546620E+00
  0.242614627262E+00
  0.251022107845E+00
  0.298383149338E+00
 -0.766470463508E+00
 -0.744111047298E+00
 -0.700470810178E+00
 -0.446100528084E+00
 -0.429633800862E+00
 -0.499757244678E+00
 -0.126858570046E+01
 -0.132137309969E+01
 -0.150008618178E+01
 -0.142456299681E+01
 -0.134683224847E+01
 -0.390756982976E+00
 -0.352387431141E+00
 -0.665573179746E+00
  0.320872784318E+00
  0.250768975238E+00
  0.102298025001E+00
  0.927927271176E-01
 -0.965988226177E+00
 -0.999251847659E+00
 -0.933330889656E+00