# vtk DataFile Version 3.0
MachLine results file. Generated by MachLine, USU AeroLab (c) 2022.
ASCII
DATASET POLYDATA
POINTS                2000 float
 -0.486448956359E+00 -0.498786784197E+00 -0.717341729421E+00
  0.311267174775E+00 -0.264526050148E+00  0.912764325936E+00
 -0.391636165992E+00  0.165713193969E+00 -0.905074721131E+00
  0.378488683088E+00 -0.811530965240E+00  0.445155938106E+00
 -0.157538438224E-01 -0.864017680124E+00  0.503214929070E+00
 -0.293533880879E-01 -0.754712228343E+00 -0.655398986112E+00
 -0.880793132616E+00 -0.346379603842E+00 -0.322838392356E+00
  0.523767114821E+00 -0.850794554275E+00  0.426220113000E-01
 -0.969639200638E+00  0.195328814341E+00  0.147127410346E+00
 -0.398180499144E-01  0.985650238137E+00 -0.164036980469E+00
 -0.668919431993E+00 -0.731283185323E+00 -0.133310526089E+00
 -0.855436149663E+00  0.439379794101E+00  0.274179485714E+00
  0.642535708765E+00  0.521318136985E+00 -0.561582819371E+00
  0.180017649007E+00 -0.717204828282E+00  0.673209388181E+00
 -0.791343925903E+00 -0.588774258724E+00 -0.164680488219E+00
 -0.683856334783E+00  0.191758637971E-01  0.729364654768E+00
  0.484164196104E+00 -0.108722950997E+00  0.868196032666E+00
  0.591045760177E+00  0.638897371790E+00 -0.492417564367E+00
 -0.702602093707E+00 -0.198622356104E+00  0.683300415319E+00
  0.362937881089E+00  0.885810894238E+00 -0.289162850517E+00
 -0.861858195747E+00  0.177858038574E+00  0.474938910322E+00
 -0.736234140843E+00  0.431721761686E+00 -0.521129168579E+00
  0.617357060183E+00  0.345525558160E+00 -0.706740651796E+00
  0.726748221075E+00 -0.381636210803E+00  0.571131180876E+00
 -0.684503200288E+00 -0.324427021409E+00  0.652841846526E+00
  0.304708246912E-01  0.101121898043E+00 -0.994407306177E+00
  0.545250702089E+00 -0.267716697495E+00 -0.794373615973E+00
 -0.482703697773E-01 -0.432561944914E+00 -0.900311132450E+00
  0.787457458066E-02  0.856836572833E+00  0.515527960960E+00
 -0.562433894017E+00  0.252057025160E+00 -0.787486743335E+00
  0.738262511848E+00 -0.130448696467E+00 -0.661779118128E+00
  0.760167152490E+00  0.525925476363E+00 -0.381507920741E+00
 -0.369691732565E+00  0.723158436847E+00 -0.583412288258E+00
  0.940651472842E-01 -0.957826480190E+00 -0.271514607183E+00
  0.792151292006E+00  0.354009546181E+00  0.497165537609E+00
  0.569373365875E-01 -0.539632241365E+00  0.839973323256E+00
  0.830267012028E+00 -0.461655881268E+00  0.312298792870E+00
  0.658298948721E+00 -0.231301806018E+00 -0.716339283193E+00
  0.485526863974E+00 -0.832750660575E+00  0.266063905241E+00
 -0.675842637111E+00  0.678379361704E+00 -0.288163445767E+00
 -0.728892868699E+00  0.683704336271E+00  0.355466809143E-01
 -0.251491823454E+00 -0.767264130791E+00 -0.589964080549E+00
 -0.790786607131E+00  0.248487809868E+00  0.559383902459E+00
 -0.399844821291E+00  0.400905113158E+00 -0.824256761653E+00
 -0.265808413571E+00 -0.285466372987E+00 -0.920790332904E+00
 -0.151205307810E+00  0.988002117514E+00 -0.314447241779E-01
 -0.221695493084E+00  0.804716012607E+00 -0.550711582772E+00
  0.747539041855E+00 -0.447179436892E+00  0.491137386199E+00
  0.278205570736E+00 -0.816703978014E-01  0.957043158136E+00
 -0.425582170881E+00  0.632518271592E+00 -0.647147936666E+00
  0.925328034772E+00 -0.379149598995E+00  0.368912549576E-02
  0.214679982298E+00 -0.533240956644E+00 -0.818270485450E+00
  0.676999953587E+00 -0.487039822029E+00  0.551781908549E+00
 -0.258650154280E+00 -0.689949462451E+00 -0.676069402469E+00
 -0.546714069469E-03 -0.995195913571E+00 -0.979019648161E-01
 -0.411836159109E+00  0.854387346566E+00 -0.316880482324E+00
 -0.873305502671E+00  0.172899482247E+00 -0.455459403288E+00
 -0.104639888416E+00  0.862752358067E+00 -0.494680566024E+00
  0.132746796750E+00 -0.698599974008E+00  0.703090580416E+00
 -0.458843170078E+00  0.888138179301E+00  0.259522588736E-01
  0.168647844102E+00  0.899999590442E+00 -0.401943580473E+00
 -0.231503725303E+00 -0.854761358063E+00 -0.464530995664E+00
  0.541974105996E+00 -0.731688821756E+00 -0.413395133675E+00
 -0.354982800963E+00  0.697302771026E+00  0.622700615497E+00
  0.576571570728E+00 -0.791827764921E+00 -0.201429924612E+00
  0.281659950109E+00 -0.526476957305E+00 -0.802178088663E+00
  0.748210459152E+00 -0.635597197985E+00 -0.190255908525E+00
  0.549800284987E-01  0.941271793733E+00 -0.333143522807E+00
  0.229014329677E-01  0.771716424082E+00 -0.635554313313E+00
 -0.979917488919E+00 -0.173244955642E+00 -0.987314552518E-01
 -0.907049995086E+00  0.339385450337E+00 -0.249154214320E+00
  0.763332605721E+00 -0.645997951544E+00 -0.315905748865E-02
  0.514768898801E+00  0.126380247010E+00  0.847962861211E+00
  0.367446626560E-01  0.577203991516E+00  0.815772873994E+00
  0.474828935687E+00  0.245642136117E+00 -0.845102019166E+00
  0.724477938933E+00  0.675522977746E+00 -0.137114632831E+00
 -0.554503127778E+00 -0.194373747495E+00 -0.809163226778E+00
  0.588174682871E+00  0.660218619976E+00  0.467078062282E+00
  0.697656523463E+00  0.602431019712E+00 -0.387752810122E+00
  0.429907468880E+00  0.779558778326E+00 -0.455486201038E+00
  0.193599969814E+00 -0.122330019893E+00 -0.973424068904E+00
 -0.666659637803E+00  0.269414440965E+00 -0.694968190872E+00
  0.697740988447E-01  0.606155181381E+00 -0.792279919735E+00
 -0.745557178229E+00 -0.664001617995E+00 -0.569767083332E-01
  0.490383067032E+00  0.870043368565E+00  0.504874675935E-01
  0.487700355371E+00  0.125574185720E+00 -0.863932571010E+00
  0.317619624652E+00 -0.768844623471E+00  0.554973620089E+00
 -0.496933890259E+00 -0.211869029346E+00  0.841527315728E+00
  0.742571614463E+00 -0.666222092727E+00  0.688151186557E-01
 -0.577035511351E+00 -0.356998559250E+00  0.734562487018E+00
 -0.652788678819E+00  0.569898599172E+00 -0.499081684164E+00
 -0.770459767722E+00  0.100767157166E+00 -0.629474166554E+00
  0.390103038053E+00  0.975053396113E-01 -0.915593975761E+00
 -0.446213365335E+00  0.873043879439E+00  0.196692697298E+00
  0.622084748702E+00 -0.621371123271E+00 -0.476349128893E+00
 -0.515861430202E+00 -0.855486178205E+00 -0.450597795146E-01
 -0.579627225381E+00 -0.814369954148E+00  0.288765887508E-01
 -0.553856646112E-01 -0.943332344664E+00  0.327194919988E+00
  0.151119456185E+00  0.961262626775E+00 -0.230514798500E+00
 -0.197100119781E+00  0.980242095460E+00  0.166426281134E-01
  0.397952676707E+00  0.907753177731E+00  0.132732194369E+00
  0.287228940635E+00  0.520792062126E+00  0.803912410458E+00
 -0.414376300176E+00  0.718178209062E+00  0.559028033180E+00
 -0.473848975267E+00  0.880602851356E+00 -0.240142102269E-02
  0.667016128536E+00 -0.325687172280E+00 -0.670087568968E+00
 -0.177021682808E+00 -0.761827663700E+00 -0.623122728391E+00
  0.849779542955E+00 -0.299851332954E+00 -0.433548044052E+00
  0.737098204606E+00 -0.675784434482E+00 -0.127862376732E-02
  0.903969046977E+00  0.641451592319E-01  0.422759223028E+00
  0.438064546016E+00  0.891685479770E+00 -0.114002011783E+00
 -0.641887918826E+00 -0.576543879625E+00 -0.505546293164E+00
  0.987691392386E+00 -0.115722524609E+00  0.105233125508E+00
 -0.886523632443E+00 -0.248487482909E+00 -0.390294529757E+00
 -0.637443159348E+00 -0.759508615500E+00 -0.129664496227E+00
  0.973802712995E+00  0.205938028728E-01 -0.226460087976E+00
  0.752786114491E+00  0.657203756143E+00 -0.373669471671E-01
  0.287975404159E+00 -0.246231316211E+00  0.925440600750E+00
 -0.947643556012E+00 -0.616241169692E-01 -0.313327558565E+00
 -0.681904089344E+00  0.528879894260E+00  0.505265148594E+00
  0.892170322754E+00 -0.125284680762E+00 -0.433976801182E+00
 -0.674918813841E+00  0.774716386969E-01 -0.733813831923E+00
 -0.834337224677E+00 -0.218403012548E-01 -0.550821565264E+00
 -0.716481430683E+00 -0.654028378418E+00 -0.242695776046E+00
 -0.771203584876E+00 -0.630913021228E+00  0.848162149517E-01
  0.305131391516E+00  0.568673269977E-01 -0.950610825223E+00
  0.384791548900E+00 -0.149429163287E-01 -0.922882534858E+00
 -0.418401490140E+00 -0.509545514779E+00  0.751866717854E+00
 -0.663037954888E-01  0.961095656270E+00 -0.268139788549E+00
  0.278837752331E+00 -0.513502051953E+00 -0.811520271167E+00
 -0.395626864677E+00  0.775214202314E+00  0.492465556641E+00
  0.920976525408E+00  0.321027171261E+00  0.220779969559E+00
 -0.670478371738E+00  0.617610382009E+00  0.411115761150E+00
 -0.725227432023E+00 -0.516699745314E+00  0.455045651594E+00
 -0.379299923043E+00 -0.771056509320E+00  0.511471825045E+00
  0.259148664994E+00  0.182266989941E+00  0.948483375611E+00
  0.753039261219E+00  0.656824526412E+00  0.389026035853E-01
 -0.837607769843E+00 -0.257210114101E+00  0.481929643312E+00
 -0.204196813137E+00  0.573543941870E+00  0.793316461602E+00
 -0.760384761620E+00  0.635895384301E+00 -0.132106300084E+00
  0.503307145923E+00 -0.692972021709E+00  0.516208963493E+00
 -0.714593002806E+00 -0.271831541494E+00  0.644565321275E+00
 -0.683868990334E+00 -0.429655497620E+00 -0.589677333313E+00
  0.648306076060E+00  0.759417908465E+00 -0.546229992458E-01
  0.901014172126E+00 -0.379912478435E+00 -0.209379966467E+00
 -0.320241664847E+00 -0.947197926380E+00 -0.161667670754E-01
 -0.621823152895E+00  0.763545346312E+00  0.174167938064E+00
 -0.559263816342E-01 -0.751755031037E+00 -0.657066673290E+00
  0.719538657540E+00 -0.685710116656E+00 -0.109844236179E+00
  0.116704790789E+00  0.942028248703E+00  0.314583487254E+00
  0.162999950111E+00 -0.217483509116E-01 -0.986386346974E+00
  0.990011807423E+00 -0.101857479399E+00 -0.974765359175E-01
  0.304657957577E+00  0.398335599880E+00  0.865166041146E+00
 -0.834813360026E+00  0.441613961138E+00  0.328730532884E+00
  0.400533329515E+00  0.907169034591E+00  0.128908473835E+00
 -0.161508560839E-01 -0.283383251242E+00  0.958870733083E+00
 -0.625534618501E+00 -0.563585210154E+00  0.539516590988E+00
 -0.247239026394E+00 -0.813742174745E+00 -0.526019521377E+00
  0.793617283877E+00  0.606477510337E+00 -0.485451973572E-01
  0.598045589986E-01 -0.548076320388E-01  0.996704338404E+00
 -0.929265796352E+00  0.237719426792E+00  0.282762362869E+00
  0.183591747711E+00  0.865595708825E+00 -0.465873522576E+00
[...]
CELL_DATA                3996
SCALARS C_p_inc float 1
LOOKUP_TABLE default
  0.786842572716E+00
 -0.341912113343E+00
 -0.435914780675E+00
 -0.131319296912E+01
 -0.340378810781E+00
  0.548304429018E+00
  0.902876477635E+00
  0.444124013923E+00
  0.314181891955E+00
  0.408678519699E+00
 -0.112003913134E+01
 -0.118902807786E+01
 -0.126566669308E+01
 -0.117043943867E+01
 -0.105391840072E+01
 -0.100259332655E+01
 -0.900847541128E+00
 -0.121767467499E+01
 -0.116420699650E+01
  0.709270962608E+00
  0.767101912262E+00
  0.756452531925E+00
 -0.119441886113E+01
 -0.127644383785E+01
 -0.101218177208E+01
 -0.105061318727E+01
 -0.118005040168E+01
 -0.117971744517E+01
 -0.100182097306E+01
 -0.646275163498E+00
 -0.496904014712E-01
 -0.232269191502E-01
 -0.123771178857E+01
 -0.126377745977E+01
 -0.112827013627E+01
  0.834599181367E+00
  0.908088744695E+00
  0.895938909688E+00
  0.997179059965E+00
  0.970692314695E+00
  0.868559648422E+00
  0.909808966310E+00
  0.969118107176E+00
  0.920464317157E+00
  0.968232255110E+00
  0.899153371692E+00
  0.315757057256E+00
 -0.126999481963E+01
 -0.284908001789E+00
 -0.597549193218E+00
 -0.507401655765E+00
  0.109736013896E+00
 -0.138996102243E+01
 -0.550830075714E+00
 -0.621271440115E+00
 -0.508081270503E+00
 -0.127101034052E+01
 -0.974632250458E+00
 -0.611062445535E+00
 -0.117318818969E+01
 -0.121229153632E+01
 -0.124323760722E+01
 -0.127663385377E+01
 -0.122257107648E+01
 -0.467150334254E+00
 -0.697216541405E+00
 -0.733262972497E+00
 -0.410785386525E+00
 -0.431754563801E+00
 -0.861834123125E+00
  0.956580351707E+00
  0.597200346715E+00
  0.835669497287E+00
  0.650867471390E+00
  0.710969347449E+00
  0.824808151747E+00
  0.828949802554E+00
  0.181189304972E+00
  0.181473035248E+00
  0.241644300530E+00
  0.330524444813E+00
  0.194056318946E+00
 -0.649416097426E-01
 -0.142515882936E+00
  0.194449855901E+00
 -0.226249219468E-01
 -0.150462530060E-01
  0.732028617477E+00
 -0.122152592667E+01
 -0.124324630195E+01
 -0.102713380981E+01
 -0.113811778906E+01
 -0.498328842659E+00
 -0.638514676815E+00
 -0.121519467403E+01
 -0.121356827484E+01
 -0.117626885929E+01
 -0.126197845121E+01
 -0.120983479620E+01
 -0.648451296495E+00
 -0.697838509909E+00
 -0.944205200580E+00
 -0.851409495638E+00
 -0.831048213939E+00
 -0.933653753088E+00
 -0.919617548041E+00
 -0.841864429997E+00
 -0.955559086778E+00
 -0.103585233038E+01
 -0.998682835202E+00
 -0.106670481853E+01
 -0.130083557028E+01
 -0.133393156310E+01
 -0.129350447861E+01
 -0.124559436533E+01
 -0.520046942450E+00
 -0.538772005731E+00
 -0.544709967251E+00
 -0.391626669666E+00
 -0.368877080088E+00
 -0.119262604433E+01
 -0.106321641040E+01
 -0.102039954319E+01
 -0.104569295608E+01
 -0.618950781424E+00
 -0.104920230344E+01
 -0.104053196907E+01
 -0.109115072725E+01
 -0.118708972729E+01
 -0.123550172623E+01
 -0.120365443652E+01
 -0.124976874510E+01
 -0.317326183623E+00
 -0.268330685723E+00
  0.213651924586E+00
  0.264287642159E+00
  0.956114027287E+00
  0.903822128215E+00
  0.957714302089E+00
  0.451066655163E+00
  0.946114385877E+00
  0.870967125772E+00
  0.849674373186E+00
  0.568372459135E+00
  0.509710998881E+00
  0.615765663929E+00
  0.659008889389E+00
  0.679877145421E+00
  0.749036539387E+00
  0.782773716164E+00
  0.712485969927E+00
  0.628846850838E+00
  0.634451531972E+00
  0.876654974678E+00
 -0.688210954840E-01
 -0.456189692036E-01
  0.201404535160E-01
  0.651249412759E-01
  0.141911408645E+00
 -0.224121981729E+00
 -0.191732252389E+00
  0.402372594917E+00
  0.183221196693E+00
 -0.114646295620E+00
 -0.378143703888E+00
 -0.361153083261E+00
 -0.137327740888E+01
 -0.118234039326E+01
 -0.118762280790E+01
 -0.120877261216E+01
 -0.138710249655E+01
 -0.121095362891E+01
 -0.138982593443E+01
 -0.119353247999E+01
 -0.123460368911E+01
 -0.125402839046E+01
 -0.901647518618E+00
 -0.106476966929E+01
 -0.917777715484E+00
 -0.899095447607E+00
 -0.100174623022E+01
 -0.113536096994E+01
 -0.111293583772E+01
 -0.110733700308E+01
 -0.108655296874E+01
 -0.854534420009E+00
 -0.925123607259E+00
 -0.866554404211E+00
 -0.127572970386E+01
 -0.127440005239E+01
 -0.105265158507E+01
 -0.109047587373E+01
 -0.102012017255E+01
 -0.106576007639E+01
 -0.932176194243E+00
 -0.944644745805E+00
 -0.795789636331E+00
 -0.775743506319E+00
 -0.636542126315E+00
 -0.502917278831E+00
 -0.954396756037E+00
 -0.106144901844E+01
 -0.106641759974E+01
 -0.106374839533E+01
 -0.115945033618E+01
 -0.115072482700E+01
 -0.109593428625E+01
 -0.630978913010E+00
 -0.497704554991E+00
 -0.498545341204E+00
  0.335798150239E-01
  0.176377090392E+00
 -0.110219458893E+01
 -0.112361938813E+01
 -0.118225124622E+01
 -0.119345584354E+01
  0.996391442629E+00
  0.975762321745E+00
 -0.687736207891E+00
 -0.424828480500E+00
 -0.709985355467E+00
  0.386230661843E-01
 -0.222970087661E+00
  0.833382052324E+00
  0.886247472879E+00
  0.949779463975E+00
  0.934813055813E+00
  0.589489042310E+00
  0.674527125895E+00
  0.644187530132E+00
  0.592709241883E+00
 -0.100098202686E+01
 -0.102687831917E+01
 -0.118735889240E+01
 -0.120662075850E+01
 -0.117443888293E+01
 -0.126018112182E+01
 -0.114593295713E+01
 -0.115273912382E+01
 -0.112006730918E+01
 -0.103609009854E+01
 -0.123762066985E+01
 -0.124771770887E+01
 -0.123295194750E+01
 -0.122958022869E+01
 -0.580403128191E+00
 -0.543364732255E+00
 -0.541216379659E+00
 -0.257516412716E+00
 -0.294220392094E+00
 -0.565327094970E+00
 -0.539180952907E+00
 -0.380414153202E+00
 -0.504080434514E+00
 -0.541122322880E+00
 -0.120882355910E+01
 -0.927571448938E+00
 -0.691054074836E+00
 -0.689145455706E+00
  0.195171934910E-01
  0.820398020612E-01
  0.823836734328E-01
 -0.863300753947E-01
 -0.139095714367E+00
  0.148612726654E+00
  0.306009447970E+00
 -0.785643726583E+00
 -0.815531634479E+00
 -0.712938760736E+00
 -0.100153837292E+01
 -0.102387583123E+01
 -0.115536903803E+01
 -0.113568851148E+01
 -0.118048315015E+01
 -0.113834153581E+01
 -0.115176980465E+01
 -0.110576919891E+01
 -0.110519078435E+01
 -0.965393323633E+00
 -0.916311376019E+00
 -0.974501810615E+00
 -0.104388887804E+01
 -0.687942745822E+00
 -0.728267016332E+00
 -0.597641514829E+00
 -0.642222230097E+00
 -0.802696491248E+00
 -0.417883719819E+00
 -0.293833455708E+00
 -0.389059137186E+00
 -0.417116125508E+00
 -0.543517633021E+00
  0.438819796494E+00
 -0.305813558019E+00
 -0.482512389738E+00
 -0.110302011731E+01
 -0.116998177118E+01
 -0.117423733953E+01
 -0.117260452281E+01
 -0.119869590595E+01
 -0.124976925046E+01
 -0.128783209818E+01
 -0.116401360834E+01
 -0.859055962669E+00
 -0.930737831076E+00
 -0.945377167162E+00
 -0.603605100469E+00
 -0.754225071243E+00
 -0.713341060685E+00
 -0.111471589098E+01
 -0.114360598468E+01
 -0.213067222660E+00
 -0.644554108503E+00
 -0.598977589524E+00
 -0.609515673568E+00
 -0.476947137887E+00
 -0.476765219873E+00
 -0.380629763475E+00
 -0.100948565189E+01
 -0.117937085887E+01
 -0.117515429989E+01
 -0.117488331335E+01
 -0.114055683582E+01
 -0.113104926101E+01
 -0.119595652188E+01
 -0.113315177445E+01
 -0.989055001101E+00
 -0.994928700549E+00
 -0.117454481017E+01
 -0.124301934403E+01
 -0.119840810974E+01
 -0.121761296362E+01
 -0.107381492118E+01
 -0.107415074488E+01
 -0.114426397023E+01
 -0.112881608540E+01
 -0.116792334649E+01
 -0.124387245790E+01
 -0.462093117875E+00
 -0.552736691154E+00
 -0.554617215286E+00
 -0.433874857195E+00
 -0.477860506750E+00
 -0.858104042426E+00
 -0.938328732750E+00
 -0.104679480049E+01
 -0.916365139827E+00
 -0.928862970893E+00
 -0.387492379862E+00
 -0.355436923691E+00
 -0.309218458007E+00
 -0.324396886894E+00
 -0.319614112439E+00
 -0.436683145168E+00
 -0.421899880779E+00
 -0.826857367410E+00
  0.354263999397E+00
  0.285321606137E+00
  0.169462576357E+00
  0.902908056404E+00
  0.929540053991E+00
  0.843805041598E+00
  0.820800436945E+00
  0.792520698495E+00
  0.397966129830E+00
  0.358244759958E+00
  0.479560037946E+00
  0.603179278504E+00
  0.604301276738E+00
  0.474149050520E+00
 -0.700723323992E-01
 -0.120947364956E+00
  0.192744175506E+00
 -0.382770260588E-01
  0.271537807301E-01
  0.334755635997E+00
  0.203125117198E+00
  0.112577034930E+00
 -0.815199699199E+00
 -0.915980147451E+00
  0.599556590458E+00
  0.506204291255E+00
  0.571538047874E+00
  0.390284604861E+00
  0.409032939570E+00
  0.395855388340E+00
  0.821738052132E+00
  0.823688909914E+00
  0.889697519645E+00
  0.605721287763E+00
  0.483471424257E+00
  0.575185030790E+00
  0.900300992794E+00
  0.920734721534E+00
 -0.103447237269E+01
 -0.111928697853E+01
 -0.115256943192E+01
 -0.116819279665E+01
 -0.112229860478E+01
 -0.128972020537E+01
 -0.123551910173E+01
 -0.123474001719E+01
 -0.125974738606E+01
 -0.125718096116E+01
 -0.981588050050E+00
 -0.108306475364E+01
 -0.119637222876E+01
 -0.102528051841E+01
 -0.113365370863E+01
 -0.698440667389E+00
 -0.637133853272E+00
 -0.105702452802E+01
 -0.102878300998E+01
 -0.442588156588E+00
 -0.508793270139E+00
 -0.489721509441E+00
 -0.434953260956E+00
 -0.255865101653E+00
 -0.354643718945E+00
 -0.498879122582E+00
 -0.124911606829E+01
 -0.137538766550E+01
 -0.126976412572E+01
 -0.125000594323E+01
 -0.118799866875E+01
 -0.119294479685E+01
 -0.123960737948E+01
 -0.126675878726E+01
 -0.127598767252E+01
 -0.116174884914E+01
 -0.113838248744E+01
 -0.130431879810E+01
 -0.107604103103E+01
 -0.112047030246E+01
 -0.118405134680E+01
 -0.124266753675E+01
 -0.129794370738E+01
 -0.121804769899E+01
 -0.123623356613E+01
 -0.112935369048E+01
 -0.730126681031E+00
 -0.935539431959E+00
 -0.112458673283E+01
 -0.112967323183E+01
 -0.351968691149E+00
 -0.382496610753E+00
 -0.917921189305E+00
 -0.981281368570E+00
 -0.987674404392E+00
 -0.995063043495E+00
 -0.785082294058E+00
 -0.791035703275E+00
 -0.740583992136E+00
 -0.761249874837E+00
 -0.647040087838E+00
 -0.110252214977E+01
 -0.109401800752E+01
 -0.119158662765E+01
 -0.124772252117E+01
 -0.123443085629E+01
 -0.123177691326E+01
 -0.112364150281E+01
 -0.999850637655E+00
 -0.123349702244E+01
 -0.117222087065E+01
 -0.120731537500E+01
 -0.119997044860E+01
 -0.784408265777E+00
 -0.732958438678E+00
 -0.644533027311E+00
  0.355387968810E-02
  0.236036592152E-02
  0.305889202863E-02
 -0.659757202884E+00
 -0.127239438448E+01
 -0.125404633551E+01
 -0.119070425743E+01
 -0.111188576503E+01
 -0.976230963766E+00
 -0.878733551956E+00
 -0.671995102218E+00
 -0.737688444472E+00
 -0.737764064506E+00
 -0.125552623325E+01
 -0.121773156970E+01
 -0.117965457204E+01
 -0.116705555567E+01
 -0.120069464562E+01
 -0.119715333091E+01
 -0.119068024490E+01
 -0.115019538765E+01
 -0.117252589622E+01
 -0.120115693347E+01
 -0.115204505773E+01
 -0.125966924155E+01
 -0.130769972452E+01
 -0.127917526710E+01
 -0.118496507125E+01
 -0.634513679534E+00
 -0.648569066589E+00
 -0.103461706547E+01
 -0.127615701435E+01
 -0.120406446999E+01
 -0.122578996387E+01
 -0.125601522033E+01
 -0.117597541645E+01
 -0.108944975869E+01
 -0.727205291995E+00
 -0.733007647394E+00
 -0.792770870556E+00
 -0.799366291386E+00
 -0.610153479579E+00
 -0.472792223743E+00
 -0.383682735388E+00
  0.340076139151E+00
  0.215136637372E+00
  0.131809276882E+00
  0.276582087618E+00
  0.551100671503E+00
  0.465945746971E+00
  0.281606198105E+00
  0.277755205777E+00
  0.283727773067E+00
  0.210876067529E+00
  0.218149388477E+00
  0.317220202056E+00
  0.317476945373E+00
  0.298191714415E+00
  0.418151148853E+00
  0.350002679162E+00
  0.882468988473E+00
  0.931747421200E+00
  0.925478602426E+00
  0.950583314111E+00
  0.453881377894E+00
  0.434039132598E+00
  0.470134125877E+00
  0.638938065936E+00
  0.676191841376E+00
  0.675947651196E+00
  0.948805685561E+00
  0.954336163195E+00
  0.979649459995E+00
  0.996187763270E+00
  0.997219171893E+00
  0.852479434428E+00
  0.883738335344E+00
  0.686381091306E+00
  0.723149972858E+00
  0.707526279951E+00
  0.791938627288E+00
  0.207904917514E+00
  0.672103287762E-01
  0.796009493260E+00
  0.838025414127E+00
  0.878495941090E+00
  0.714606926294E+00
  0.690145102663E+00
  0.739336781844E+00
  0.820217327766E+00
  0.875834657500E+00
  0.875355191785E+00
  0.776209817061E+00
  0.813782333608E+00
  0.842474624959E+00
  0.860542006242E+00
  0.950723370212E+00
  0.928553844184E+00
  0.952001332936E+00
 -0.258642324629E+00
  0.312348642578E-02
  0.811630995202E-01
  0.556143407014E-01
 -0.738782522600E-01
 -0.211523009995E+00
 -0.285583377720E+00
 -0.282649431090E+00
  0.530151675914E+00
  0.512463698151E+00
  0.638679401922E+00
  0.636198044295E+00
  0.759828995835E+00
  0.462549490254E+00
  0.498460808087E+00
  0.249173154930E+00
 -0.285288213230E+00
 -0.997898217973E-02
  0.653084043979E-02
 -0.165053882755E+00
 -0.229935827243E+00
  0.138378340399E+00
  0.133285401344E+00
 -0.564820703948E+00
 -0.733270778177E+00
 -0.468964145810E+00
 -0.692911382800E+00
 -0.124017922097E+01
 -0.128825415327E+01
 -0.109266229643E+01
 -0.776612861603E+00
 -0.121202740040E+01
 -0.961103411725E+00
 -0.315623503813E+00
 -0.597525523996E+00
 -0.118012979914E+01
 -0.881909022068E+00
 -0.851589438433E+00
 -0.117515005973E+01
 -0.119455557274E+01
 -0.122958507105E+01
 -0.121629555558E+01
 -0.109848455416E+01
 -0.130894528547E+01
 -0.133235072031E+01
 -0.133212560664E+01
 -0.134406598116E+01
 -0.122442867619E+01
 -0.121651595074E+01
 -0.127820000378E+01
 -0.128593488305E+01
 -0.121184831655E+01
 -0.129192843246E+01
 -0.118048313592E+01
 -0.132814870357E+01
 -0.124250041772E+01
 -0.112065916287E+01
 -0.118361866508E+01
 -0.118462797345E+01
 -0.124928380938E+01
 -0.119659135925E+01
 -0.119517860300E+01
 -0.114866984617E+01
 -0.113352324552E+01
 -0.986012974185E+00
 -0.110007840586E+01
 -0.110271112768E+01
 -0.107847907596E+01
 -0.130537987847E+01
 -0.796380966469E+00
 -0.828679516527E+00
 -0.543256097005E+00
 -0.515349782791E+00
 -0.103166917515E+01
 -0.590687032987E+00
 -0.616097119721E+00
 -0.630827655813E+00
 -0.921779125114E+00
 -0.965115718088E+00
 -0.944632209112E+00
 -0.986933505069E+00
 -0.102616289846E+01
 -0.104705080739E+01
 -0.112390330690E+01
 -0.131896530266E+01
 -0.100591965511E+01
 -0.108746096537E+01
 -0.876303973428E+00
 -0.113864140076E+01
 -0.116614588223E+01
 -0.492139686114E+00
 -0.437752801094E+00
 -0.802779802447E+00
 -0.712797590364E+00
 -0.101868458890E+01
 -0.103956347798E+01
 -0.105137624669E+01
 -0.875774355619E+00
 -0.983576167210E+00
 -0.637783962426E+00
 -0.667095385687E+00
 -0.670631350736E+00
 -0.709284583757E+00
 -0.104318228863E+01
 -0.803070344786E+00
 -0.733388417052E+00
 -0.944375683859E+00
 -0.139991628818E+01
 -0.127778327922E+01
 -0.123596872666E+01
 -0.986496500363E+00
 -0.101556771378E+01
 -0.112107741525E+01
 -0.111506353917E+01
 -0.117437842368E+01
 -0.122062434465E+01
 -0.111070024368E+01
 -0.101175255805E+01
 -0.100030438799E+01
 -0.135954437589E+01
 -0.110130012754E+01
 -0.417658869238E+00
 -0.371135356583E+00
 -0.346409588563E+00
 -0.457405182103E+00
 -0.193360689254E+00
 -0.218597440996E+00
 -0.122178588048E+00
 -0.114142436361E+00
 -0.521414909566E+00
 -0.657811045326E+00
 -0.600107824311E+00
 -0.602335136239E+00
 -0.608467226144E+00
 -0.369048318030E+00
 -0.365427730660E+00
 -0.520937169284E+00
 -0.331403858688E+00
 -0.504315376555E+00
 -0.105865111906E+01
 -0.111272770371E+01
 -0.641478171463E+00
 -0.434099699173E+00
 -0.308398844290E+00
 -0.233793423697E+00
  0.624324410833E-01
  0.134580944746E+00
  0.195980439457E+00
  0.209990683695E+00
  0.262930515513E-01
 -0.153538046844E+00
 -0.194515998974E+00
 -0.314890700219E-01
  0.563969027267E-01
  0.268140543262E-01
  0.404293306102E-01
 -0.105172275294E+01
 -0.107963070769E+01
 -0.902334830959E+00
 -0.115254741185E+01
 -0.124000992953E+01
 -0.123995338624E+01
 -0.109031821935E+01
 -0.124551504597E+01
 -0.124602274039E+01
 -0.120933524930E+01
 -0.127501003063E+01
 -0.126717898815E+01
 -0.131213072073E+01
 -0.123780296399E+01
 -0.125199146227E+01
 -0.128064673829E+01
 -0.579992079471E+00
 -0.354687923337E+00
 -0.100346044670E+01
 -0.104607598296E+01
 -0.124451648208E+01
 -0.101007701305E+01
 -0.372601031195E+00
 -0.199701430277E+00
 -0.306172083842E+00
 -0.423519259654E+00
 -0.391811281963E+00
 -0.660016265613E+00
 -0.593801943067E+00
 -0.412842595287E+00
 -0.435599599472E+00
 -0.420865528942E+00
 -0.280771551835E+00
 -0.259988171964E+00
 -0.884843233233E-01
 -0.509547047279E-01
 -0.227435750855E+00
 -0.203351060897E+00
 -0.221865568650E+00
 -0.102605172963E+00
 -0.100292123918E+00
 -0.283204558427E+00
 -0.389943625892E+00
  0.555532608932E-01
 -0.316972706353E+00
 -0.348926533133E+00
  0.978349668691E+00
  0.952808607982E+00
  0.995810593237E+00
  0.991153479831E+00
  0.926092502650E+00
  0.226899261226E+00
  0.222945383200E+00
  0.203777659792E+00
  0.369515702375E+00
  0.385805164848E+00
  0.379311904093E+00
  0.486635951220E+00
  0.514439160601E+00
  0.284689657074E+00
  0.405265630396E+00
  0.951208665400E-01
 -0.104456522692E+00
 -0.102861490141E+00
  0.687083183205E+00
  0.780449270219E+00
  0.783733094142E+00
  0.674849202365E+00
  0.313717107842E+00
  0.112796020419E+00
  0.248156108797E+00
  0.423336436828E+00
  0.500138058098E+00
  0.468240201720E+00
  0.155378887810E+00
  0.120639031348E+00
  0.361369144490E+00
  0.860503512211E-01
  0.918200577717E-01
 -0.117400730234E+01
 -0.111086256106E+01
 -0.105524863896E+01
 -0.101902675784E+01
 -0.105186847872E+01
 -0.102637649977E+01
 -0.110041920586E+01
 -0.915657329283E+00
 -0.127543083041E+01
 -0.117033996659E+01
 -0.104185439492E+01
 -0.125632555880E+01
 -0.124262989944E+01
 -0.122002389155E+01
 -0.116918890854E+01
 -0.652481858590E+00
 -0.545684955494E+00
 -0.446393207568E+00
 -0.105164631483E+01
 -0.125984938618E+01
 -0.124181645237E+01
 -0.134981389113E+01
 -0.133357251844E+01
 -0.122964560593E+01
 -0.131277263651E+01
 -0.119531535844E+01
 -0.126236150103E+01
 -0.119141390963E+01
 -0.119168227948E+01
 -0.118340669050E+01
 -0.139257611124E+01
 -0.127038031301E+01
 -0.118367721031E+01
 -0.968940479777E+00
 -0.968759955677E+00
 -0.101915120007E+01
 -0.110132290133E+01
 -0.128474903379E+01
 -0.128192638882E+01
 -0.184768874740E+00
 -0.438415564348E+00
 -0.355142626719E+00
 -0.268349550903E+00
 -0.193663332545E+00
 -0.718087784442E+00
 -0.752617079883E+00
 -0.103712776382E+01
 -0.383978624741E+00
 -0.594808114974E+00
 -0.355851113735E+00
 -0.348040376777E+00
 -0.370317575312E+00
 -0.101820978388E+00
 -0.452812392094E-01
 -0.101392770159E+00
 -0.102245156457E+00
 -0.399639074194E-01
 -0.473480268162E-01
 -0.753350392049E+00
 -0.808822007382E+00
 -0.872829528961E+00
 -0.585345656772E+00
 -0.120837230408E+01
 -0.133526554257E+01
 -0.132821651489E+01
 -0.127882603578E+01
 -0.127097500900E+01
 -0.116652943999E+01
 -0.114321676172E+01
 -0.107461482977E+01
 -0.118559388003E+01
 -0.109069628943E+01
 -0.110168705974E+01
 -0.109602534553E+01
 -0.879852178212E+00
 -0.106585962722E+01
 -0.108205847024E+01
 -0.115689700293E+01
 -0.227023039416E+00
 -0.445525391215E+00
 -0.373288274342E+00
 -0.378293690205E+00
 -0.306567802959E+00
 -0.524157509703E+00
 -0.392345912191E+00
 -0.567147592490E+00
 -0.391752500547E+00
 -0.609349284585E+00
 -0.526372629683E+00
 -0.713470861160E+00
 -0.710721724533E+00
  0.320952980485E+00
  0.278097396198E+00
  0.463503039649E+00
  0.259216602590E+00
  0.113376113684E+00
  0.180671208655E+00
  0.305766508573E+00
  0.442174361350E+00
  0.477076576504E+00
  0.658363584425E+00
  0.500852247649E+00
  0.316796353989E+00
 -0.499826181566E-01
 -0.207795732623E+00
 -0.218836439673E+00
 -0.207276179609E+00
 -0.604061767822E-02
 -0.190806849148E+00
 -0.723317581209E-01
  0.560860065268E+00
  0.928652583748E+00
  0.990326125443E+00
  0.975752562312E+00
  0.702345854611E-01
  0.140730907362E+00
  0.268367740381E+00
 -0.801482440654E+00
 -0.967250667875E+00
 -0.967075230985E+00
 -0.956652074571E+00
 -0.120886735690E+01
 -0.104102486000E+01
 -0.913480087171E+00
 -0.123162366928E+01
 -0.121086161995E+01
 -0.644131530455E+00
 -0.515992837908E+00
 -0.470341839976E+00
 -0.104321969845E+01
 -0.849148700430E+00
 -0.116075497604E+01
 -0.105769788586E+01
 -0.763715331041E+00
 -0.630967622850E+00
 -0.898886433325E+00
 -0.927781448780E+00
 -0.854612542858E+00
 -0.596981516409E+00
 -0.876672149411E+00
 -0.913148235226E+00
 -0.553369807334E+00
 -0.401452355675E+00
 -0.304148240531E-01