# vtk DataFile Version 3.0
MachLine results file. Generated by MachLine, USU AeroLab (c) 2022.
ASCII
DATASET POLYDATA
POINTS                  76 float
  0.197579002380E+02  0.757896304131E+00  0.000000000000E+00
  0.190000000000E+02  0.000000000000E+00  0.000000000000E+00
  0.148221294698E+05  0.757896304131E+00  0.223864822404E+04
  0.148224829990E+05  0.000000000000E+00  0.223881631194E+04
  0.207889842987E+02  0.178897356987E+01  0.000000000000E+00
  0.197579002380E+02  0.757896304131E+00  0.000000000000E+00
  0.148216485116E+05  0.178897356987E+01  0.223841954915E+04
  0.148221294698E+05  0.757896304131E+00  0.223864822404E+04
  0.221728172302E+02  0.317279767990E+01  0.000000000000E+00
  0.207889842987E+02  0.178897356987E+01  0.000000000000E+00
  0.148210030106E+05  0.317279767990E+01  0.223811264125E+04
  0.148216485116E+05  0.178897356987E+01  0.223841954915E+04
  0.239966468811E+02  0.499661636353E+01  0.000000000000E+00
  0.221728172302E+02  0.317279767990E+01  0.000000000000E+00
  0.148201522693E+05  0.499661636353E+01  0.223770815041E+04
  0.148210030106E+05  0.317279767990E+01  0.223811264125E+04
  0.263436698914E+02  0.734362459183E+01  0.000000000000E+00
  0.239966468811E+02  0.499661636353E+01  0.000000000000E+00
  0.148190574798E+05  0.734362459183E+01  0.223718762521E+04
  0.148201522693E+05  0.499661636353E+01  0.223770815041E+04
  0.292729015350E+02  0.102728376389E+02  0.000000000000E+00
  0.263436698914E+02  0.734362459183E+01  0.000000000000E+00
  0.148176911140E+05  0.102728376389E+02  0.223653797718E+04
  0.148190574798E+05  0.734362459183E+01  0.223718762521E+04
  0.327922058105E+02  0.137921218872E+02  0.000000000000E+00
  0.292729015350E+02  0.102728376389E+02  0.000000000000E+00
  0.148160495037E+05  0.137921218872E+02  0.223575746223E+04
  0.148176911140E+05  0.102728376389E+02  0.223653797718E+04
  0.368321151733E+02  0.178320064545E+02  0.000000000000E+00
  0.327922058105E+02  0.137921218872E+02  0.000000000000E+00
  0.148141650525E+05  0.178320064545E+02  0.223486148694E+04
  0.148160495037E+05  0.137921218872E+02  0.223575746223E+04
  0.412340698242E+02  0.222339305878E+02  0.000000000000E+00
  0.368321151733E+02  0.178320064545E+02  0.000000000000E+00
  0.148121117221E+05  0.222339305878E+02  0.223388521687E+04
  0.148141650525E+05  0.178320064545E+02  0.223486148694E+04
  0.457662315369E+02  0.267660694122E+02  0.000000000000E+00
  0.412340698242E+02  0.222339305878E+02  0.000000000000E+00
  0.148099976556E+05  0.267660694122E+02  0.223288006934E+04
  0.148121117221E+05  0.222339305878E+02  0.223388521687E+04
  0.501681861877E+02  0.311679935455E+02  0.000000000000E+00
  0.457662315369E+02  0.267660694122E+02  0.000000000000E+00
  0.148079443252E+05  0.311679935455E+02  0.223190379927E+04
  0.148099976556E+05  0.267660694122E+02  0.223288006934E+04
  0.542080955505E+02  0.352078781128E+02  0.000000000000E+00
  0.501681861877E+02  0.311679935455E+02  0.000000000000E+00
  0.148060598740E+05  0.352078781128E+02  0.223100782398E+04
  0.148079443252E+05  0.311679935455E+02  0.223190379927E+04
  0.577274017334E+02  0.387271614075E+02  0.000000000000E+00
  0.542080955505E+02  0.352078781128E+02  0.000000000000E+00
  0.148044182628E+05  0.387271614075E+02  0.223022730861E+04
  0.148060598740E+05  0.352078781128E+02  0.223100782398E+04
  0.606566314697E+02  0.416563758850E+02  0.000000000000E+00
  0.577274017334E+02  0.387271614075E+02  0.000000000000E+00
  0.148030518979E+05  0.416563758850E+02  0.222957766100E+04
  0.148044182628E+05  0.387271614075E+02  0.223022730861E+04
  0.630036544800E+02  0.440033836365E+02  0.000000000000E+00
  0.606566314697E+02  0.416563758850E+02  0.000000000000E+00
  0.148019571084E+05  0.440033836365E+02  0.222905713580E+04
  0.148030518979E+05  0.416563758850E+02  0.222957766100E+04
  0.648274841309E+02  0.458272018433E+02  0.000000000000E+00
  0.630036544800E+02  0.440033836365E+02  0.000000000000E+00
  0.148011063671E+05  0.458272018433E+02  0.222865264496E+04
  0.148019571084E+05  0.440033836365E+02  0.222905713580E+04
  0.662113189697E+02  0.472110252380E+02  0.000000000000E+00
  0.648274841309E+02  0.458272018433E+02  0.000000000000E+00
  0.148004608652E+05  0.472110252380E+02  0.222834573664E+04
  0.148011063671E+05  0.458272018433E+02  0.222865264496E+04
  0.672424011230E+02  0.482421035767E+02  0.000000000000E+00
  0.662113189697E+02  0.472110252380E+02  0.000000000000E+00
  0.147999799079E+05  0.482421035767E+02  0.222811706217E+04
  0.148004608652E+05  0.472110252380E+02  0.222834573664E+04
  0.680002975464E+02  0.490000000000E+02  0.000000000000E+00
  0.672424011230E+02  0.482421035767E+02  0.000000000000E+00
  0.147996263804E+05  0.490000000000E+02  0.222794897511E+04
  0.147999799079E+05  0.482421035767E+02  0.222811706217E+04
POLYGONS                  38                 152
3                   0                   3                   1
3                   0                   2                   3
3                   4                   7                   5
3                   4                   6                   7
3                   8                  11                   9
3                   8                  10                  11
3                  12                  15                  13
3                  12                  14                  15
3                  16                  19                  17
3                  16                  18                  19
3                  20                  23                  21
3                  20                  22                  23
3                  24                  27                  25
3                  24                  26                  27
3                  28                  31                  29
3                  28                  30                  31
3                  32                  35                  33
3                  32                  34                  35
3                  36                  39                  37
3                  36                  38                  39
3                  40                  43                  41
3                  40                  42                  43
3                  44                  47                  45
3                  44                  46                  47
3                  48                  51                  49
3                  48                  50                  51
3                  52                  55                  53
3                  52                  54                  55
3                  56                  59                  57
3                  56                  58                  59
3                  60                  63                  61
3                  60                  62                  63
3                  64                  67                  65
3                  64                  66                  67
3                  68                  71                  69
3                  68                  70                  71
3                  72                  75                  73
3                  72                  74                  75
POINT_DATA                  76
SCALARS mu float 1
LOOKUP_TABLE default
 -0.137335753474E+01
  0.818811052588E-04
 -0.137335753474E+01
  0.818811052588E-04
 -0.217470539972E+01
 -0.137335753474E+01
 -0.217470539972E+01
 -0.137335753474E+01
 -0.275554871700E+01
 -0.217470539972E+01
 -0.275554871700E+01
 -0.217470539972E+01
 -0.322802598278E+01
 -0.275554871700E+01
 -0.322802598278E+01
 -0.275554871700E+01
 -0.363519235374E+01
 -0.322802598278E+01
 -0.363519235374E+01
 -0.322802598278E+01
 -0.399202624452E+01
 -0.363519235374E+01
 -0.399202624452E+01
 -0.363519235374E+01
 -0.429869454804E+01
 -0.399202624452E+01
 -0.429869454804E+01
 -0.399202624452E+01
 -0.454704154510E+01
 -0.429869454804E+01
 -0.454704154510E+01
 -0.429869454804E+01
 -0.472657470065E+01
 -0.454704154510E+01
 -0.472657470065E+01
 -0.454704154510E+01
 -0.482341832056E+01
 -0.472657470065E+01
 -0.482341832056E+01
 -0.472657470065E+01
 -0.482185458763E+01
 -0.482341832056E+01
 -0.482185458763E+01
 -0.482341832056E+01
 -0.470536830447E+01
 -0.482185458763E+01
 -0.470536830447E+01
 -0.482185458763E+01
 -0.446041266378E+01
 -0.470536830447E+01
 -0.446041266378E+01
 -0.470536830447E+01
 -0.408365665526E+01
 -0.446041266378E+01
 -0.408365665526E+01
 -0.446041266378E+01
 -0.358546109599E+01
 -0.408365665526E+01
 -0.358546109599E+01
 -0.408365665526E+01
 -0.297500585383E+01
 -0.358546109599E+01
 -0.297500585383E+01
 -0.358546109599E+01
 -0.224242900263E+01
 -0.297500585383E+01
 -0.224242900263E+01
 -0.297500585383E+01
 -0.131454062798E+01
 -0.224242900263E+01
 -0.131454062798E+01
 -0.224242900263E+01
  0.000000000000E+00
 -0.131454062798E+01
  0.000000000000E+00
 -0.131454062798E+01
