# vtk DataFile Version 3.0
MachLine results file. Generated by MachLine, USU AeroLab (c) 2022.
ASCII
DATASET POLYDATA
POINTS                 144 float
  0.568964789312E+00  0.000000000000E+00  0.772108502507E-16
  0.141397069721E+01  0.000000000000E+00 -0.282586358395E-01
  0.141397069721E+01  0.000000000000E+00  0.282586358395E-01
  0.244657817356E+01  0.140092929645E+01 -0.432768775862E-15
  0.329403441705E+01  0.168885481689E+01  0.471418788504E-01
  0.329403441705E+01  0.168885481689E+01 -0.471418788504E-01
  0.432287019764E+01  0.000000000000E+00 -0.144569128797E+00
  0.432287019764E+01  0.000000000000E+00  0.144569128797E+00
  0.628219146941E+01  0.465847186403E+01  0.480013096762E-15
  0.621373343781E+01  0.186405756854E+01 -0.634533532074E-01
  0.621373343781E+01  0.186405756854E+01  0.634533532074E-01
  0.695227544007E+01  0.512377110591E+01  0.382397111204E+00
  0.695227544007E+01  0.512377110591E+01 -0.382397111204E+00
  0.936371284868E+01  0.000000000000E+00 -0.192541187517E+00
  0.936371284868E+01  0.000000000000E+00  0.192541187517E+00
  0.978150062230E+01  0.538945111301E+01  0.299938956065E+00
  0.978150062230E+01  0.538945111301E+01 -0.299938956065E+00
  0.112617495294E+02  0.198085234413E+01 -0.106769808171E-01
  0.112617495294E+02  0.198085234413E+01  0.106769808171E-01
  0.125181926615E+02  0.102458111306E+02  0.537419370339E-15
  0.130001838556E+02  0.108992055848E+02  0.791434105449E+00
  0.130001838556E+02  0.108992055848E+02 -0.791434105449E+00
  0.144695064082E+02  0.000000000000E+00  0.227185821049E+00
  0.144695064082E+02  0.000000000000E+00 -0.227185821049E+00
  0.147930147489E+02  0.554275408268E+01  0.249663689096E+00
  0.147930147489E+02  0.554275408268E+01 -0.249663689096E+00
  0.157191928163E+02  0.112751085443E+02  0.746157898514E+00
  0.157191928163E+02  0.112751085443E+02 -0.746157898514E+00
  0.163886790030E+02  0.199904156994E+01  0.254080267006E+00
  0.163886790030E+02  0.199904156994E+01 -0.254080267006E+00
  0.175988183368E+02  0.000000000000E+00  0.336252333678E+00
  0.175988183368E+02  0.000000000000E+00 -0.336252333678E+00
  0.186109542155E+02  0.324917544294E-02 -0.113117838273E+00
  0.195112196311E+02  0.198680854485E+01  0.443190372781E+00
  0.195112196311E+02  0.198680854485E+01 -0.443190372781E+00
  0.210855904619E+02  0.184267995916E+02  0.157201256223E-15
  0.199047960450E+02  0.557609726668E+01  0.551090984975E+00
  0.199047960450E+02  0.557609726668E+01 -0.551090984975E+00
  0.206811680642E+02  0.114779590194E+02  0.649502125648E+00
  0.206811680642E+02  0.114779590194E+02 -0.649502125648E+00
  0.214756265934E+02  0.191721510566E+02  0.109541973521E+01
  0.214756265934E+02  0.191721510566E+02 -0.109541973521E+01
  0.204819162104E+02  0.236560542090E+01 -0.472107984864E-01
  0.230197423395E+02  0.557146245570E+01  0.797888358617E+00
  0.230197423395E+02  0.557146245570E+01 -0.797888358617E+00
  0.241127987830E+02  0.196298985676E+02  0.107899254435E+01
  0.241127987830E+02  0.196298985676E+02 -0.107899254435E+01
  0.237411115998E+02  0.619959016264E+01 -0.779195012371E-01
  0.257731798207E+02  0.115310813608E+02  0.973192020964E+00
  0.257731798207E+02  0.115310813608E+02 -0.973192020964E+00
  0.288838014997E+02  0.115307788061E+02  0.124173752004E+01
  0.288838014997E+02  0.115307788061E+02 -0.124173752004E+01
  0.290330410828E+02  0.198744973621E+02  0.102912946115E+01
  0.290330410828E+02  0.198744973621E+02 -0.102912946115E+01
  0.304991941974E+02  0.279884157125E+02 -0.940184487917E-15
  0.309633712662E+02  0.286596319067E+02  0.109580727182E+01
  0.309633712662E+02  0.286596319067E+02 -0.109580727182E+01
  0.293295905170E+02  0.124344903127E+02 -0.112455847521E+00
  0.336004622586E+02  0.291174681193E+02  0.107967846997E+01
  0.336004622586E+02  0.291174681193E+02 -0.107967846997E+01
  0.341140326885E+02  0.199386532251E+02  0.129847228634E+01
  0.341140326885E+02  0.199386532251E+02 -0.129847228634E+01
  0.372224547167E+02  0.199405598789E+02  0.157325761392E+01
  0.372224547167E+02  0.199405598789E+02 -0.157325761392E+01
  0.385907776285E+02  0.366452147338E+02  0.103528484894E-14
  0.385148267914E+02  0.293679600681E+02  0.112856242832E+01
  0.385148267914E+02  0.293679600681E+02 -0.112856242832E+01
  0.392365997558E+02  0.371347877953E+02  0.792665761665E+00
  0.392365997558E+02  0.371347877953E+02 -0.792665761665E+00
  0.375112117682E+02  0.210013080220E+02 -0.133037299014E+00
  0.419553443416E+02  0.375109838354E+02  0.748191850264E+00
  0.419553443416E+02  0.375109838354E+02 -0.748191850264E+00
  0.441854237464E+02  0.428739102780E+02 -0.542804227168E-15
  0.436014081202E+02  0.294265433216E+02  0.130120129723E+01
  0.436014081202E+02  0.294265433216E+02 -0.130120129723E+01
  0.450123389239E+02  0.431823941216E+02  0.384529470252E+00
  0.450123389239E+02  0.431823941216E+02 -0.384529470252E+00
  0.467100137338E+02  0.294282740068E+02  0.157422763126E+01
  0.467100137338E+02  0.294282740068E+02 -0.157422763126E+01
  0.469047853318E+02  0.377264106753E+02  0.861135520608E+00
  0.469047853318E+02  0.377264106753E+02 -0.861135520608E+00
  0.474936134205E+02  0.466588827835E+02  0.164511549010E-16
  0.478410674218E+02  0.434486097166E+02  0.302958394749E+00
  0.478410674218E+02  0.434486097166E+02 -0.302958394749E+00
  0.484474242579E+02  0.468404670455E+02  0.497793093522E-01
  0.484474242579E+02  0.468404670455E+02 -0.497793093522E-01
  0.470726430775E+02  0.304151533447E+02 -0.125155912156E+00
  0.492274077682E+02  0.487244831296E+02  0.128190791274E-16
  0.502757652090E+02  0.487836297762E+02 -0.212070844252E+00
  0.502757652090E+02  0.487836297762E+02  0.212070844252E+00
  0.506936738868E+02  0.491511809382E+02 -0.223650248268E+00
  0.506936738868E+02  0.491511809382E+02  0.223650248268E+00
  0.508600378638E+02  0.493379935477E+02 -0.590201444124E-15
  0.513664602192E+02  0.470163792352E+02 -0.605062134957E-01
  0.513664602192E+02  0.470163792352E+02  0.605062134957E-01
  0.520081507085E+02  0.377682250584E+02  0.984388353768E+00
  0.520081507085E+02  0.377682250584E+02 -0.984388353768E+00
  0.528422808998E+02  0.436122752770E+02  0.422705047164E+00
  0.528422808998E+02  0.436122752770E+02 -0.422705047164E+00
  0.532712220733E+02  0.488132571183E+02 -0.329603464639E+00
  0.532712220733E+02  0.488132571183E+02  0.329603464639E+00
  0.540275370717E+02  0.492912689691E+02 -0.308776578376E+00
  0.540275370717E+02  0.492912689691E+02  0.308776578376E+00
  0.543376717578E+02  0.494882573609E+02 -0.875913582033E-16
  0.551195355106E+02  0.377671841645E+02  0.124556471509E+01
  0.551195355106E+02  0.377671841645E+02 -0.124556471509E+01
  0.564100823215E+02  0.471376438637E+02  0.623138890792E-01
  0.564100823215E+02  0.471376438637E+02 -0.623138890792E-01
  0.557285115433E+02  0.385077190071E+02 -0.950647977907E-01
  0.579612589093E+02  0.436384846268E+02  0.580829229557E+00
  0.579612589093E+02  0.436384846268E+02 -0.580829229557E+00
  0.583454950417E+02  0.488834287873E+02 -0.150061724679E+00
  0.583454950417E+02  0.488834287873E+02  0.150061724679E+00
  0.590396185137E+02  0.491949726267E+02 -0.150833784210E+00
  0.590396185137E+02  0.491949726267E+02  0.150833784210E+00
  0.593184771628E+02  0.491995735824E+02 -0.390744613640E-15
  0.610781195262E+02  0.436319755256E+02  0.808858270102E+00
  0.610781195262E+02  0.436319755256E+02 -0.808858270102E+00
  0.615374339572E+02  0.471554871877E+02  0.292578745605E+00
  0.615374339572E+02  0.471554871877E+02 -0.292578745605E+00
  0.619555315599E+02  0.441040727898E+02 -0.613740464713E-01
  0.634783901535E+02  0.489394759703E+02  0.124654610420E+00
  0.634783901535E+02  0.489394759703E+02 -0.124654610420E+00
  0.638209122952E+02  0.489906339722E+02  0.586327274410E-01
  0.638209122952E+02  0.489906339722E+02 -0.586327274410E-01
  0.639672883530E+02  0.490235527920E+02  0.277676140102E-15
  0.646609390522E+02  0.471423373736E+02  0.471455588607E+00
  0.646609390522E+02  0.471423373736E+02 -0.471455588607E+00
  0.657363005924E+02  0.474164874337E+02 -0.363537316218E-01
  0.666076930394E+02  0.489615615107E+02  0.257264682985E+00
  0.666076930394E+02  0.489615615107E+02 -0.257264682985E+00
  0.667197153211E+02  0.489145683604E+02  0.113016213698E+00
  0.667197153211E+02  0.489145683604E+02 -0.113016213698E+00
  0.667696724652E+02  0.489334458426E+02  0.698201196615E-17
  0.677018201472E+02  0.489355666281E+02 -0.148411887243E-14
  0.186109542155E+02  0.324917544294E-02  0.113117838273E+00
  0.204819162104E+02  0.236560542090E+01  0.472107984864E-01
  0.237411115998E+02  0.619959016264E+01  0.779195012371E-01
  0.293295905170E+02  0.124344903127E+02  0.112455847521E+00
  0.375112117682E+02  0.210013080220E+02  0.133037299014E+00
  0.470726430775E+02  0.304151533447E+02  0.125155912156E+00
  0.557285115433E+02  0.385077190071E+02  0.950647977907E-01
  0.619555315599E+02  0.441040727898E+02  0.613740464713E-01
  0.657363005924E+02  0.474164874337E+02  0.363537316218E-01
VERTICES                 144                 288
1                   0
1                   1
1                   2
1                   3
1                   4
1                   5
1                   6
1                   7
1                   8
1                   9
1                  10
1                  11
1                  12
1                  13
1                  14
1                  15
1                  16
1                  17
1                  18
1                  19
1                  20
1                  21
1                  22
1                  23
1                  24
1                  25
1                  26
1                  27
1                  28
1                  29
1                  30
1                  31
1                  32
1                  33
1                  34
1                  35
1                  36
1                  37
1                  38
1                  39
1                  40
1                  41
1                  42
1                  43
1                  44
1                  45
1                  46
1                  47
1                  48
1                  49
1                  50
1                  51
1                  52
1                  53
1                  54
1                  55
1                  56
1                  57
1                  58
1                  59
1                  60
1                  61
1                  62
1                  63
1                  64
1                  65
1                  66
1                  67
1                  68
1                  69
1                  70
1                  71
1                  72
1                  73
1                  74
1                  75
1                  76
1                  77
1                  78
1                  79
1                  80
1                  81
1                  82
1                  83
1                  84
1                  85
1                  86
1                  87
1                  88
1                  89
1                  90
1                  91
1                  92
1                  93
1                  94
1                  95
1                  96
1                  97
1                  98
1                  99
1                 100
1                 101
1                 102
1                 103
1                 104
1                 105
1                 106
1                 107
1                 108
1                 109
1                 110
1                 111
1                 112
1                 113
1                 114
1                 115
1                 116
1                 117
1                 118
1                 119
1                 120
1                 121
1                 122
1                 123
1                 124
1                 125
1                 126
1                 127
1                 128
1                 129
1                 130
1                 131
1                 132
1                 133
1                 134
1                 135
1                 136
1                 137
1                 138
1                 139
1                 140
1                 141
1                 142
1                 143
POINT_DATA                 144
SCALARS BC_type int 1
LOOKUP_TABLE default
           2
           2
           2
           2
           2
           2
           2
           2
           2
           2
           2
           2
           2
           2
           2
           2
           2
           2
           2
           2
           2
           2
           2
           2
           2
           2
           2
           2
           2
           2
           2
           2
           2
           2
           2
           2
           2
           2
           2
           2
           2
           2
           2
           2
           2
           2
           2
           2
           2
           2
           2
           2
           2
           2
           2
           2
           2
           2
           2
           2
           2
           2
           2
           2
           2
           2
           2
           2
           2
           2
           2
           2
           2
           2
           2
           2
           2
           2
           2
           2
           2
           2
           2
           2
           2
           2
           2
           2
           2
           2
           2
           2
           2
           2
           2
           2
           2
           2
           2
           2
           2
           2
           2
           2
           2
           2
           2
           2
           2
           2
           2
           2
           2
           2
           2
           2
           2
           2
           2
           2
           2
           2
           2
           2
           2
           2
           2
           2
           2
           2
           2
           2
           2
           2
           2
           2
           2
           2
           2
           2
           2
           2
           2
           2
SCALARS residual float 1
LOOKUP_TABLE default
 -0.495311791582E-09
 -0.641846081617E-06
  0.641570149451E-06
  0.508811259792E-08
  0.371218438211E-07
 -0.418618397724E-07
 -0.487945808203E-07
  0.485238409453E-07
 -0.519382226116E-08
 -0.177343252972E-06
  0.178672543427E-06
  0.204042009955E-07
 -0.146420511271E-07
 -0.449344614850E-07
  0.449093260357E-07
  0.730205655941E-07
 -0.735595868662E-07
 -0.164471563355E-04
  0.164470009665E-04
 -0.422307167014E-08
  0.799925103934E-08
 -0.478254236214E-08
  0.334045573425E-07
 -0.333867848923E-07
  0.766106325045E-07
 -0.765010916837E-07
  0.754270423897E-08
 -0.708316427733E-08
  0.377741109503E-07
 -0.377750239977E-07
 -0.249591991519E-08
  0.249683651532E-08
 -0.599985838790E-09
  0.568158853298E-08
 -0.431406022017E-10
 -0.182673076665E-08
  0.184178006180E-08
  0.104762598596E-07
 -0.104928297162E-07
 -0.984829995332E-09
  0.973098934764E-09
  0.819170900002E-07
 -0.282970091803E-08
  0.397477606384E-09
 -0.395438348733E-09
  0.648833164973E-08
 -0.219561258064E-09
  0.224641638624E-09
  0.178799552941E-08
 -0.569382763160E-09
  0.571656499915E-09
  0.341060513165E-12
 -0.113253406653E-09
  0.112127196417E-09
  0.700539715126E-08
  0.488640239382E-10
 -0.494253526995E-10
  0.104570574422E-09
 -0.788681120412E-09
  0.761943397265E-09
  0.171738179233E-10
 -0.104094510789E-10
  0.120294885164E-10
  0.249045228884E-10
  0.729016846890E-11
  0.462193128214E-08
 -0.139571909585E-09
  0.149050549680E-09
 -0.155885970798E-09
  0.118589582598E-10
 -0.280039103018E-09
  0.494623009217E-09
 -0.187618809377E-09
  0.170473413164E-09
 -0.141490374972E-09
  0.140126132919E-09
  0.150365053742E-09
 -0.490750551307E-09
  0.336214611707E-09
  0.385173137829E-08
 -0.418496171051E-08
  0.121974608192E-08
 -0.107249320536E-09
  0.204529015946E-08
 -0.145255540929E-08
  0.180058634669E-09
 -0.557434987059E-09
  0.170317420611E-06
 -0.169507138992E-06
  0.279648304513E-09
 -0.275171885278E-09
 -0.233356445278E-08
  0.234555130874E-08
 -0.148185748117E-07
  0.985848913615E-08
  0.903843044853E-08
  0.784311282587E-09
 -0.508017450329E-08
 -0.254800625044E-09
  0.244405384819E-09
  0.120595800013E-07
 -0.120639782608E-07
  0.103994324263E-08
  0.126810562051E-09
 -0.766320340517E-10
  0.190121070887E-06
 -0.183929067532E-06
 -0.166722379902E-06
  0.106638630371E-06
  0.207502637295E-08
 -0.221070450834E-08
  0.372949671146E-09
 -0.619394313617E-09
 -0.154093484639E-07
  0.137172406767E-08
 -0.273803877349E-07
 -0.215475068899E-07
  0.841013303443E-07
 -0.389390280020E-07
 -0.155304746841E-08
  0.264826383045E-08
 -0.174105707629E-08
 -0.438973302153E-09
  0.783018094808E-11
 -0.253787391102E-08
  0.258346233295E-08
 -0.481890083392E-10
  0.599868599238E-09
 -0.819160099752E-07
 -0.700487845506E-08
 -0.462464555540E-08
 -0.122285115367E-08
 -0.104221697939E-08
  0.153898085387E-07
 -0.117360130503E-06
 -0.567981572885E-08
  0.282322787371E-08
 -0.178908265980E-08
 -0.102296837667E-09
 -0.866151594892E-11
  0.163296931532E-09
  0.559172548265E-07
  0.117402336741E-06
 -0.648952536153E-08
