# vtk DataFile Version 3.0
MachLine results file. Generated by MachLine, USU AeroLab (c) 2022.
ASCII
DATASET POLYDATA
POINTS                 482 float
  0.000000000000E+00  0.000000000000E+00  0.000000000000E+00
  0.473465979099E+00  0.000000000000E+00 -0.436293870211E+00
  0.473465979099E+00  0.000000000000E+00  0.436293870211E+00
  0.757896304131E+00  0.757896304131E+00  0.000000000000E+00
  0.123136246204E+01  0.757896304131E+00 -0.436293989420E+00
  0.123136246204E+01  0.757896304131E+00  0.436293989420E+00
  0.157641971111E+01  0.000000000000E+00 -0.760520398617E+00
  0.157641971111E+01  0.000000000000E+00  0.760520398617E+00
  0.178897356987E+01  0.178897356987E+01  0.000000000000E+00
  0.226243972778E+01  0.178897356987E+01 -0.436294138432E+00
  0.226243972778E+01  0.178897356987E+01  0.436294138432E+00
  0.233431649208E+01  0.757896304131E+00 -0.760520577431E+00
  0.233431649208E+01  0.757896304131E+00  0.760520577431E+00
  0.317279767990E+01  0.317279767990E+01  0.000000000000E+00
  0.336539411545E+01  0.178897356987E+01 -0.760520815849E+00
  0.336539411545E+01  0.178897356987E+01  0.760520815849E+00
  0.342464399338E+01  0.000000000000E+00 -0.102348911762E+01
  0.342464399338E+01  0.000000000000E+00  0.102348911762E+01
  0.364626431465E+01  0.317279767990E+01 -0.436294317245E+00
  0.364626431465E+01  0.317279767990E+01  0.436294317245E+00
  0.418254137039E+01  0.757896304131E+00 -0.102348935604E+01
  0.418254137039E+01  0.757896304131E+00  0.102348935604E+01
  0.474921894073E+01  0.317279767990E+01 -0.760521173477E+00
  0.474921894073E+01  0.317279767990E+01  0.760521173477E+00
  0.499661636353E+01  0.499661636353E+01  0.000000000000E+00
  0.521361970901E+01  0.178897356987E+01 -0.102348971367E+01
  0.521361970901E+01  0.178897356987E+01  0.102348971367E+01
  0.547008323669E+01  0.499661636353E+01 -0.436294585466E+00
  0.547008323669E+01  0.499661636353E+01  0.436294585466E+00
  0.611307668686E+01  0.000000000000E+00 -0.114008128643E+01
  0.611307668686E+01  0.000000000000E+00  0.114008128643E+01
  0.657303857803E+01  0.499661636353E+01 -0.760521650314E+00
  0.657303857803E+01  0.499661636353E+01  0.760521650314E+00
  0.659744548798E+01  0.317279767990E+01 -0.102349019051E+01
  0.659744548798E+01  0.317279767990E+01  0.102349019051E+01
  0.687097454071E+01  0.757896304131E+00 -0.114008152485E+01
  0.687097454071E+01  0.757896304131E+00  0.114008152485E+01
  0.734362459183E+01  0.734362459183E+01  0.000000000000E+00
  0.781709194183E+01  0.734362459183E+01 -0.436294913292E+00
  0.781709194183E+01  0.734362459183E+01  0.436294913292E+00
  0.790205335617E+01  0.178897356987E+01 -0.114008200169E+01
  0.790205335617E+01  0.178897356987E+01  0.114008200169E+01
  0.842126560211E+01  0.499661636353E+01 -0.102349078655E+01
  0.842126560211E+01  0.499661636353E+01  0.102349078655E+01
  0.892004776001E+01  0.734362459183E+01 -0.760522186756E+00
  0.892004776001E+01  0.734362459183E+01  0.760522186756E+00
  0.928588008881E+01  0.317279767990E+01 -0.114008247852E+01
  0.928588008881E+01  0.317279767990E+01  0.114008247852E+01
  0.939508819580E+01  0.000000000000E+00 -0.980745851994E+00
  0.939508819580E+01  0.000000000000E+00  0.980745851994E+00
  0.101529865265E+02  0.757896304131E+00 -0.980746090412E+00
  0.101529865265E+02  0.757896304131E+00  0.980746090412E+00
  0.102728376389E+02  0.102728376389E+02  0.000000000000E+00
  0.107463054657E+02  0.102728376389E+02 -0.436295330524E+00
  0.107463054657E+02  0.102728376389E+02  0.436295330524E+00
  0.107682771683E+02  0.734362459183E+01 -0.102349150181E+01
  0.107682771683E+02  0.734362459183E+01  0.102349150181E+01
  0.111097030640E+02  0.499661636353E+01 -0.114008307457E+01
  0.111097030640E+02  0.499661636353E+01  0.114008307457E+01
  0.111840667725E+02  0.178897356987E+01 -0.980746388435E+00
  0.111840667725E+02  0.178897356987E+01  0.980746388435E+00
  0.118492631912E+02  0.102728376389E+02 -0.760522902012E+00
  0.118492631912E+02  0.102728376389E+02  0.760522902012E+00
  0.125678949356E+02  0.317279767990E+01 -0.980746865273E+00
  0.125678949356E+02  0.317279767990E+01  0.980746865273E+00
  0.126670312881E+02  0.000000000000E+00 -0.678052663803E+00
  0.126670312881E+02  0.000000000000E+00  0.678052663803E+00
  0.134249305725E+02  0.757896304131E+00 -0.678052842617E+00
  0.134249305725E+02  0.757896304131E+00  0.678052842617E+00
  0.134567155838E+02  0.734362459183E+01 -0.114008402824E+01
  0.134567155838E+02  0.734362459183E+01  0.114008402824E+01
  0.136974935532E+02  0.102728376389E+02 -0.102349245548E+01
  0.136974935532E+02  0.102728376389E+02  0.102349245548E+01
  0.137921218872E+02  0.137921218872E+02  0.000000000000E+00
  0.142655897141E+02  0.137921218872E+02 -0.436295837164E+00
  0.142655897141E+02  0.137921218872E+02  0.436295837164E+00
  0.143917188644E+02  0.499661636353E+01 -0.980747401714E+00
  0.143917188644E+02  0.499661636353E+01  0.980747401714E+00
  0.144560117722E+02  0.178897356987E+01 -0.678053081036E+00
  0.144560117722E+02  0.178897356987E+01  0.678053081036E+00
  0.153437566757E+02  0.000000000000E+00 -0.393031150103E+00
  0.153437566757E+02  0.000000000000E+00  0.393031150103E+00
  0.153685483932E+02  0.137921218872E+02 -0.760523796082E+00
  0.153685483932E+02  0.137921218872E+02  0.760523796082E+00
  0.158398418427E+02  0.317279767990E+01 -0.678053379059E+00
  0.158398418427E+02  0.317279767990E+01  0.678053379059E+00
  0.161016559601E+02  0.757896304131E+00 -0.393031239510E+00
  0.161016559601E+02  0.757896304131E+00  0.393031239510E+00
  0.163859348297E+02  0.102728376389E+02 -0.114008510113E+01
  0.163859348297E+02  0.102728376389E+02  0.114008510113E+01
  0.167387351990E+02  0.734362459183E+01 -0.980748176575E+00
  0.167387351990E+02  0.734362459183E+01  0.980748176575E+00
  0.171327381134E+02  0.178897356987E+01 -0.393031388521E+00
  0.171327381134E+02  0.178897356987E+01  0.393031388521E+00
  0.172004318237E+02  0.000000000000E+00 -0.192506864667E+00
  0.172004318237E+02  0.000000000000E+00  0.192506864667E+00
  0.172167816162E+02  0.137921218872E+02 -0.102349364758E+01
  0.172167816162E+02  0.137921218872E+02  0.102349364758E+01
  0.176636676788E+02  0.499661636353E+01 -0.678053736687E+00
  0.176636676788E+02  0.499661636353E+01  0.678053736687E+00
  0.178320064545E+02  0.178320064545E+02  0.000000000000E+00
  0.179583320618E+02  0.757896304131E+00 -0.192506924272E+00
  0.179583320618E+02  0.757896304131E+00  0.192506924272E+00
  0.183054752350E+02  0.178320064545E+02 -0.436296403408E+00
  0.183054752350E+02  0.178320064545E+02  0.436296403408E+00
  0.183450412750E+02  0.000000000000E+00 -0.698660761118E-01
  0.183450412750E+02  0.000000000000E+00  0.698660761118E-01
  0.185165691376E+02  0.317279767990E+01 -0.393031567335E+00
  0.185165691376E+02  0.317279767990E+01  0.393031567335E+00
  0.189894161224E+02  0.178897356987E+01 -0.192506983876E+00
  0.189894161224E+02  0.178897356987E+01  0.192506983876E+00
  0.190000000000E+02  0.000000000000E+00  0.000000000000E+00
  0.191029415131E+02  0.757896304131E+00 -0.698660910130E-01
  0.191029415131E+02  0.757896304131E+00  0.698660910130E-01
  0.194084339142E+02  0.178320064545E+02 -0.760524809361E+00
  0.194084339142E+02  0.178320064545E+02  0.760524809361E+00
  0.196679573059E+02  0.102728376389E+02 -0.980749070644E+00
  0.196679573059E+02  0.102728376389E+02  0.980749070644E+00
  0.197579002380E+02  0.757896304131E+00  0.000000000000E+00
  0.199052257538E+02  0.137921218872E+02 -0.114008641243E+01
  0.199052257538E+02  0.137921218872E+02  0.114008641243E+01
  0.200106849670E+02  0.734362459183E+01 -0.678054273129E+00
  0.200106849670E+02  0.734362459183E+01  0.678054273129E+00
  0.201340255737E+02  0.178897356987E+01 -0.698661133647E-01
  0.201340255737E+02  0.178897356987E+01  0.698661133647E-01
  0.203403968811E+02  0.499661636353E+01 -0.393031775951E+00
  0.203403968811E+02  0.499661636353E+01  0.393031775951E+00
  0.203732471466E+02  0.317279767990E+01 -0.192507073283E+00
  0.203732471466E+02  0.317279767990E+01  0.192507073283E+00
  0.207889842987E+02  0.178897356987E+01  0.000000000000E+00
  0.212566699982E+02  0.178320064545E+02 -0.102349495888E+01
  0.212566699982E+02  0.178320064545E+02  0.102349495888E+01
  0.215178565979E+02  0.317279767990E+01 -0.698661431670E-01
  0.215178565979E+02  0.317279767990E+01  0.698661431670E-01
  0.221728172302E+02  0.317279767990E+01  0.000000000000E+00
  0.221970767975E+02  0.499661636353E+01 -0.192507177591E+00
  0.221970767975E+02  0.499661636353E+01  0.192507177591E+00
  0.222339305878E+02  0.222339305878E+02  0.000000000000E+00
  0.226874179840E+02  0.734362459183E+01 -0.393032073975E+00
  0.226874179840E+02  0.734362459183E+01  0.393032073975E+00
  0.227074012756E+02  0.222339305878E+02 -0.436297029257E+00
  0.227074012756E+02  0.222339305878E+02  0.436297029257E+00
  0.229399108887E+02  0.102728376389E+02 -0.678054928780E+00
  0.229399108887E+02  0.102728376389E+02  0.678054928780E+00
  0.231872520447E+02  0.137921218872E+02 -0.980750203133E+00
  0.231872520447E+02  0.137921218872E+02  0.980750203133E+00
  0.233416862488E+02  0.499661636353E+01 -0.698661878705E-01
  0.233416862488E+02  0.499661636353E+01  0.698661878705E-01
  0.238103618622E+02  0.222339305878E+02 -0.760525882244E+00
  0.238103618622E+02  0.222339305878E+02  0.760525882244E+00
  0.239451179504E+02  0.178320064545E+02 -0.114008784294E+01
  0.239451179504E+02  0.178320064545E+02  0.114008784294E+01
  0.239966468811E+02  0.499661636353E+01  0.000000000000E+00
  0.245440979004E+02  0.734362459183E+01 -0.192507326603E+00
  0.245440979004E+02  0.734362459183E+01  0.192507326603E+00
  0.256166458130E+02  0.102728376389E+02 -0.393032461405E+00
  0.256166458130E+02  0.102728376389E+02  0.393032461405E+00
  0.256585998535E+02  0.222339305878E+02 -0.102349650860E+01
  0.256585998535E+02  0.222339305878E+02  0.102349650860E+01
  0.256887092590E+02  0.734362459183E+01 -0.698662400246E-01
  0.256887092590E+02  0.734362459183E+01  0.698662400246E-01
[...]
CELL_DATA                 904
SCALARS C_p_inc float 1
LOOKUP_TABLE default
  0.166541793487E+00
  0.144554419573E+00
  0.111486931763E+00
  0.947436289637E-01
  0.787183764587E-01
  0.700364859637E-01
  0.519197674174E-01
  0.453399202753E-01
  0.286600195978E-01
  0.241775747841E-01
  0.348316779452E-01
  0.288467280824E-01
  0.132642788235E+00
  0.100435040833E+00
  0.281301709250E+00
  0.237210768950E+00
  0.486155112339E+00
  0.443650887609E+00
  0.703270240531E+00
  0.692801704397E+00
 -0.306119984597E+00
  0.117557197876E+00
 -0.638151141425E+00
 -0.380223620936E+00
 -0.565973276084E+00
 -0.487336088664E+00
 -0.547032188586E+00
 -0.523223607367E+00
 -0.481937409332E+00
 -0.502502749610E+00
 -0.384201507204E+00
 -0.355814136516E+00
 -0.257854410168E+00
 -0.227442032745E+00
 -0.152055659414E+00
 -0.115271213317E+00
 -0.609750849767E-01
 -0.469534172164E-02
  0.561232570337E-01
  0.127781315602E+00
  0.161042891783E+00
  0.165183928528E+00
  0.114691687311E+00
  0.111293217223E+00
  0.873808963417E-01
  0.787068850709E-01
  0.579138414220E-01
  0.519629642186E-01
  0.306577727240E-01
  0.286104248897E-01
  0.288488375837E-01
  0.216097644988E-01
  0.101662107567E+00
  0.805296976159E-01
  0.233347787010E+00
  0.214963199011E+00
  0.411091384774E+00
  0.411161160883E+00
  0.576575450135E+00
  0.526571133193E+00
 -0.562723506189E+00
 -0.323477797436E+00
 -0.799988219264E+00
 -0.609318844257E+00
 -0.656666525949E+00
 -0.565078606084E+00
 -0.584113775321E+00
 -0.552605398940E+00
 -0.475397223714E+00
 -0.488704862430E+00
 -0.355436246979E+00
 -0.330729667331E+00
 -0.226910120186E+00
 -0.193786990437E+00
 -0.115101904483E+00
 -0.740167335629E-01
 -0.527212542591E-02
  0.288165875012E-01
  0.123415886218E+00
  0.134647979432E+00
  0.158155569587E+00
  0.160401804117E+00
  0.112652639294E+00
  0.114411247509E+00
  0.903546161380E-01
  0.872921802327E-01
  0.633814558484E-01
  0.579460408794E-01
  0.332792531423E-01
  0.306722317322E-01
  0.219823556357E-01
  0.182969833277E-01
  0.811549326787E-01
  0.710792858191E-01
  0.210176285505E+00
  0.204037422344E+00
  0.395797773974E+00
  0.401823280573E+00
  0.511403521159E+00
  0.458616957096E+00
 -0.775778599328E+00
 -0.569011340568E+00
 -0.944742507296E+00
 -0.779573709719E+00
 -0.736811227314E+00
 -0.650676184330E+00
 -0.617031973939E+00
 -0.588620963171E+00
 -0.471454490636E+00
 -0.484599943738E+00
 -0.330814883150E+00
 -0.305578176405E+00
 -0.193254410875E+00
 -0.159594090916E+00
 -0.739769570840E-01
 -0.441266866901E-01
  0.278878557743E-01
  0.431823360156E-01
  0.132518565021E+00
  0.137635308966E+00
  0.156995862711E+00
  0.157648599726E+00
  0.110945148314E+00
  0.112402032971E+00
  0.897772316992E-01
  0.902187003228E-01
  0.660585550624E-01
  0.633830939260E-01
  0.365797215142E-01
  0.333580862425E-01
  0.184869863829E-01
  0.190439648165E-01
  0.711298429366E-01
  0.696021190851E-01
  0.201134295947E+00
  0.203865427764E+00
  0.395246206752E+00
  0.404041085586E+00
  0.460167967290E+00
  0.407560075861E+00
 -0.962604844062E+00
 -0.776817151199E+00
 -0.107074864163E+01
 -0.931579018250E+00
 -0.804630042454E+00
 -0.733886673593E+00
 -0.644752439717E+00
 -0.623291971897E+00
 -0.466797649029E+00
 -0.481760962748E+00
 -0.306151881443E+00
 -0.281724784458E+00
 -0.159222379359E+00
 -0.133198371755E+00
 -0.442082822547E-01
 -0.274400371700E-01
  0.427089117079E-01
  0.510232143115E-01
  0.136838478870E+00
  0.140237988470E+00
  0.156687738394E+00
  0.156516958215E+00
  0.110045335359E+00
  0.110694989352E+00
  0.888142067262E-01
  0.896235043421E-01
  0.664457452052E-01
  0.660132406120E-01
  0.391492453403E-01
  0.366733174570E-01
  0.190963614456E-01
  0.226304850287E-01
  0.695424336374E-01
  0.741233471684E-01
  0.202815913317E+00
  0.211189063932E+00
  0.403046903231E+00
  0.413085019685E+00
  0.416712977601E+00
  0.365863731362E+00
 -0.112333007882E+01
 -0.961913855723E+00
 -0.117502214083E+01
 -0.106444203651E+01
 -0.858033181256E+00
 -0.805663439791E+00
 -0.664932168125E+00
 -0.652411112669E+00
 -0.461710071210E+00
 -0.476767253912E+00
 -0.282543520546E+00
 -0.263837954048E+00
 -0.133119682190E+00
 -0.117686893555E+00
 -0.274644191397E-01
 -0.183601466716E-01
  0.509836355074E-01
  0.559499696908E-01
  0.140265519885E+00
  0.142803730541E+00
  0.156900719816E+00
  0.156200447240E+00
  0.109739751124E+00
  0.109776067765E+00
  0.882784922737E-01
  0.886369574486E-01
  0.663521999914E-01
  0.663624779112E-01
  0.406920920513E-01
  0.392044609189E-01
  0.226583254589E-01
  0.269160865892E-01
  0.741089265609E-01
  0.815545680195E-01
  0.211292874044E+00
  0.222106138994E+00
  0.415067802389E+00
  0.424844427539E+00
  0.377932393859E+00
  0.331429657583E+00
 -0.125470098696E+01
 -0.112252851702E+01
 -0.125584037728E+01
 -0.117365922307E+01
 -0.897222050300E+00
 -0.861579797529E+00
 -0.678943688186E+00
 -0.672452381206E+00
 -0.459075640187E+00
 -0.469544650294E+00
 -0.264778112993E+00
 -0.254115411978E+00
 -0.117832074862E+00
 -0.109898733621E+00
 -0.183194860703E-01
 -0.134141761008E-01
  0.561638535880E-01
  0.591666228392E-01
  0.143279042927E+00
  0.145093848349E+00
  0.157147371341E+00
  0.156378882224E+00
  0.109614929597E+00
  0.109440010189E+00
  0.880078341887E-01
  0.880727473972E-01
  0.663555350335E-01
  0.662369244137E-01
  0.418373083491E-01
  0.406974489952E-01
  0.269445206393E-01
  0.306461915295E-01
  0.815705648892E-01
  0.889175975521E-01
  0.222618119402E+00
  0.232989912725E+00
  0.427671663244E+00
  0.435927169971E+00
  0.342786219536E+00
  0.303387384475E+00
 -0.135630039190E+01
 -0.125425246670E+01
 -0.131541484257E+01
 -0.125679115531E+01
 -0.925431092282E+00
 -0.901068233762E+00
 -0.689960190743E+00
 -0.684645151739E+00
 -0.459833596784E+00
 -0.464114219697E+00
 -0.255110413143E+00
 -0.250293786605E+00
 -0.110164875252E+00
 -0.106304950220E+00
 -0.133567686234E-01
 -0.106057830421E-01
  0.594894226436E-01
  0.614905083007E-01
  0.145784115643E+00
  0.147312361895E+00
  0.157023163964E+00
  0.156569323246E+00
  0.109172153051E+00
  0.109273076419E+00
  0.874851909251E-01
  0.877686983544E-01
  0.661216978660E-01
  0.662111462881E-01
  0.425690631917E-01
  0.418022690412E-01
  0.306607295216E-01
  0.334236518917E-01
  0.889095679148E-01
  0.946831091493E-01
  0.233419258426E+00
  0.241633165380E+00
  0.438262106380E+00
  0.444395222879E+00
  0.311921674460E+00
  0.281194027864E+00
 -0.143143731049E+01
 -0.135607603133E+01
 -0.135831507552E+01
 -0.131660852411E+01
 -0.945996429192E+00
 -0.928198949465E+00
 -0.699067938029E+00
 -0.693520702336E+00
 -0.462149989005E+00
 -0.462822928635E+00
 -0.251268996142E+00
 -0.249182438406E+00
 -0.106633064539E+00
 -0.104372990907E+00
 -0.105645254266E-01
 -0.848010117256E-02
  0.618427510538E-01
  0.637141059009E-01
  0.148092856734E+00
  0.149804168996E+00
  0.156207644733E+00
  0.156341549801E+00
  0.107860876699E+00
  0.108761282769E+00
  0.860327871650E-01
  0.871980818405E-01
  0.649357744625E-01
  0.659454397870E-01
  0.422513857990E-01
  0.425032175112E-01
  0.334168232913E-01
  0.347137495878E-01
  0.946209174960E-01
  0.982165421293E-01
  0.241809987725E+00
  0.247305621241E+00
  0.445820233632E+00
  0.449854501502E+00
  0.286635992499E+00
  0.264832197359E+00
 -0.148358382939E+01
 -0.143127235490E+01
 -0.138760821120E+01
 -0.135908988599E+01
 -0.960051420343E+00
 -0.947733350544E+00
 -0.705434683223E+00
 -0.701308133824E+00
 -0.463814121880E+00
 -0.464163836249E+00
 -0.250104336341E+00
 -0.248248123698E+00
 -0.104740886613E+00
 -0.102220185287E+00
 -0.846854878241E-02
 -0.576058593543E-02
  0.640728731574E-01
  0.667024997611E-01
  0.150653945987E+00
  0.153055887917E+00
  0.154147252241E+00
  0.155309749441E+00
  0.104965330171E+00
  0.107314441706E+00
  0.828060217974E-01
  0.856571877672E-01
  0.618757454761E-01
  0.647104130233E-01
  0.399671933957E-01
  0.421569049330E-01
  0.346751700755E-01
  0.337180013142E-01
  0.980667094757E-01
  0.989475873500E-01
  0.247179011189E+00
  0.249740950576E+00
  0.450394223575E+00
  0.452522033970E+00
  0.267787379828E+00
  0.254872300658E+00
 -0.151414890713E+01
 -0.148346038459E+01
 -0.140411985628E+01
 -0.138819670685E+01
 -0.967243751234E+00
 -0.961395720043E+00
 -0.707709991997E+00
 -0.707281640430E+00
 -0.462909080747E+00
 -0.465656837125E+00
 -0.249131375956E+00
 -0.245495981240E+00
 -0.102639687708E+00
 -0.981690333340E-01
 -0.578817331830E-02
 -0.104043549108E-02
  0.670849000957E-01
  0.716690497519E-01
  0.154050405134E+00
  0.158130409312E+00
  0.150556488833E+00
  0.152821741311E+00
  0.998232953276E-01
  0.104147335555E+00
  0.768938648195E-01
  0.822523457704E-01
  0.558734295667E-01
  0.615556682810E-01
  0.346176878158E-01
  0.398327802604E-01
  0.336194203657E-01
  0.294449173083E-01
  0.986480239519E-01
  0.961485926146E-01
  0.249221484818E+00
  0.248580874639E+00
  0.452167730871E+00
  0.452509567900E+00
  0.255770749088E+00
  0.251969053469E+00
 -0.152307674224E+01
 -0.151411203057E+01
 -0.140749501138E+01
 -0.140491164845E+01
 -0.966676306883E+00
 -0.968788606091E+00
 -0.704460468769E+00
 -0.709879100385E+00
 -0.457650486258E+00
 -0.465203979210E+00
 -0.246392827583E+00
 -0.239059371342E+00
 -0.986912017520E-01
 -0.903936815818E-01
 -0.113279947835E-02
  0.740737777681E-02
  0.721089969157E-01
  0.801903445893E-01
  0.159417491658E+00
  0.166379768367E+00
  0.145571767641E+00
  0.148427770458E+00
  0.921942273721E-01
  0.984775035963E-01
  0.677050886043E-01
  0.759831711229E-01
  0.459830638549E-01
  0.553588839290E-01
  0.250180692228E-01
  0.344082940433E-01
  0.292237901699E-01
  0.207166371326E-01
  0.955920478134E-01
  0.888955536601E-01
  0.247487155116E+00
  0.243281040945E+00
  0.451061096000E+00
  0.449666655939E+00
  0.250759449385E+00
  0.256363475271E+00
 -0.151021762401E+01
 -0.152317106275E+01
 -0.139722749235E+01
 -0.140881379379E+01
 -0.957425073976E+00
 -0.968905938416E+00
 -0.694257762311E+00
 -0.707591474539E+00
 -0.446166632192E+00
 -0.461071746718E+00
 -0.240045448755E+00
 -0.226890718569E+00
 -0.911238329360E-01
 -0.767503321669E-01
  0.717447142823E-02
  0.216574517038E-01
  0.807012844782E-01
  0.942253771904E-01
  0.168162203649E+00
  0.179672786157E+00
  0.139349810639E+00
  0.142056609509E+00
  0.825213935234E-01
  0.898933195778E-01
  0.556884911513E-01
  0.661125161812E-01
  0.322506783025E-01
  0.450678937680E-01
  0.104345044520E-01
  0.246477879950E-01
  0.202338338207E-01
  0.628580108121E-02
  0.878955208635E-01
  0.760205219335E-01
  0.241295160928E+00
  0.233081425641E+00
  0.446681562407E+00
  0.443581605103E+00
  0.252496124200E+00
  0.267578040470E+00
 -0.147639977404E+01
 -0.151046964038E+01
 -0.137333721392E+01
 -0.139933527924E+01
 -0.938828799192E+00
 -0.960803337930E+00
 -0.675691636462E+00
 -0.699101843172E+00
 -0.426328377900E+00
 -0.451682204062E+00
 -0.228052064542E+00
 -0.206713127873E+00
 -0.778894524924E-01
 -0.551458249040E-01
  0.210747103152E-01
  0.434525541242E-01
  0.946803066970E-01
  0.115462617548E+00
  0.182062529578E+00
  0.200165626886E+00
  0.131266751116E+00
  0.133640743384E+00
  0.707817113468E-01
  0.786476711334E-01
  0.418705095382E-01
  0.529108162695E-01
  0.164674161870E-01
  0.305465617279E-01
 -0.796316997970E-02
  0.969153977498E-02
  0.521563323059E-02
 -0.143952937323E-01
  0.742247665385E-01
  0.560801307084E-01
  0.229651350500E+00
  0.216860441311E+00
  0.438281337377E+00
  0.433526393784E+00
  0.259947196808E+00
  0.284330539377E+00
 -0.142385720342E+01
 -0.147680934445E+01
 -0.133663433253E+01
 -0.137644883627E+01
 -0.910541607199E+00
 -0.943883661680E+00
 -0.647251338754E+00
 -0.683332294730E+00
 -0.395655603446E+00
 -0.435569729032E+00
 -0.208160068956E+00
 -0.176824118292E+00
 -0.570982384777E-01
 -0.252962411547E-01
  0.419722563526E-01
  0.722299930917E-01
  0.115275479953E+00
  0.143368901887E+00
  0.202740522558E+00
  0.227840998823E+00
  0.116416857228E+00
  0.121863057141E+00
  0.533290481530E-01
  0.643507781930E-01
  0.248063997414E-01
  0.372021365477E-01
 -0.153473156643E-03
  0.133787069339E-01
 -0.266720900141E-01
 -0.956068189276E-02
 -0.167565607663E-01
 -0.388268458532E-01
  0.527540394717E-01
  0.278381761516E-01
  0.210944858360E+00
  0.192734933462E+00
  0.424540413982E+00
  0.418212892887E+00
  0.271037291464E+00
  0.304704882414E+00
 -0.135586827198E+01
 -0.142438829724E+01
 -0.128843822906E+01
 -0.134092466510E+01
 -0.872086932091E+00
 -0.918019481893E+00
 -0.606680280600E+00
 -0.659615584562E+00
 -0.351998896604E+00
 -0.411622099009E+00
 -0.178823027872E+00
 -0.139079217807E+00
 -0.288700461734E-01
  0.898728871558E-02
  0.685888093787E-01
  0.104445202085E+00
  0.140925224167E+00
  0.175675333957E+00
  0.228924806282E+00
  0.262034169233E+00
  0.832762102252E-01
  0.999133860139E-01
  0.215529624797E-01
  0.424271382603E-01
 -0.796664428229E-03
  0.171390195519E-01
 -0.200438671686E-01
 -0.541716372597E-02
 -0.442103446878E-01
 -0.299606528548E-01
 -0.436658204827E-01
 -0.608016612181E-01
  0.215124387139E-01
 -0.668419591770E-02
  0.182118744397E+00
  0.157497688125E+00
  0.402850815157E+00
  0.395082977749E+00
  0.282366263271E+00
  0.326469916459E+00
 -0.127565966758E+01
 -0.135643973431E+01
 -0.122952720519E+01
 -0.129410393337E+01
 -0.821217723888E+00
 -0.883517761957E+00
 -0.550043912169E+00
 -0.627980457484E+00
 -0.298323248152E+00
 -0.379653596770E+00
 -0.142274664091E+00
 -0.101128956033E+00
  0.235412680815E-02
  0.411499215209E-01
  0.961827768449E-01
  0.135763014038E+00
  0.167553098604E+00
  0.211145314182E+00
  0.257637527593E+00
  0.305261525052E+00
  0.568812943107E-02
  0.513258103917E-01
 -0.412018377073E-01
  0.209643930516E-02
 -0.439525591863E-01
 -0.135818783734E-01
 -0.487779305588E-01
 -0.287674027740E-01
 -0.639950505355E-01
 -0.504343804816E-01
 -0.697803014898E-01
 -0.783377409969E-01
 -0.182497247098E-01
 -0.384132830478E-01
  0.137371662049E+00
  0.108288161049E+00
  0.366997267619E+00
  0.358274179345E+00
  0.288028376280E+00
  0.347211830528E+00
 -0.118461747645E+01
 -0.127612996296E+01
 -0.115733030857E+01
 -0.123713883348E+01
 -0.749288589289E+00
 -0.841268927776E+00
 -0.478225016808E+00
 -0.588489066807E+00
 -0.246616892561E+00
 -0.344030903704E+00
 -0.106673753460E+00
 -0.723002850042E-01
  0.288283269862E-01
  0.637747522226E-01
  0.118256445877E+00
  0.161001116040E+00
  0.190363095235E+00
  0.250537019381E+00
  0.286030242551E+00
  0.367919920076E+00
 -0.197829484300E+00
 -0.660876056383E-01
 -0.174268230069E+00
 -0.798898782238E-01
 -0.123134291481E+00
 -0.676280853862E-01
 -0.974147464344E-01
 -0.644094606407E-01
 -0.941524056826E-01
 -0.757182168235E-01
 -0.944501389551E-01
 -0.972882375099E-01
 -0.583914537800E-01
 -0.639353611037E-01
  0.708551189053E-01
  0.525259869007E-01
  0.298834279794E+00
  0.292954889015E+00
  0.272642351830E+00
  0.363357676368E+00
 -0.107798861625E+01
 -0.118475513880E+01
 -0.105446175177E+01
 -0.117027645092E+01
 -0.641707535114E+00
 -0.791930737589E+00
 -0.411668803341E+00
 -0.544824194181E+00
 -0.208074188040E+00
 -0.320738039390E+00
 -0.833769128113E-01
 -0.641955533882E-01
  0.390410221411E-01
  0.632880979776E-01
  0.122916384551E+00
  0.165180961058E+00
  0.199545581420E+00
  0.287189027905E+00
  0.306008952633E+00
  0.476045085114E+00
 -0.769883005396E+00
 -0.403313600823E+00
 -0.487823665581E+00
 -0.297199541587E+00
 -0.325653112109E+00
 -0.198701947280E+00
 -0.222199182735E+00
 -0.141937729316E+00
 -0.166008554665E+00
 -0.124583315603E+00
 -0.136035953092E+00
 -0.134841621894E+00
 -0.103987694366E+00
 -0.104367122817E+00
 -0.212534310936E-01
 -0.204514789465E-01
  0.143935664478E+00
  0.165085853850E+00
  0.134996155726E+00
  0.342131748325E+00
 -0.885313927092E+00
 -0.107772416896E+01
 -0.813862916553E+00
 -0.110494039447E+01
 -0.534203173300E+00
 -0.741556297488E+00
 -0.380234069093E+00
 -0.536973153340E+00
 -0.199616242694E+00
 -0.357999936379E+00
 -0.107282675430E+00
 -0.127317363040E+00
 -0.188245814068E-01
 -0.350920512887E-01
  0.304961827281E-01
  0.403664192113E-01
  0.974541744645E-01
  0.177760873662E+00
  0.242160075677E+00
  0.523948652977E+00
 -0.230471989484E+01
 -0.233420655202E+01
 -0.119670860572E+01
 -0.119195368103E+01
 -0.631928011871E+00
 -0.631588631833E+00
 -0.357965843244E+00
 -0.368119927411E+00
 -0.247271830770E+00
 -0.250509863227E+00
 -0.225822102987E+00
 -0.200844145789E+00
 -0.211192128531E+00
 -0.163321918032E+00
 -0.191307332638E+00
 -0.120303293295E+00
 -0.136160028752E+00
 -0.150582618629E+00
 -0.883173736652E+00
 -0.712324285238E+00
 -0.932441802669E+00
 -0.561677155305E+00
 -0.705400625519E+00
 -0.451195718123E+00
 -0.595942195204E+00
 -0.295535543577E+00
 -0.520005621725E+00
 -0.249260292173E+00
 -0.436431221029E+00
 -0.278523266270E+00
 -0.639773133593E+00
 -0.476451195110E+00
 -0.118440734293E+01
 -0.884978833526E+00
 -0.232529999153E+01
 -0.140955999051E+01
 -0.403924569316E+01
 -0.406826493465E+01
 -0.202269369180E+01
 -0.202297439652E+01
 -0.106510560676E+01
 -0.107061958342E+01
 -0.604736958684E+00
 -0.620708822196E+00
 -0.406147900879E+00
 -0.414272373155E+00
 -0.351576718957E+00
 -0.335963886323E+00
 -0.341076708244E+00
 -0.310309722658E+00
 -0.349737549700E+00
 -0.304248273929E+00
 -0.362961762517E+00
 -0.286082761015E+00
 -0.847452275751E+00
 -0.719254066435E+00
 -0.863805380517E+00
 -0.626840958995E+00
 -0.717164875257E+00
 -0.545782068133E+00
 -0.660492184886E+00
 -0.417121979137E+00
 -0.668368058158E+00
 -0.438751525531E+00
 -0.709227731238E+00
 -0.586807164285E+00
 -0.113006231363E+01
 -0.101246352822E+01
 -0.210449929177E+01
 -0.187243427398E+01
 -0.416193532884E+01
 -0.331991576085E+01
 -0.565792580332E+01
 -0.564612518534E+01
 -0.276734777963E+01
 -0.277165805512E+01
 -0.145350040435E+01
 -0.147270695585E+01
 -0.829003661932E+00
 -0.860595784641E+00
 -0.554056804577E+00
 -0.574500128890E+00
 -0.475937830548E+00
 -0.471205545758E+00
 -0.464951760299E+00
 -0.444817550273E+00
 -0.483474105342E+00
 -0.454677546347E+00
 -0.532156218040E+00
 -0.404537685470E+00
 -0.762133109310E+00
 -0.727755512442E+00
 -0.779220130866E+00
 -0.659673715106E+00
 -0.694085534716E+00
 -0.600432302871E+00
 -0.683562682957E+00
 -0.511638292947E+00
 -0.757905830252E+00
 -0.592165539012E+00
 -0.914251230776E+00
 -0.841844948600E+00
 -0.151038204928E+01
 -0.145557633032E+01
 -0.283374634737E+01
 -0.271620899127E+01
 -0.571436385249E+01
 -0.516621963659E+01
 -0.659100234862E+01
 -0.665791153652E+01
 -0.320836140213E+01
 -0.326787953709E+01
 -0.168281541292E+01
 -0.174727834016E+01
 -0.960859314560E+00
 -0.103296504433E+01
 -0.642822068644E+00
 -0.692355061460E+00
 -0.566372063003E+00
 -0.582754845956E+00
 -0.563502094672E+00
 -0.558847072860E+00
 -0.585688958095E+00
 -0.583144458660E+00
 -0.646214340985E+00
 -0.526632792550E+00
 -0.649275463785E+00
 -0.720119253276E+00
 -0.681427647099E+00
 -0.651046479368E+00
 -0.638669392974E+00
 -0.606209482220E+00
 -0.660102206788E+00
 -0.560416522350E+00
 -0.777514963123E+00
 -0.680389689777E+00
 -0.101860745979E+01
 -0.993763987541E+00
 -0.171729197256E+01
 -0.171548030874E+01
 -0.323758778929E+01
 -0.322154225501E+01
 -0.661669214298E+01
 -0.641139691723E+01
SCALARS sigma float 1
LOOKUP_TABLE default
  0.000000000000E+00
  0.000000000000E+00
  0.000000000000E+00
  0.000000000000E+00
  0.000000000000E+00
  0.000000000000E+00
  0.000000000000E+00
  0.000000000000E+00
  0.000000000000E+00
  0.000000000000E+00
  0.000000000000E+00
  0.000000000000E+00
  0.000000000000E+00
  0.000000000000E+00
  0.000000000000E+00
  0.000000000000E+00
  0.000000000000E+00
  0.000000000000E+00
  0.000000000000E+00
  0.000000000000E+00
  0.000000000000E+00
  0.000000000000E+00
  0.000000000000E+00
  0.000000000000E+00
  0.000000000000E+00
  0.000000000000E+00
  0.000000000000E+00
  0.000000000000E+00
  0.000000000000E+00
  0.000000000000E+00
  0.000000000000E+00
  0.000000000000E+00
  0.000000000000E+00
  0.000000000000E+00
  0.000000000000E+00
  0.000000000000E+00
  0.000000000000E+00
  0.000000000000E+00
  0.000000000000E+00
  0.000000000000E+00
  0.000000000000E+00
  0.000000000000E+00