# vtk DataFile Version 3.0
MachLine results file. Generated by MachLine, USU AeroLab (c) 2022.
ASCII
DATASET POLYDATA
POINTS                 144 float
  0.000000000000E+00  0.000000000000E+00  0.000000000000E+00
  0.113538098335E+01  0.000000000000E+00 -0.658124566078E+00
  0.113538098335E+01  0.000000000000E+00  0.658124566078E+00
  0.192375373840E+01  0.192375373840E+01  0.000000000000E+00
  0.305913543701E+01  0.192375373840E+01 -0.658124983311E+00
  0.305913543701E+01  0.192375373840E+01  0.658124983311E+00
  0.423028087616E+01  0.000000000000E+00 -0.108747220039E+01
  0.423028087616E+01  0.000000000000E+00  0.108747220039E+01
  0.547033166885E+01  0.547033166885E+01  0.000000000000E+00
  0.615403699875E+01  0.192375373840E+01 -0.108747279644E+01
  0.615403699875E+01  0.192375373840E+01  0.108747279644E+01
  0.660571479797E+01  0.547033166885E+01 -0.658125698566E+00
  0.660571479797E+01  0.547033166885E+01  0.658125698566E+00
  0.939508819580E+01  0.000000000000E+00 -0.980745851994E+00
  0.939508819580E+01  0.000000000000E+00  0.980745851994E+00
  0.970061969757E+01  0.547033166885E+01 -0.108747410774E+01
  0.970061969757E+01  0.547033166885E+01  0.108747410774E+01
  0.113188476562E+02  0.192375373840E+01 -0.980746448040E+00
  0.113188476562E+02  0.192375373840E+01  0.980746448040E+00
  0.113820018768E+02  0.113820018768E+02  0.000000000000E+00
  0.125173873901E+02  0.113820018768E+02 -0.658127009869E+00
  0.125173873901E+02  0.113820018768E+02  0.658127009869E+00
  0.145402030945E+02  0.000000000000E+00 -0.479613035917E+00
  0.145402030945E+02  0.000000000000E+00  0.479613035917E+00
  0.148654365540E+02  0.547033166885E+01 -0.980747580528E+00
  0.148654365540E+02  0.547033166885E+01  0.980747580528E+00
  0.156122989655E+02  0.113820018768E+02 -0.108747613430E+01
  0.156122989655E+02  0.113820018768E+02  0.108747613430E+01
  0.164639663696E+02  0.192375373840E+01 -0.479613333941E+00
  0.164639663696E+02  0.192375373840E+01  0.479613333941E+00
  0.176505107880E+02  0.000000000000E+00 -0.144198849797E+00
  0.176505107880E+02  0.000000000000E+00  0.144198849797E+00
  0.190000000000E+02  0.000000000000E+00  0.000000000000E+00
  0.195742740631E+02  0.192375373840E+01 -0.144198939204E+00
  0.195742740631E+02  0.192375373840E+01  0.144198939204E+00
  0.197561950684E+02  0.197561950684E+02  0.000000000000E+00
  0.200105609894E+02  0.547033166885E+01 -0.479613870382E+00
  0.200105609894E+02  0.547033166885E+01  0.479613870382E+00
  0.207771244049E+02  0.113820018768E+02 -0.980749428272E+00
  0.207771244049E+02  0.113820018768E+02  0.980749428272E+00
  0.208915824890E+02  0.197561950684E+02 -0.658128738403E+00
  0.208915824890E+02  0.197561950684E+02  0.658128738403E+00
  0.209237651825E+02  0.192375373840E+01  0.000000000000E+00
  0.231208724976E+02  0.547033166885E+01 -0.144199103117E+00
  0.231208724976E+02  0.547033166885E+01  0.144199103117E+00
  0.239865016937E+02  0.197561950684E+02 -0.108747911453E+01
  0.239865016937E+02  0.197561950684E+02  0.108747911453E+01
  0.244703655243E+02  0.547033166885E+01  0.000000000000E+00
  0.259222583771E+02  0.113820018768E+02 -0.479614794254E+00
  0.259222583771E+02  0.113820018768E+02  0.479614794254E+00
  0.290325775146E+02  0.113820018768E+02 -0.144199386239E+00
  0.290325775146E+02  0.113820018768E+02  0.144199386239E+00
  0.291513423920E+02  0.197561950684E+02 -0.980752110481E+00
  0.291513423920E+02  0.197561950684E+02  0.980752110481E+00
  0.292438049316E+02  0.292438049316E+02  0.000000000000E+00
  0.303791980743E+02  0.292438049316E+02 -0.658130764961E+00
  0.303791980743E+02  0.292438049316E+02  0.658130764961E+00
  0.303820724487E+02  0.113820018768E+02  0.000000000000E+00
  0.334741249084E+02  0.292438049316E+02 -0.108748245239E+01
  0.334741249084E+02  0.292438049316E+02  0.108748245239E+01
  0.342964897156E+02  0.197561950684E+02 -0.479616105556E+00
  0.342964897156E+02  0.197561950684E+02  0.479616105556E+00
  0.374068183899E+02  0.197561950684E+02 -0.144199773669E+00
  0.374068183899E+02  0.197561950684E+02  0.144199773669E+00
  0.376179962158E+02  0.376179962158E+02  0.000000000000E+00
  0.386389808655E+02  0.292438049316E+02 -0.980755090714E+00
  0.386389808655E+02  0.292438049316E+02  0.980755090714E+00
  0.387533912659E+02  0.376179962158E+02 -0.658132553101E+00
  0.387533912659E+02  0.376179962158E+02  0.658132553101E+00
  0.387563171387E+02  0.197561950684E+02  0.000000000000E+00
  0.418483314514E+02  0.376179962158E+02 -0.108748543262E+01
  0.418483314514E+02  0.376179962158E+02  0.108748543262E+01
  0.435296669006E+02  0.435296669006E+02  0.000000000000E+00
  0.437841453552E+02  0.292438049316E+02 -0.479617565870E+00
  0.437841453552E+02  0.292438049316E+02  0.479617565870E+00
  0.446650657654E+02  0.435296669006E+02 -0.658133804798E+00
  0.446650657654E+02  0.435296669006E+02  0.658133804798E+00
  0.468944816589E+02  0.292438049316E+02 -0.144200220704E+00
  0.468944816589E+02  0.292438049316E+02  0.144200220704E+00
  0.470131988525E+02  0.376179962158E+02 -0.980757772923E+00
  0.470131988525E+02  0.376179962158E+02  0.980757772923E+00
  0.470762481689E+02  0.470762481689E+02  0.000000000000E+00
  0.477600097656E+02  0.435296669006E+02 -0.108748745918E+01
  0.477600097656E+02  0.435296669006E+02  0.108748745918E+01
  0.482116432190E+02  0.470762481689E+02 -0.658134579659E+00
  0.482116432190E+02  0.470762481689E+02  0.658134579659E+00
  0.482439842224E+02  0.292438049316E+02  0.000000000000E+00
  0.490000000000E+02  0.490000000000E+02  0.000000000000E+00
  0.501353988647E+02  0.490000000000E+02 -0.658134996891E+00
  0.501353988647E+02  0.490000000000E+02  0.658134996891E+00
  0.506007728577E+02  0.494653701782E+02 -0.465371757746E+00
  0.506007728577E+02  0.494653701782E+02  0.465371757746E+00
  0.507935333252E+02  0.496581344604E+02 -0.771266485397E-15
  0.513065910339E+02  0.470762481689E+02 -0.108748877048E+01
  0.513065910339E+02  0.470762481689E+02  0.108748877048E+01
  0.521583786011E+02  0.376179962158E+02 -0.479618877172E+00
  0.521583786011E+02  0.376179962158E+02  0.479618877172E+00
  0.529248886108E+02  0.435296669006E+02 -0.980759620667E+00
  0.529248886108E+02  0.435296669006E+02  0.980759620667E+00
  0.532303466797E+02  0.490000000000E+02 -0.108748936653E+01
  0.532303466797E+02  0.490000000000E+02  0.108748936653E+01
  0.539993209839E+02  0.497689704895E+02 -0.768971264362E+00
  0.539993209839E+02  0.497689704895E+02  0.768971264362E+00
  0.543178405762E+02  0.500874900818E+02 -0.157378642191E-15
  0.552687225342E+02  0.376179962158E+02 -0.144200608134E+00
  0.552687225342E+02  0.376179962158E+02  0.144200608134E+00
  0.564714775085E+02  0.470762481689E+02 -0.980760753155E+00
  0.564714775085E+02  0.470762481689E+02  0.980760753155E+00
  0.566182289124E+02  0.376179962158E+02  0.000000000000E+00
  0.580700759888E+02  0.435296669006E+02 -0.479619771242E+00
  0.580700759888E+02  0.435296669006E+02  0.479619771242E+00
  0.583952369690E+02  0.490000000000E+02 -0.980761349201E+00
  0.583952369690E+02  0.490000000000E+02  0.980761349201E+00
  0.590887413025E+02  0.496935043335E+02 -0.693503141403E+00
  0.590887413025E+02  0.496935043335E+02  0.693503141403E+00
  0.593759994507E+02  0.499807624817E+02  0.000000000000E+00
  0.611804275513E+02  0.435296669006E+02 -0.144200876355E+00
  0.611804275513E+02  0.435296669006E+02  0.144200876355E+00
  0.616166725159E+02  0.470762481689E+02 -0.479620337486E+00
  0.616166725159E+02  0.470762481689E+02  0.479620337486E+00
  0.625299339294E+02  0.435296669006E+02  0.000000000000E+00
  0.635404319763E+02  0.490000000000E+02 -0.479620635509E+00
  0.635404319763E+02  0.490000000000E+02  0.479620635509E+00
  0.638795776367E+02  0.493391418457E+02 -0.339143037796E+00
  0.638795776367E+02  0.493391418457E+02  0.339143037796E+00
  0.640200576782E+02  0.494796218872E+02  0.296956834055E-15
  0.647270278931E+02  0.470762481689E+02 -0.144201040268E+00
  0.647270278931E+02  0.470762481689E+02  0.144201040268E+00
  0.660765380859E+02  0.470762481689E+02  0.000000000000E+00
  0.666507873535E+02  0.490000000000E+02 -0.144201144576E+00
  0.666507873535E+02  0.490000000000E+02  0.144201144576E+00
  0.667527542114E+02  0.491019668579E+02 -0.101965606213E+00
  0.667527542114E+02  0.491019668579E+02  0.101965606213E+00
  0.667949905396E+02  0.491441993713E+02 -0.260488604752E-16
  0.680002975464E+02  0.490000000000E+02  0.000000000000E+00
  0.190000000000E+02  0.000000000000E+00  0.000000000000E+00
  0.209237651825E+02  0.192375373840E+01  0.000000000000E+00
  0.244703655243E+02  0.547033166885E+01  0.000000000000E+00
  0.303820724487E+02  0.113820018768E+02  0.000000000000E+00
  0.387563171387E+02  0.197561950684E+02  0.000000000000E+00
  0.482439842224E+02  0.292438049316E+02  0.000000000000E+00
  0.566182289124E+02  0.376179962158E+02  0.000000000000E+00
  0.625299339294E+02  0.435296669006E+02  0.000000000000E+00
  0.660765380859E+02  0.470762481689E+02  0.000000000000E+00
POLYGONS                 256                1024
3                  32                  33                  42
3                  32                  30                  33
3                  30                  28                  33
3                  30                  22                  28
3                  22                  17                  28
3                  22                  13                  17
3                  13                   6                  17
3                  17                   6                   9
3                   6                   1                   9
3                   9                   1                   4
3                   1                   0                   4
3                   4                   0                   3
3                   0                   5                   3
3                   0                   2                   5
3                   2                  10                   5
3                   2                   7                  10
[...]
CELL_DATA                 256
SCALARS C_p_inc float 1
LOOKUP_TABLE default
  0.135592085625E+00
  0.115337584253E+00
  0.772263294384E-01
  0.590372347729E-01
  0.257820906090E-01
  0.129954591925E-01
  0.551995860782E-01
  0.324562514990E-01
  0.252498010472E+00
  0.187407452113E+00
  0.596748526000E+00
  0.597520368241E+00
 -0.549952213793E+00
  0.814110693706E-02
 -0.663864047363E+00
 -0.466742670749E+00
 -0.469814988508E+00
 -0.481122675482E+00
 -0.338271878383E+00
 -0.276730340095E+00
 -0.151359746037E+00
 -0.722905207016E-01
  0.126279358852E-01
  0.991556085739E-01
  0.130668794225E+00
  0.134270740086E+00
  0.791167656169E-01
  0.770946443332E-01
  0.334176794474E-01
  0.259047872810E-01
  0.331465050988E-01
  0.283948086595E-01
  0.181757212961E+00
  0.184491821445E+00
  0.524510898840E+00
  0.508851201786E+00
 -0.840494790329E+00
 -0.523576991350E+00
 -0.803857269563E+00
 -0.658896746653E+00
 -0.482883525218E+00
 -0.487746134990E+00
 -0.277426942664E+00
 -0.222763560575E+00
 -0.720398554994E-01
 -0.259266504922E-01
  0.960134018026E-01
  0.112350771747E+00
  0.129011724463E+00
  0.129905590050E+00
  0.766210164529E-01
  0.788333066779E-01
  0.352573177253E-01
  0.335399965340E-01
  0.285611345301E-01
  0.384650329906E-01
  0.182975990842E+00
  0.204589488438E+00
  0.512179061112E+00
  0.493982360001E+00
 -0.103599275989E+01
 -0.834584708982E+00
 -0.884367224283E+00
 -0.808208384878E+00
 -0.485744871077E+00
 -0.498902339033E+00
 -0.224200281324E+00
 -0.198336113027E+00
 -0.259236197745E-01
 -0.111366021656E-01
  0.112465338364E+00
  0.119547798822E+00
  0.126000759432E+00
  0.128115326169E+00
  0.729817120861E-01
  0.762370855573E-01
  0.339393191699E-01
  0.352359485271E-01
  0.384583003101E-01
  0.439769766563E-01
  0.205198245093E+00
  0.221933248763E+00
  0.504747503807E+00
  0.490947416915E+00
 -0.113680413487E+01
 -0.103599228238E+01
 -0.922739013306E+00
 -0.891333494579E+00
 -0.491815342747E+00
 -0.494628531251E+00
 -0.199810611384E+00
 -0.191615792223E+00
 -0.110831358160E-01
 -0.322030125458E-02
  0.120709672303E+00
  0.127185536901E+00
  0.115560913190E+00
  0.124547408492E+00
  0.608365905238E-01
  0.723466131025E-01
  0.243545529298E-01
  0.337937456830E-01
  0.438363222270E-01
  0.387976538518E-01
  0.221708109527E+00
  0.223707876012E+00
  0.495101274451E+00
  0.490943601973E+00
 -0.116295540490E+01
 -0.113738179858E+01
 -0.928212377459E+00
 -0.926815667555E+00
 -0.485418217415E+00
 -0.496559245810E+00
 -0.193117609543E+00
 -0.179113588615E+00
 -0.328432999539E-02
  0.131975267397E-01
  0.128805857826E+00
  0.143816205473E+00
  0.937949448120E-01
  0.112349757842E+00
  0.332795328606E-01
  0.594062915815E-01
 -0.212457543722E-02
  0.239872624358E-01
  0.382665166149E-01
  0.153606770008E-01
  0.221812186787E+00
  0.206634574302E+00
  0.488444811679E+00
  0.495348044650E+00
 -0.111722909004E+01
 -0.116389875743E+01
 -0.894714287783E+00
 -0.933140960299E+00
 -0.453115735576E+00
 -0.491962119838E+00
 -0.180953098461E+00
 -0.143530668554E+00
  0.127948209266E-01
  0.542129568552E-01
  0.146376914630E+00
  0.183688890145E+00
  0.587633520196E-01
  0.860379699425E-01
 -0.421698491472E-02
  0.294919199060E-01
 -0.398234437276E-01
 -0.336543509947E-02
  0.135045880915E-01
 -0.308235321248E-01
  0.201124807473E+00
  0.165460249632E+00
  0.483470954405E+00
  0.500430215923E+00
 -0.101338901324E+01
 -0.111900878784E+01
 -0.823910773088E+00
 -0.903950736390E+00
 -0.385039516577E+00
 -0.467454093060E+00
 -0.146424849572E+00
 -0.719364169254E-01
  0.522752512248E-01
  0.128551892235E+00
  0.187171582770E+00
  0.259243544297E+00
 -0.287907868939E-01
  0.394178613336E-01
 -0.633715505916E-01
 -0.135981762571E-01
 -0.723069478250E-01
 -0.446236317624E-01
 -0.369157756648E-01
 -0.713656211025E-01
  0.148893516513E+00
  0.875628069051E-01
  0.465335620193E+00
  0.494689214798E+00
 -0.872804902384E+00
 -0.101550846208E+01
 -0.715832524552E+00
 -0.842317134255E+00
 -0.268270990489E+00
 -0.423923355924E+00
 -0.793439344935E-01
  0.663661262657E-02
  0.118604888646E+00
  0.210936241378E+00
  0.254952351138E+00
  0.372608293794E+00
 -0.246870397725E+00
 -0.842705130555E-01
 -0.167281549840E+00
 -0.932108829199E-01
 -0.126040073091E+00
 -0.926393794697E-01
 -0.958105839159E-01
 -0.969813817316E-01
  0.342299833560E-01
  0.124016695046E-01
  0.334443955973E+00
  0.423053247819E+00
 -0.659033525034E+00
 -0.872190504206E+00
 -0.468864033725E+00
 -0.790666684754E+00
 -0.162531749257E+00
 -0.390525910984E+00
 -0.301711889616E-01
  0.124295623255E-01
  0.151586638609E+00
  0.217479254274E+00
  0.311271636323E+00
  0.480810488427E+00
 -0.843840107886E+00
 -0.845611101170E+00
 -0.410924915417E+00
 -0.425428715745E+00
 -0.241284547343E+00
 -0.243294068219E+00
 -0.228118161975E+00
 -0.187142318440E+00
 -0.223245331541E+00
 -0.754479035226E-01
 -0.659946532857E+00
 -0.412900386717E+00
 -0.645705154911E+00
 -0.244747821291E+00
 -0.514378053497E+00
 -0.181551627119E+00
 -0.456451415548E+00
 -0.257795348057E+00
 -0.838409113424E+00
 -0.468831942229E+00
 -0.175010023954E+01
 -0.180430557311E+01
 -0.806332933524E+00
 -0.871995124740E+00
 -0.441752467414E+00
 -0.485321661160E+00
 -0.418069389983E+00
 -0.427007802121E+00
 -0.466155539304E+00
 -0.352130589192E+00
 -0.554734497904E+00
 -0.528873404677E+00
 -0.571193126111E+00
 -0.404180770928E+00
 -0.608358888338E+00
 -0.445093352969E+00
 -0.852757426671E+00
 -0.785687608116E+00
 -0.176968605959E+01
 -0.161419864288E+01
SCALARS sigma float 1
LOOKUP_TABLE default
  0.000000000000E+00
  0.000000000000E+00
  0.000000000000E+00
  0.000000000000E+00
  0.000000000000E+00
  0.000000000000E+00
  0.000000000000E+00
  0.000000000000E+00
  0.000000000000E+00
  0.000000000000E+00
  0.000000000000E+00
  0.000000000000E+00
  0.000000000000E+00
  0.000000000000E+00
  0.000000000000E+00
  0.000000000000E+00
  0.000000000000E+00
  0.000000000000E+00
  0.000000000000E+00
  0.000000000000E+00
  0.000000000000E+00
  0.000000000000E+00
  0.000000000000E+00
  0.000000000000E+00
  0.000000000000E+00
  0.000000000000E+00
  0.000000000000E+00
  0.000000000000E+00
  0.000000000000E+00
  0.000000000000E+00
  0.000000000000E+00
  0.000000000000E+00
  0.000000000000E+00
  0.000000000000E+00
  0.000000000000E+00
  0.000000000000E+00
  0.000000000000E+00
  0.000000000000E+00
  0.000000000000E+00
  0.000000000000E+00
  0.000000000000E+00
  0.000000000000E+00
  0.000000000000E+00
  0.000000000000E+00
  0.000000000000E+00
  0.000000000000E+00
  0.000000000000E+00
  0.000000000000E+00
  0.000000000000E+00
  0.000000000000E+00
  0.000000000000E+00
  0.000000000000E+00
  0.000000000000E+00
  0.000000000000E+00
  0.000000000000E+00
  0.000000000000E+00
  0.000000000000E+00
  0.000000000000E+00
  0.000000000000E+00
  0.000000000000E+00
  0.000000000000E+00
  0.000000000000E+00
  0.000000000000E+00
  0.000000000000E+00
  0.000000000000E+00
  0.000000000000E+00
  0.000000000000E+00
  0.000000000000E+00
  0.000000000000E+00
  0.000000000000E+00
  0.000000000000E+00
  0.000000000000E+00
  0.000000000000E+00
  0.000000000000E+00
  0.000000000000E+00
  0.000000000000E+00
  0.000000000000E+00
  0.000000000000E+00
  0.000000000000E+00
  0.000000000000E+00
  0.000000000000E+00
  0.000000000000E+00
  0.000000000000E+00
  0.000000000000E+00
  0.000000000000E+00
  0.000000000000E+00
  0.000000000000E+00
  0.000000000000E+00
  0.000000000000E+00
  0.000000000000E+00
  0.000000000000E+00
  0.000000000000E+00
  0.000000000000E+00
  0.000000000000E+00
  0.000000000000E+00
  0.000000000000E+00
  0.000000000000E+00
  0.000000000000E+00
  0.000000000000E+00
  0.000000000000E+00
  0.000000000000E+00
  0.000000000000E+00
  0.000000000000E+00
  0.000000000000E+00
  0.000000000000E+00
  0.000000000000E+00
  0.000000000000E+00
  0.000000000000E+00
  0.000000000000E+00
  0.000000000000E+00
  0.000000000000E+00
  0.000000000000E+00
  0.000000000000E+00
  0.000000000000E+00
  0.000000000000E+00
  0.000000000000E+00
  0.000000000000E+00
  0.000000000000E+00
  0.000000000000E+00
  0.000000000000E+00
  0.000000000000E+00
  0.000000000000E+00
  0.000000000000E+00
  0.000000000000E+00
  0.000000000000E+00
  0.000000000000E+00
  0.000000000000E+00
  0.000000000000E+00
  0.000000000000E+00
  0.000000000000E+00
  0.000000000000E+00
  0.000000000000E+00
  0.000000000000E+00
  0.000000000000E+00
  0.000000000000E+00
  0.000000000000E+00
  0.000000000000E+00
  0.000000000000E+00
  0.000000000000E+00
  0.000000000000E+00
  0.000000000000E+00
  0.000000000000E+00
  0.000000000000E+00
  0.000000000000E+00
  0.000000000000E+00
  0.000000000000E+00
  0.000000000000E+00
  0.000000000000E+00
  0.000000000000E+00
  0.000000000000E+00
  0.000000000000E+00
  0.000000000000E+00
  0.000000000000E+00
  0.000000000000E+00
  0.000000000000E+00
  0.000000000000E+00
  0.000000000000E+00
  0.000000000000E+00
  0.000000000000E+00
  0.000000000000E+00
  0.000000000000E+00
  0.000000000000E+00
  0.000000000000E+00
  0.000000000000E+00
  0.000000000000E+00
  0.000000000000E+00
  0.000000000000E+00
  0.000000000000E+00
  0.000000000000E+00
  0.000000000000E+00
  0.000000000000E+00
  0.000000000000E+00
  0.000000000000E+00
  0.000000000000E+00
  0.000000000000E+00
  0.000000000000E+00
  0.000000000000E+00
  0.000000000000E+00
  0.000000000000E+00
  0.000000000000E+00
  0.000000000000E+00
  0.000000000000E+00
  0.000000000000E+00
  0.000000000000E+00
  0.000000000000E+00
  0.000000000000E+00
  0.000000000000E+00
  0.000000000000E+00
  0.000000000000E+00
  0.000000000000E+00
  0.000000000000E+00
  0.000000000000E+00
  0.000000000000E+00
  0.000000000000E+00
  0.000000000000E+00
  0.000000000000E+00
  0.000000000000E+00
  0.000000000000E+00
  0.000000000000E+00
  0.000000000000E+00
  0.000000000000E+00
  0.000000000000E+00
  0.000000000000E+00
  0.000000000000E+00
  0.000000000000E+00
  0.000000000000E+00
  0.000000000000E+00
  0.000000000000E+00
  0.000000000000E+00
  0.000000000000E+00
  0.000000000000E+00
  0.000000000000E+00
  0.000000000000E+00
  0.000000000000E+00
  0.000000000000E+00
  0.000000000000E+00
  0.000000000000E+00
  0.000000000000E+00
  0.000000000000E+00
  0.000000000000E+00
  0.000000000000E+00
  0.000000000000E+00
  0.000000000000E+00
  0.000000000000E+00
  0.000000000000E+00
  0.000000000000E+00
  0.000000000000E+00
  0.000000000000E+00
  0.000000000000E+00
  0.000000000000E+00
  0.000000000000E+00
  0.000000000000E+00
  0.000000000000E+00
  0.000000000000E+00
  0.000000000000E+00
  0.000000000000E+00
  0.000000000000E+00
  0.000000000000E+00
  0.000000000000E+00
  0.000000000000E+00
  0.000000000000E+00
  0.000000000000E+00
  0.000000000000E+00
  0.000000000000E+00
  0.000000000000E+00
  0.000000000000E+00
  0.000000000000E+00
  0.000000000000E+00
  0.000000000000E+00
  0.000000000000E+00
  0.000000000000E+00
  0.000000000000E+00
  0.000000000000E+00
  0.000000000000E+00
  0.000000000000E+00
  0.000000000000E+00
SCALARS inclination float 1
LOOKUP_TABLE default
  0.100000000000E+01
  0.100000000000E+01
  0.100000000000E+01
  0.100000000000E+01
  0.100000000000E+01
  0.100000000000E+01
  0.100000000000E+01
  0.100000000000E+01
  0.100000000000E+01
  0.100000000000E+01
  0.100000000000E+01
  0.100000000000E+01
  0.100000000000E+01
  0.100000000000E+01
  0.100000000000E+01
  0.100000000000E+01
  0.100000000000E+01
  0.100000000000E+01
  0.100000000000E+01
  0.100000000000E+01
  0.100000000000E+01
  0.100000000000E+01
  0.100000000000E+01
  0.100000000000E+01
  0.100000000000E+01
  0.100000000000E+01
  0.100000000000E+01
  0.100000000000E+01
  0.100000000000E+01
  0.100000000000E+01
  0.100000000000E+01
  0.100000000000E+01
  0.100000000000E+01
  0.100000000000E+01
  0.100000000000E+01
  0.100000000000E+01
  0.100000000000E+01
  0.100000000000E+01
  0.100000000000E+01
  0.100000000000E+01
  0.100000000000E+01
  0.100000000000E+01
  0.100000000000E+01
  0.100000000000E+01
  0.100000000000E+01
  0.100000000000E+01
  0.100000000000E+01
  0.100000000000E+01
  0.100000000000E+01
  0.100000000000E+01
  0.100000000000E+01
  0.100000000000E+01
  0.100000000000E+01
  0.100000000000E+01
  0.100000000000E+01
  0.100000000000E+01
  0.100000000000E+01
  0.100000000000E+01
  0.100000000000E+01
  0.100000000000E+01
  0.100000000000E+01
  0.100000000000E+01
  0.100000000000E+01
  0.100000000000E+01
  0.100000000000E+01
  0.100000000000E+01
  0.100000000000E+01
  0.100000000000E+01
  0.100000000000E+01
  0.100000000000E+01
  0.100000000000E+01
  0.100000000000E+01
  0.100000000000E+01
  0.100000000000E+01
  0.100000000000E+01
  0.100000000000E+01
  0.100000000000E+01
  0.100000000000E+01
  0.100000000000E+01
  0.100000000000E+01
  0.100000000000E+01
  0.100000000000E+01
  0.100000000000E+01
  0.100000000000E+01
  0.100000000000E+01
  0.100000000000E+01
  0.100000000000E+01
  0.100000000000E+01
  0.100000000000E+01
  0.100000000000E+01
  0.100000000000E+01
  0.100000000000E+01
  0.100000000000E+01
  0.100000000000E+01
  0.100000000000E+01
  0.100000000000E+01
  0.100000000000E+01
  0.100000000000E+01
  0.100000000000E+01
  0.100000000000E+01
  0.100000000000E+01
  0.100000000000E+01
  0.100000000000E+01
  0.100000000000E+01
  0.100000000000E+01
  0.100000000000E+01
  0.100000000000E+01
  0.100000000000E+01
  0.100000000000E+01
  0.100000000000E+01
  0.100000000000E+01
  0.100000000000E+01
  0.100000000000E+01
  0.100000000000E+01
  0.100000000000E+01
  0.100000000000E+01
  0.100000000000E+01
  0.100000000000E+01
  0.100000000000E+01
  0.100000000000E+01
  0.100000000000E+01
  0.100000000000E+01
  0.100000000000E+01
  0.100000000000E+01
  0.100000000000E+01
  0.100000000000E+01
  0.100000000000E+01
  0.100000000000E+01
  0.100000000000E+01
  0.100000000000E+01
  0.100000000000E+01
  0.100000000000E+01
  0.100000000000E+01
  0.100000000000E+01
  0.100000000000E+01
  0.100000000000E+01
  0.100000000000E+01
  0.100000000000E+01
  0.100000000000E+01
  0.100000000000E+01
  0.100000000000E+01
  0.100000000000E+01
  0.100000000000E+01
  0.100000000000E+01
  0.100000000000E+01
  0.100000000000E+01
  0.100000000000E+01
  0.100000000000E+01
  0.100000000000E+01
  0.100000000000E+01
  0.100000000000E+01
  0.100000000000E+01
  0.100000000000E+01
  0.100000000000E+01
  0.100000000000E+01
  0.100000000000E+01
  0.100000000000E+01
  0.100000000000E+01
  0.100000000000E+01
  0.100000000000E+01
  0.100000000000E+01
  0.100000000000E+01
  0.100000000000E+01
  0.100000000000E+01
  0.100000000000E+01
  0.100000000000E+01
  0.100000000000E+01
  0.100000000000E+01
  0.100000000000E+01
  0.100000000000E+01
  0.100000000000E+01
  0.100000000000E+01
  0.100000000000E+01
  0.100000000000E+01
  0.100000000000E+01
  0.100000000000E+01
  0.100000000000E+01
  0.100000000000E+01
  0.100000000000E+01
  0.100000000000E+01
  0.100000000000E+01
  0.100000000000E+01
  0.100000000000E+01
  0.100000000000E+01
  0.100000000000E+01
  0.100000000000E+01
  0.100000000000E+01
  0.100000000000E+01
  0.100000000000E+01
  0.100000000000E+01
  0.100000000000E+01
  0.100000000000E+01
  0.100000000000E+01
  0.100000000000E+01
  0.100000000000E+01
  0.100000000000E+01
  0.100000000000E+01
  0.100000000000E+01
  0.100000000000E+01
  0.100000000000E+01
  0.100000000000E+01
  0.100000000000E+01
  0.100000000000E+01
  0.100000000000E+01
  0.100000000000E+01
  0.100000000000E+01
  0.100000000000E+01
  0.100000000000E+01
  0.100000000000E+01
  0.100000000000E+01
  0.100000000000E+01
  0.100000000000E+01
  0.100000000000E+01
  0.100000000000E+01
  0.100000000000E+01
  0.100000000000E+01
  0.100000000000E+01
  0.100000000000E+01
  0.100000000000E+01
  0.100000000000E+01
  0.100000000000E+01
  0.100000000000E+01
  0.100000000000E+01
  0.100000000000E+01
  0.100000000000E+01
  0.100000000000E+01
  0.100000000000E+01
  0.100000000000E+01
  0.100000000000E+01
  0.100000000000E+01
  0.100000000000E+01
  0.100000000000E+01
  0.100000000000E+01
  0.100000000000E+01
  0.100000000000E+01
  0.100000000000E+01
  0.100000000000E+01
  0.100000000000E+01
  0.100000000000E+01
  0.100000000000E+01
  0.100000000000E+01
  0.100000000000E+01
  0.100000000000E+01
  0.100000000000E+01
  0.100000000000E+01
  0.100000000000E+01
  0.100000000000E+01
  0.100000000000E+01
  0.100000000000E+01
  0.100000000000E+01
  0.100000000000E+01
  0.100000000000E+01
  0.100000000000E+01
  0.100000000000E+01
  0.100000000000E+01
  0.100000000000E+01
VECTORS v float
  0.150690564400E+03  0.326143193806E+01  0.157534357992E+02
  0.152450475681E+03  0.275422712921E+01  0.159957000964E+02
  0.155670952561E+03 -0.466265677014E+00  0.168377783019E+02
  0.157208720238E+03  0.493081620258E+00  0.169001438127E+02
  0.160087109138E+03 -0.238532171533E+01  0.158247705430E+02
  0.161168034531E+03 -0.593336398157E+00  0.157555146528E+02
  0.158389418456E+03  0.218528406061E+01  0.322782470786E+01
  0.160230543228E+03 -0.460871432277E+01  0.340626233619E+01
  0.138901046853E+03  0.167208021796E+02 -0.169497586234E+02
  0.145510838247E+03 -0.128483993917E+01 -0.203645904374E+02
  0.817941922923E+02  0.624318316886E+02 -0.112234091062E+02
  0.820864950544E+02  0.617797399696E+02 -0.117708281432E+02
  0.167954623424E+03 -0.240883884005E+02  0.111317897855E+03
  0.144818843251E+03  0.275247095693E+02  0.679896457731E+02
  0.205058277684E+03 -0.327147396687E+02  0.329856398492E+02
  0.195320553507E+03 -0.618833901965E+01  0.279548181377E+02
  0.197395958506E+03 -0.826373661283E+01 -0.424978262437E+01
  0.198040620215E+03 -0.106426253621E+02 -0.431226564763E+01
  0.187673528298E+03 -0.275498272874E+00 -0.183061851229E+02
  0.183064948098E+03 -0.791571669771E+01 -0.186014680297E+02
  0.173902985916E+03  0.124629090614E+01 -0.186192196622E+02
  0.167766359034E+03 -0.258209260981E+01 -0.183703135187E+02
  0.161044257723E+03  0.414004194993E+01 -0.167659022558E+02
  0.153776181863E+03  0.623469765348E+01 -0.157654391775E+02
  0.151049878975E+03  0.653831456408E+01  0.154416744718E+02
  0.150729770577E+03  0.673437955175E+01  0.153865233371E+02
  0.155527671836E+03  0.193645060926E+01  0.165632154697E+02
  0.155698354495E+03  0.191738921434E+01  0.165836793483E+02
  0.159470334336E+03 -0.185460850801E+01  0.157130063575E+02
  0.160094785346E+03 -0.156849684000E+01  0.157459591426E+02
  0.160231782409E+03 -0.170549828615E+01  0.334629460020E+01
  0.160612037749E+03 -0.264033089044E+01  0.337347175500E+01
  0.145765573589E+03  0.122061451321E+02 -0.185283616646E+02
  0.145484256888E+03  0.127467547547E+02 -0.184143432435E+02
  0.849731777172E+02  0.732578606764E+02 -0.679079129882E+01
  0.794934262580E+02  0.820242375855E+02  0.146698672027E+01
  0.184308773503E+03 -0.227911096595E+02  0.120045605561E+03
  0.172879338050E+03 -0.450657209656E+01  0.102821896338E+03
  0.211663842736E+03 -0.432910788231E+02  0.353692517250E+02
  0.205096863276E+03 -0.306712203994E+02  0.327075002937E+02
  0.197135391732E+03 -0.227097243789E+02 -0.454292050328E+01
  0.197389525813E+03 -0.233344961015E+02 -0.456108008802E+01
  0.183054761417E+03 -0.899968286021E+01 -0.187060543849E+02
  0.178962175070E+03 -0.108748295956E+02 -0.184900788647E+02
  0.167799353436E+03  0.288044503248E+00 -0.180643554413E+02
  0.164154310502E+03  0.695117091241E+00 -0.176273745323E+02
  0.153830195252E+03  0.110192919190E+02 -0.152599528797E+02
  0.152370506637E+03  0.119133438087E+02 -0.150084406884E+02
  0.151145795184E+03  0.786312037097E+01  0.153103699780E+02
  0.151065529828E+03  0.792469363690E+01  0.152952053467E+02
  0.155731429689E+03  0.325876635654E+01  0.164425807773E+02
  0.155543875251E+03  0.334596291861E+01  0.164129607026E+02
  0.159341802301E+03 -0.451981726240E+00  0.155638708952E+02
  0.159483355493E+03 -0.469027354469E+00  0.155793185422E+02
  0.160612482582E+03 -0.159816163511E+01  0.335194495842E+01
  0.159800195516E+03 -0.753345751888E-01  0.330369129548E+01
  0.145511941187E+03  0.142129342748E+02 -0.182147843956E+02
  0.143231647665E+03  0.177455896833E+02 -0.174083610855E+02
  0.793848311151E+02  0.815924361279E+02  0.127964090860E+01
  0.739603984085E+02  0.888789195886E+02  0.864753127541E+01