# vtk DataFile Version 3.0
MachLine results file. Generated by MachLine, USU AeroLab (c) 2022.
ASCII
DATASET POLYDATA
POINTS                 144 float
  0.000000000000E+00  0.000000000000E+00  0.000000000000E+00
  0.113538098335E+01  0.000000000000E+00 -0.658124566078E+00
  0.113538098335E+01  0.000000000000E+00  0.658124566078E+00
  0.192375373840E+01  0.192375373840E+01  0.000000000000E+00
  0.305913543701E+01  0.192375373840E+01 -0.658124983311E+00
  0.305913543701E+01  0.192375373840E+01  0.658124983311E+00
  0.423028087616E+01  0.000000000000E+00 -0.108747220039E+01
  0.423028087616E+01  0.000000000000E+00  0.108747220039E+01
  0.547033166885E+01  0.547033166885E+01  0.000000000000E+00
  0.615403699875E+01  0.192375373840E+01 -0.108747279644E+01
  0.615403699875E+01  0.192375373840E+01  0.108747279644E+01
  0.660571479797E+01  0.547033166885E+01 -0.658125698566E+00
  0.660571479797E+01  0.547033166885E+01  0.658125698566E+00
  0.939508819580E+01  0.000000000000E+00 -0.980745851994E+00
  0.939508819580E+01  0.000000000000E+00  0.980745851994E+00
  0.970061969757E+01  0.547033166885E+01 -0.108747410774E+01
  0.970061969757E+01  0.547033166885E+01  0.108747410774E+01
  0.113188476562E+02  0.192375373840E+01 -0.980746448040E+00
  0.113188476562E+02  0.192375373840E+01  0.980746448040E+00
  0.113820018768E+02  0.113820018768E+02  0.000000000000E+00
  0.125173873901E+02  0.113820018768E+02 -0.658127009869E+00
  0.125173873901E+02  0.113820018768E+02  0.658127009869E+00
  0.145402030945E+02  0.000000000000E+00 -0.479613035917E+00
  0.145402030945E+02  0.000000000000E+00  0.479613035917E+00
  0.148654365540E+02  0.547033166885E+01 -0.980747580528E+00
  0.148654365540E+02  0.547033166885E+01  0.980747580528E+00
  0.156122989655E+02  0.113820018768E+02 -0.108747613430E+01
  0.156122989655E+02  0.113820018768E+02  0.108747613430E+01
  0.164639663696E+02  0.192375373840E+01 -0.479613333941E+00
  0.164639663696E+02  0.192375373840E+01  0.479613333941E+00
  0.176505107880E+02  0.000000000000E+00 -0.144198849797E+00
  0.176505107880E+02  0.000000000000E+00  0.144198849797E+00
  0.190000000000E+02  0.000000000000E+00  0.000000000000E+00
  0.195742740631E+02  0.192375373840E+01 -0.144198939204E+00
  0.195742740631E+02  0.192375373840E+01  0.144198939204E+00
  0.197561950684E+02  0.197561950684E+02  0.000000000000E+00
  0.200105609894E+02  0.547033166885E+01 -0.479613870382E+00
  0.200105609894E+02  0.547033166885E+01  0.479613870382E+00
  0.207771244049E+02  0.113820018768E+02 -0.980749428272E+00
  0.207771244049E+02  0.113820018768E+02  0.980749428272E+00
  0.208915824890E+02  0.197561950684E+02 -0.658128738403E+00
  0.208915824890E+02  0.197561950684E+02  0.658128738403E+00
  0.209237651825E+02  0.192375373840E+01  0.000000000000E+00
  0.231208724976E+02  0.547033166885E+01 -0.144199103117E+00
  0.231208724976E+02  0.547033166885E+01  0.144199103117E+00
  0.239865016937E+02  0.197561950684E+02 -0.108747911453E+01
  0.239865016937E+02  0.197561950684E+02  0.108747911453E+01
  0.244703655243E+02  0.547033166885E+01  0.000000000000E+00
  0.259222583771E+02  0.113820018768E+02 -0.479614794254E+00
  0.259222583771E+02  0.113820018768E+02  0.479614794254E+00
  0.290325775146E+02  0.113820018768E+02 -0.144199386239E+00
  0.290325775146E+02  0.113820018768E+02  0.144199386239E+00
  0.291513423920E+02  0.197561950684E+02 -0.980752110481E+00
  0.291513423920E+02  0.197561950684E+02  0.980752110481E+00
  0.292438049316E+02  0.292438049316E+02  0.000000000000E+00
  0.303791980743E+02  0.292438049316E+02 -0.658130764961E+00
  0.303791980743E+02  0.292438049316E+02  0.658130764961E+00
  0.303820724487E+02  0.113820018768E+02  0.000000000000E+00
  0.334741249084E+02  0.292438049316E+02 -0.108748245239E+01
  0.334741249084E+02  0.292438049316E+02  0.108748245239E+01
  0.342964897156E+02  0.197561950684E+02 -0.479616105556E+00
  0.342964897156E+02  0.197561950684E+02  0.479616105556E+00
  0.374068183899E+02  0.197561950684E+02 -0.144199773669E+00
  0.374068183899E+02  0.197561950684E+02  0.144199773669E+00
  0.376179962158E+02  0.376179962158E+02  0.000000000000E+00
  0.386389808655E+02  0.292438049316E+02 -0.980755090714E+00
  0.386389808655E+02  0.292438049316E+02  0.980755090714E+00
  0.387533912659E+02  0.376179962158E+02 -0.658132553101E+00
  0.387533912659E+02  0.376179962158E+02  0.658132553101E+00
  0.387563171387E+02  0.197561950684E+02  0.000000000000E+00
  0.418483314514E+02  0.376179962158E+02 -0.108748543262E+01
  0.418483314514E+02  0.376179962158E+02  0.108748543262E+01
  0.435296669006E+02  0.435296669006E+02  0.000000000000E+00
  0.437841453552E+02  0.292438049316E+02 -0.479617565870E+00
  0.437841453552E+02  0.292438049316E+02  0.479617565870E+00
  0.446650657654E+02  0.435296669006E+02 -0.658133804798E+00
  0.446650657654E+02  0.435296669006E+02  0.658133804798E+00
  0.468944816589E+02  0.292438049316E+02 -0.144200220704E+00
  0.468944816589E+02  0.292438049316E+02  0.144200220704E+00
  0.470131988525E+02  0.376179962158E+02 -0.980757772923E+00
  0.470131988525E+02  0.376179962158E+02  0.980757772923E+00
  0.470762481689E+02  0.470762481689E+02  0.000000000000E+00
  0.477600097656E+02  0.435296669006E+02 -0.108748745918E+01
  0.477600097656E+02  0.435296669006E+02  0.108748745918E+01
  0.482116432190E+02  0.470762481689E+02 -0.658134579659E+00
  0.482116432190E+02  0.470762481689E+02  0.658134579659E+00
  0.482439842224E+02  0.292438049316E+02  0.000000000000E+00
  0.490000000000E+02  0.490000000000E+02  0.000000000000E+00
  0.501353988647E+02  0.490000000000E+02 -0.658134996891E+00
  0.501353988647E+02  0.490000000000E+02  0.658134996891E+00
  0.506007728577E+02  0.494653701782E+02 -0.465371757746E+00
  0.506007728577E+02  0.494653701782E+02  0.465371757746E+00
  0.507935333252E+02  0.496581344604E+02 -0.771266485397E-15
  0.513065910339E+02  0.470762481689E+02 -0.108748877048E+01
  0.513065910339E+02  0.470762481689E+02  0.108748877048E+01
  0.521583786011E+02  0.376179962158E+02 -0.479618877172E+00
  0.521583786011E+02  0.376179962158E+02  0.479618877172E+00
  0.529248886108E+02  0.435296669006E+02 -0.980759620667E+00
  0.529248886108E+02  0.435296669006E+02  0.980759620667E+00
  0.532303466797E+02  0.490000000000E+02 -0.108748936653E+01
  0.532303466797E+02  0.490000000000E+02  0.108748936653E+01
  0.539993209839E+02  0.497689704895E+02 -0.768971264362E+00
  0.539993209839E+02  0.497689704895E+02  0.768971264362E+00
  0.543178405762E+02  0.500874900818E+02 -0.157378642191E-15
  0.552687225342E+02  0.376179962158E+02 -0.144200608134E+00
  0.552687225342E+02  0.376179962158E+02  0.144200608134E+00
  0.564714775085E+02  0.470762481689E+02 -0.980760753155E+00
  0.564714775085E+02  0.470762481689E+02  0.980760753155E+00
  0.566182289124E+02  0.376179962158E+02  0.000000000000E+00
  0.580700759888E+02  0.435296669006E+02 -0.479619771242E+00
  0.580700759888E+02  0.435296669006E+02  0.479619771242E+00
  0.583952369690E+02  0.490000000000E+02 -0.980761349201E+00
  0.583952369690E+02  0.490000000000E+02  0.980761349201E+00
  0.590887413025E+02  0.496935043335E+02 -0.693503141403E+00
  0.590887413025E+02  0.496935043335E+02  0.693503141403E+00
  0.593759994507E+02  0.499807624817E+02  0.000000000000E+00
  0.611804275513E+02  0.435296669006E+02 -0.144200876355E+00
  0.611804275513E+02  0.435296669006E+02  0.144200876355E+00
  0.616166725159E+02  0.470762481689E+02 -0.479620337486E+00
  0.616166725159E+02  0.470762481689E+02  0.479620337486E+00
  0.625299339294E+02  0.435296669006E+02  0.000000000000E+00
  0.635404319763E+02  0.490000000000E+02 -0.479620635509E+00
  0.635404319763E+02  0.490000000000E+02  0.479620635509E+00
  0.638795776367E+02  0.493391418457E+02 -0.339143037796E+00
  0.638795776367E+02  0.493391418457E+02  0.339143037796E+00
  0.640200576782E+02  0.494796218872E+02  0.296956834055E-15
  0.647270278931E+02  0.470762481689E+02 -0.144201040268E+00
  0.647270278931E+02  0.470762481689E+02  0.144201040268E+00
  0.660765380859E+02  0.470762481689E+02  0.000000000000E+00
  0.666507873535E+02  0.490000000000E+02 -0.144201144576E+00
  0.666507873535E+02  0.490000000000E+02  0.144201144576E+00
  0.667527542114E+02  0.491019668579E+02 -0.101965606213E+00
  0.667527542114E+02  0.491019668579E+02  0.101965606213E+00
  0.667949905396E+02  0.491441993713E+02 -0.260488604752E-16
  0.680002975464E+02  0.490000000000E+02  0.000000000000E+00
  0.190000000000E+02  0.000000000000E+00  0.000000000000E+00
  0.209237651825E+02  0.192375373840E+01  0.000000000000E+00
  0.244703655243E+02  0.547033166885E+01  0.000000000000E+00
  0.303820724487E+02  0.113820018768E+02  0.000000000000E+00
  0.387563171387E+02  0.197561950684E+02  0.000000000000E+00
  0.482439842224E+02  0.292438049316E+02  0.000000000000E+00
  0.566182289124E+02  0.376179962158E+02  0.000000000000E+00
  0.625299339294E+02  0.435296669006E+02  0.000000000000E+00
  0.660765380859E+02  0.470762481689E+02  0.000000000000E+00
POLYGONS                 256                1024
3                  32                  33                  42
3                  32                  30                  33
3                  30                  28                  33
3                  30                  22                  28
3                  22                  17                  28
3                  22                  13                  17
3                  13                   6                  17
3                  17                   6                   9
3                   6                   1                   9
3                   9                   1                   4
3                   1                   0                   4
3                   4                   0                   3
3                   0                   5                   3
3                   0                   2                   5
3                   2                  10                   5
3                   2                   7                  10
[...]
CELL_DATA                 256
SCALARS C_p_inc float 1
LOOKUP_TABLE default
  0.135593935155E+00
  0.115345039284E+00
  0.772280349785E-01
  0.590387365746E-01
  0.257828564825E-01
  0.129960751981E-01
  0.551999221237E-01
  0.324566580382E-01
  0.252498227273E+00
  0.187407744865E+00
  0.596748609979E+00
  0.597520431083E+00
 -0.549952828200E+00
  0.814087148632E-02
 -0.663864511127E+00
 -0.466742988619E+00
 -0.469815511162E+00
 -0.481123105574E+00
 -0.338272622413E+00
 -0.276731247527E+00
 -0.151361460773E+00
 -0.722924184292E-01
  0.126199675033E-01
  0.991539988704E-01
  0.130669282968E+00
  0.134272574964E+00
  0.791174455665E-01
  0.770963298014E-01
  0.334183779698E-01
  0.259055586576E-01
  0.331469080836E-01
  0.283952958912E-01
  0.181757493879E+00
  0.184492186163E+00
  0.524510972995E+00
  0.508851187939E+00
 -0.840495797412E+00
 -0.523577556797E+00
 -0.803857954252E+00
 -0.658897197710E+00
 -0.482884182811E+00
 -0.487746664946E+00
 -0.277427880512E+00
 -0.222764389277E+00
 -0.720417411138E-01
 -0.259273336621E-01
  0.960117805613E-01
  0.112350533985E+00
  0.129012036837E+00
  0.129906105372E+00
  0.766213487598E-01
  0.788339843657E-01
  0.352577156514E-01
  0.335406912011E-01
  0.285616212363E-01
  0.384654590014E-01
  0.182976352476E+00
  0.204589886785E+00
  0.512179073667E+00
  0.493982264332E+00
 -0.103599417418E+01
 -0.834585699733E+00
 -0.884368055668E+00
 -0.808209073618E+00
 -0.485745461194E+00
 -0.498903043560E+00
 -0.224201127551E+00
 -0.198336580185E+00
 -0.259243056579E-01
 -0.111369040957E-01
  0.112465031630E+00
  0.119547612290E+00
  0.126001436848E+00
  0.128115650599E+00
  0.729820696177E-01
  0.762374194441E-01
  0.339396132036E-01
  0.352363421219E-01
  0.384587248042E-01
  0.439772958241E-01
  0.205198638218E+00
  0.221933594081E+00
  0.504747416961E+00
  0.490947279396E+00
 -0.113680559279E+01
 -0.103599369750E+01
 -0.922739776986E+00
 -0.891334354783E+00
 -0.491815798474E+00
 -0.494629166630E+00
 -0.199811069941E+00
 -0.191616139828E+00
 -0.110834434732E-01
 -0.322066746738E-02
  0.120709455184E+00
  0.127184889836E+00
  0.115560974314E+00
  0.124548066129E+00
  0.608367268695E-01
  0.723469652772E-01
  0.243547418788E-01
  0.337940369902E-01
  0.438366381656E-01
  0.387978956782E-01
  0.221708449249E+00
  0.223708157860E+00
  0.495101130623E+00
  0.490943475179E+00
 -0.116295666814E+01
 -0.113738326136E+01
 -0.928213010830E+00
 -0.926816449499E+00
 -0.485418564411E+00
 -0.496559720063E+00
 -0.193117955088E+00
 -0.179113804682E+00
 -0.328470156963E-02
  0.131974165033E-01
  0.128805211425E+00
  0.143816220896E+00
  0.937949695738E-01
  0.112349826513E+00
  0.332796411489E-01
  0.594064269385E-01
 -0.212443598996E-02
  0.239874490476E-01
  0.382667530673E-01
  0.153608656268E-01
  0.221812461941E+00
  0.206634807851E+00
  0.488444672334E+00
  0.495347954130E+00
 -0.111723011979E+01
 -0.116390002640E+01
 -0.894714789387E+00
 -0.933141607444E+00
 -0.453115991411E+00
 -0.491962480910E+00
 -0.180953311575E+00
 -0.143530818624E+00
  0.127947069488E-01
  0.542128718658E-01
  0.146376912866E+00
  0.183688913245E+00
  0.587643900961E-01
  0.860380216987E-01
 -0.421655898576E-02
  0.294920285843E-01
 -0.398232470412E-01
 -0.336529927203E-02
  0.135047671287E-01
 -0.308233611723E-01
  0.201125030870E+00
  0.165460458534E+00
  0.483470847767E+00
  0.500430168066E+00
 -0.101338986374E+01
 -0.111900982373E+01
 -0.823911187315E+00
 -0.903951250424E+00
 -0.385039737553E+00
 -0.467454359236E+00
 -0.146424996807E+00
 -0.719366376844E-01
  0.522751640694E-01
  0.128551449104E+00
  0.187171597718E+00
  0.259242508672E+00
 -0.287880763226E-01
  0.394188017507E-01
 -0.633708922889E-01
 -0.135977932316E-01
 -0.723067509295E-01
 -0.446234512020E-01
 -0.369156260268E-01
 -0.713654819338E-01
  0.148893700513E+00
  0.875629909984E-01
  0.465335544403E+00
  0.494689213391E+00
 -0.872805600912E+00
 -0.101550931956E+01
 -0.715832852861E+00
 -0.842317571258E+00
 -0.268271173542E+00
 -0.423923608601E+00
 -0.793441748396E-01
  0.663634626169E-02
  0.118604399040E+00
  0.210935502921E+00
  0.254951213379E+00
  0.372605621735E+00
 -0.246872348617E+00
 -0.842688561328E-01
 -0.167282042575E+00
 -0.932104475211E-01
 -0.126040134674E+00
 -0.926392452972E-01
 -0.958105115472E-01
 -0.969813305894E-01
  0.342300909543E-01
  0.124017748374E-01
  0.334443859116E+00
  0.423053312933E+00
 -0.659034008469E+00
 -0.872191212609E+00
 -0.468864243411E+00
 -0.790667099150E+00
 -0.162531891863E+00
 -0.390526235276E+00
 -0.301715452008E-01
  0.124292317053E-01
  0.151585572624E+00
  0.217478738707E+00
  0.311267710806E+00
  0.480810597340E+00
 -0.843845669771E+00
 -0.845616548849E+00
 -0.410926142020E+00
 -0.425429945976E+00
 -0.241284806955E+00
 -0.243294332680E+00
 -0.228118307940E+00
 -0.187142438857E+00
 -0.223245450420E+00
 -0.754481082907E-01
 -0.659947029431E+00
 -0.412900634642E+00
 -0.645705578746E+00
 -0.244748071705E+00
 -0.514378684307E+00
 -0.181552195278E+00
 -0.456453040916E+00
 -0.257796920475E+00
 -0.838415621306E+00
 -0.468836486469E+00
 -0.175011076718E+01
 -0.180431606617E+01
 -0.806335426336E+00
 -0.871997692175E+00
 -0.441753115414E+00
 -0.485322314067E+00
 -0.418069775327E+00
 -0.427008147091E+00
 -0.466155891059E+00
 -0.352130937335E+00
 -0.554734935568E+00
 -0.528873771966E+00
 -0.571193578195E+00
 -0.404181152568E+00
 -0.608359723288E+00
 -0.445094199621E+00
 -0.852760001309E+00
 -0.785690379320E+00
 -0.176969666235E+01
 -0.161420876664E+01
SCALARS sigma float 1
LOOKUP_TABLE default
  0.433898401077E-01
  0.433897567250E-01
  0.424177729292E-01
  0.424178386047E-01
  0.527328368556E-01
  0.527328229061E-01
  0.129048440363E+00
  0.129048453727E+00
  0.281339673447E+00
  0.281339659232E+00
  0.558885002068E+00
  0.558885002677E+00
  0.327594937813E+00
  0.327594936722E+00
 -0.121363266110E-01
 -0.121363099868E-01
 -0.169894607699E+00
 -0.169894620678E+00
 -0.243540396289E+00
 -0.243540382066E+00
 -0.253234341459E+00
 -0.253234406334E+00
 -0.252323557308E+00
 -0.252323477326E+00
  0.433898690953E-01
  0.433898399793E-01
  0.424177848532E-01
  0.424177725821E-01
  0.527328295493E-01
  0.527328369426E-01
  0.129048453600E+00
  0.129048443805E+00
  0.281339659905E+00
  0.281339696959E+00
  0.558884996453E+00
  0.558884964828E+00
  0.327594883869E+00
  0.327594934164E+00
 -0.121362847466E-01
 -0.121363266400E-01
 -0.169894617118E+00
 -0.169894607532E+00
 -0.243540382468E+00
 -0.243540389744E+00
 -0.253234404262E+00
 -0.253234392428E+00
 -0.252323476580E+00
 -0.252323448943E+00
  0.433898111593E-01
  0.433898690869E-01
  0.424178425101E-01
  0.424177849319E-01
  0.527328305406E-01
  0.527328295813E-01
  0.129048443867E+00
  0.129048443586E+00
  0.281339696376E+00
  0.281339636733E+00
  0.558884962511E+00
  0.558884941347E+00
  0.327594850403E+00
  0.327594882511E+00
 -0.121363511051E-01
 -0.121362847214E-01
 -0.169894617475E+00
 -0.169894617199E+00
 -0.243540389892E+00
 -0.243540388964E+00
 -0.253234392897E+00
 -0.253234338006E+00
 -0.252323448894E+00
 -0.252323503605E+00
  0.433898259494E-01
  0.433898111998E-01
  0.424178757745E-01
  0.424178426668E-01
  0.527328170032E-01
  0.527328305174E-01
  0.129048443567E+00
  0.129048446899E+00
  0.281339637936E+00
  0.281339692975E+00
  0.558884955760E+00
  0.558885148285E+00
  0.327595145333E+00
  0.327594858852E+00
 -0.121362903165E-01
 -0.121363511570E-01
 -0.169894614172E+00
 -0.169894617450E+00
 -0.243540388857E+00
 -0.243540401833E+00
 -0.253234338941E+00
 -0.253234307539E+00
 -0.252323503841E+00
 -0.252323489941E+00
  0.433897971855E-01
  0.433898259880E-01
  0.424178153790E-01
  0.424178757123E-01
  0.527328461296E-01
  0.527328169651E-01
  0.129048446907E+00
  0.129048438754E+00
  0.281339692290E+00
  0.281339764428E+00
  0.558885121935E+00
  0.558884719684E+00
  0.327594534489E+00
  0.327595129888E+00
 -0.121362106963E-01
 -0.121362902869E-01
 -0.169894622207E+00
 -0.169894614183E+00
 -0.243540401657E+00
 -0.243540373713E+00
 -0.253234307168E+00
 -0.253234364310E+00
 -0.252323490166E+00
 -0.252323517292E+00
  0.433898117781E-01
  0.433897970286E-01
  0.424177831728E-01
  0.424178151876E-01
  0.527328682019E-01
  0.527328460942E-01
  0.129048438740E+00
  0.129048426881E+00
  0.281339763420E+00
  0.281339575469E+00
  0.558884735476E+00
  0.558884946402E+00
  0.327594857608E+00
  0.327594543745E+00
 -0.121364184182E-01
 -0.121362106528E-01
 -0.169894633856E+00
 -0.169894622189E+00
 -0.243540373550E+00
 -0.243540352321E+00
 -0.253234363167E+00
 -0.253234393532E+00
 -0.252323516380E+00
 -0.252323502480E+00
  0.433896159304E-01
  0.433898118485E-01
  0.424178456762E-01
  0.424177833808E-01
  0.527328279712E-01
  0.527328682918E-01
  0.129048426919E+00
  0.129048438039E+00
  0.281339574786E+00
  0.281339644272E+00
  0.558884914954E+00
  0.558884627677E+00
  0.327594403360E+00
  0.327594839175E+00
 -0.121363410500E-01
 -0.121364183887E-01
 -0.169894622983E+00
 -0.169894633906E+00
 -0.243540352736E+00
 -0.243540391748E+00
 -0.253234394774E+00
 -0.253234335386E+00
 -0.252323502889E+00
 -0.252323687928E+00
  0.433897938075E-01
  0.433896159290E-01
  0.424178487478E-01
  0.424178458909E-01
  0.527328620496E-01
  0.527328282855E-01
  0.129048438054E+00
  0.129048433968E+00
  0.281339653575E+00
  0.281339655591E+00
  0.558884790810E+00
  0.558885619582E+00
  0.327595817029E+00
  0.327594498982E+00
 -0.121363391722E-01
 -0.121363414513E-01
 -0.169894627002E+00
 -0.169894623003E+00
 -0.243540393199E+00
 -0.243540359970E+00
 -0.253234336668E+00
 -0.253234333913E+00
 -0.252323687920E+00
 -0.252323519076E+00
  0.433897187533E-01
  0.433897947667E-01
  0.424177879594E-01
  0.424178489426E-01
  0.527328049173E-01
  0.527328614578E-01
  0.129048433909E+00
  0.129048449183E+00
  0.281339643078E+00
  0.281339691297E+00
  0.558885438903E+00
  0.558885023685E+00
  0.327594967752E+00
  0.327595711123E+00
 -0.121362822396E-01
 -0.121363386324E-01
 -0.169894612092E+00
 -0.169894626925E+00
 -0.243540357237E+00
 -0.243540414884E+00
 -0.253234335076E+00
 -0.253234395316E+00
 -0.252323524654E+00
 -0.252323597567E+00
  0.417287079744E-01
  0.408101992122E-01
  0.408096144973E-01
  0.505274448354E-01
  0.505276147536E-01
  0.120112827058E+00
  0.120112906128E+00
  0.249072624310E+00
  0.249072748761E+00
  0.474069956171E+00
  0.277879931333E+00
 -0.107440089950E-01
 -0.107443626346E-01
 -0.158130516094E+00
 -0.158130704316E+00
 -0.233355996888E+00
 -0.233356077366E+00
 -0.243633592119E+00
 -0.243633386321E+00
 -0.242664345851E+00
 -0.441447860356E-01
 -0.451661221824E-01
 -0.451594495031E-01
 -0.344371160698E-01
 -0.344388363698E-01
  0.390285361122E-01
  0.390285216163E-01
  0.163251473339E+00
  0.163251435091E+00
  0.366484773257E+00
  0.294996106664E+00
  0.616803922356E-01
  0.616808021768E-01
 -0.774509437323E-01
 -0.774504180523E-01
 -0.158582203113E+00
 -0.158582278382E+00
 -0.170352172109E+00
 -0.170350805159E+00
 -0.169230463156E+00
SCALARS inclination float 1
LOOKUP_TABLE default
  0.100000000000E+01
  0.100000000000E+01
  0.100000000000E+01
  0.100000000000E+01
  0.100000000000E+01
  0.100000000000E+01
  0.100000000000E+01
  0.100000000000E+01
  0.100000000000E+01
  0.100000000000E+01
  0.100000000000E+01
  0.100000000000E+01
  0.100000000000E+01
  0.100000000000E+01
  0.100000000000E+01
  0.100000000000E+01
  0.100000000000E+01
  0.100000000000E+01
  0.100000000000E+01
  0.100000000000E+01
  0.100000000000E+01
  0.100000000000E+01
  0.100000000000E+01
  0.100000000000E+01
  0.100000000000E+01
  0.100000000000E+01
  0.100000000000E+01
  0.100000000000E+01
  0.100000000000E+01
  0.100000000000E+01
  0.100000000000E+01
  0.100000000000E+01
  0.100000000000E+01
  0.100000000000E+01
  0.100000000000E+01
  0.100000000000E+01
  0.100000000000E+01
  0.100000000000E+01
  0.100000000000E+01
  0.100000000000E+01
  0.100000000000E+01
  0.100000000000E+01
  0.100000000000E+01
  0.100000000000E+01
  0.100000000000E+01
  0.100000000000E+01
  0.100000000000E+01
  0.100000000000E+01
  0.100000000000E+01
  0.100000000000E+01
  0.100000000000E+01
  0.100000000000E+01
  0.100000000000E+01
  0.100000000000E+01
  0.100000000000E+01
  0.100000000000E+01
  0.100000000000E+01
  0.100000000000E+01
  0.100000000000E+01
  0.100000000000E+01
  0.100000000000E+01
  0.100000000000E+01
  0.100000000000E+01
  0.100000000000E+01
  0.100000000000E+01
  0.100000000000E+01
  0.100000000000E+01
  0.100000000000E+01
  0.100000000000E+01
  0.100000000000E+01
  0.100000000000E+01
  0.100000000000E+01
  0.100000000000E+01
  0.100000000000E+01
  0.100000000000E+01
  0.100000000000E+01
  0.100000000000E+01
  0.100000000000E+01
  0.100000000000E+01
  0.100000000000E+01
  0.100000000000E+01
  0.100000000000E+01
  0.100000000000E+01
  0.100000000000E+01
  0.100000000000E+01
  0.100000000000E+01
  0.100000000000E+01
  0.100000000000E+01
  0.100000000000E+01
  0.100000000000E+01
  0.100000000000E+01
  0.100000000000E+01
  0.100000000000E+01
  0.100000000000E+01
  0.100000000000E+01
  0.100000000000E+01
  0.100000000000E+01
  0.100000000000E+01
  0.100000000000E+01
  0.100000000000E+01
  0.100000000000E+01
  0.100000000000E+01
  0.100000000000E+01
  0.100000000000E+01
  0.100000000000E+01
  0.100000000000E+01
  0.100000000000E+01
  0.100000000000E+01
  0.100000000000E+01
  0.100000000000E+01
  0.100000000000E+01
  0.100000000000E+01
  0.100000000000E+01
  0.100000000000E+01
  0.100000000000E+01
  0.100000000000E+01
  0.100000000000E+01
  0.100000000000E+01
  0.100000000000E+01
  0.100000000000E+01
  0.100000000000E+01
  0.100000000000E+01
  0.100000000000E+01
  0.100000000000E+01
  0.100000000000E+01
  0.100000000000E+01
  0.100000000000E+01
  0.100000000000E+01
  0.100000000000E+01
  0.100000000000E+01
  0.100000000000E+01
  0.100000000000E+01
  0.100000000000E+01
  0.100000000000E+01
  0.100000000000E+01
  0.100000000000E+01
  0.100000000000E+01
  0.100000000000E+01
  0.100000000000E+01
  0.100000000000E+01
  0.100000000000E+01
  0.100000000000E+01
  0.100000000000E+01
  0.100000000000E+01
  0.100000000000E+01
  0.100000000000E+01
  0.100000000000E+01
  0.100000000000E+01
  0.100000000000E+01
  0.100000000000E+01
  0.100000000000E+01
  0.100000000000E+01
  0.100000000000E+01
  0.100000000000E+01
  0.100000000000E+01
  0.100000000000E+01
  0.100000000000E+01
  0.100000000000E+01
  0.100000000000E+01
  0.100000000000E+01
  0.100000000000E+01
  0.100000000000E+01
  0.100000000000E+01
  0.100000000000E+01
  0.100000000000E+01
  0.100000000000E+01
  0.100000000000E+01
  0.100000000000E+01
  0.100000000000E+01
  0.100000000000E+01
  0.100000000000E+01
  0.100000000000E+01
  0.100000000000E+01
  0.100000000000E+01
  0.100000000000E+01
  0.100000000000E+01
  0.100000000000E+01
  0.100000000000E+01
  0.100000000000E+01
  0.100000000000E+01
  0.100000000000E+01
  0.100000000000E+01
  0.100000000000E+01
  0.100000000000E+01
  0.100000000000E+01
  0.100000000000E+01
  0.100000000000E+01
  0.100000000000E+01
  0.100000000000E+01
  0.100000000000E+01
  0.100000000000E+01
  0.100000000000E+01
  0.100000000000E+01
  0.100000000000E+01
  0.100000000000E+01
  0.100000000000E+01
  0.100000000000E+01
  0.100000000000E+01
  0.100000000000E+01
  0.100000000000E+01
  0.100000000000E+01
  0.100000000000E+01
  0.100000000000E+01
  0.100000000000E+01
  0.100000000000E+01
  0.100000000000E+01
  0.100000000000E+01
  0.100000000000E+01
  0.100000000000E+01
  0.100000000000E+01
  0.100000000000E+01
  0.100000000000E+01
  0.100000000000E+01
  0.100000000000E+01
  0.100000000000E+01
  0.100000000000E+01
  0.100000000000E+01
  0.100000000000E+01
  0.100000000000E+01
  0.100000000000E+01
  0.100000000000E+01
  0.100000000000E+01
  0.100000000000E+01
  0.100000000000E+01
  0.100000000000E+01
  0.100000000000E+01
  0.100000000000E+01
  0.100000000000E+01
  0.100000000000E+01
  0.100000000000E+01
  0.100000000000E+01
  0.100000000000E+01
  0.100000000000E+01
  0.100000000000E+01
  0.100000000000E+01
  0.100000000000E+01
  0.100000000000E+01
  0.100000000000E+01
  0.100000000000E+01
  0.100000000000E+01
  0.100000000000E+01
  0.100000000000E+01
  0.100000000000E+01
  0.100000000000E+01
  0.100000000000E+01
  0.100000000000E+01
  0.100000000000E+01
  0.100000000000E+01
  0.100000000000E+01
  0.100000000000E+01
  0.100000000000E+01
  0.100000000000E+01
  0.100000000000E+01
  0.100000000000E+01
  0.100000000000E+01
  0.100000000000E+01
VECTORS v float
  0.150690398907E+03  0.326184167390E+01  0.157533743333E+02
  0.152449829535E+03  0.275477538911E+01  0.159955724686E+02
  0.155670809350E+03 -0.466220354626E+00  0.168377579706E+02
  0.157208595261E+03  0.493138317787E+00  0.169001242209E+02
  0.160087046063E+03 -0.238532692072E+01  0.158247649065E+02
  0.161167984449E+03 -0.593320064700E+00  0.157555081838E+02
  0.158389390358E+03  0.218527840891E+01  0.322782424404E+01
  0.160230509932E+03 -0.460870079186E+01  0.340626136855E+01
  0.138901026393E+03  0.167208028751E+02 -0.169497556885E+02
  0.145510812451E+03 -0.128482470931E+01 -0.203645847460E+02
  0.817941760846E+02  0.624318373302E+02 -0.112233964412E+02
  0.820864700566E+02  0.617797652206E+02 -0.117707990164E+02
  0.167954648914E+03 -0.240884136367E+02  0.111317927258E+03
  0.144818859877E+03  0.275247041074E+02  0.679896585762E+02
  0.205058304320E+03 -0.327147551413E+02  0.329856456909E+02
  0.195320574676E+03 -0.618833959970E+01  0.279548211549E+02
  0.197395993073E+03 -0.826375059072E+01 -0.424978362751E+01
  0.198040649376E+03 -0.106426193901E+02 -0.431226612680E+01
  0.187673580285E+03 -0.275515127562E+00 -0.183061918281E+02
  0.183065013594E+03 -0.791571115792E+01 -0.186014738694E+02
  0.173903115158E+03  0.124623269948E+01 -0.186192398766E+02
  0.167766506288E+03 -0.258213957939E+01 -0.183703344637E+02
  0.161044915845E+03  0.413948411074E+01 -0.167660321869E+02
  0.153776331453E+03  0.623428637283E+01 -0.157654991092E+02
  0.151049831543E+03  0.653846801093E+01  0.154416530070E+02
  0.150729603022E+03  0.673460657385E+01  0.153864811747E+02
  0.155527614305E+03  0.193656760598E+01  0.165631966487E+02
  0.155698212217E+03  0.191751567553E+01  0.165836503674E+02
  0.159470277561E+03 -0.185456755009E+01  0.157129968383E+02
  0.160094722680E+03 -0.156845858124E+01  0.157459493125E+02
  0.160231749111E+03 -0.170548939602E+01  0.334629372842E+01
  0.160611997889E+03 -0.264030586704E+01  0.337347041422E+01
  0.145765547714E+03  0.122061561703E+02 -0.185283565437E+02
  0.145484222238E+03  0.127467826545E+02 -0.184143345662E+02
  0.849731513122E+02  0.732578803319E+02 -0.679076459984E+01
  0.794933881435E+02  0.820242759735E+02  0.146703106496E+01
  0.184308812212E+03 -0.227911480954E+02  0.120045650279E+03
  0.172879364965E+03 -0.450659166425E+01  0.102821923282E+03
  0.211663878427E+03 -0.432911071668E+02  0.353692606083E+02
  0.205096889995E+03 -0.306712315010E+02  0.327075055405E+02
  0.197135433053E+03 -0.227097500823E+02 -0.454292188829E+01
  0.197389560382E+03 -0.233345052068E+02 -0.456108099052E+01
  0.183054826489E+03 -0.899972246795E+01 -0.187060645807E+02
  0.178962232964E+03 -0.108748724919E+02 -0.184900886817E+02
  0.167799499721E+03  0.287913215980E+00 -0.180643853747E+02
  0.164154364277E+03  0.694996135278E+00 -0.176273933754E+02
  0.153830347013E+03  0.110190729768E+02 -0.152599924912E+02
  0.152370536824E+03  0.119131993300E+02 -0.150084593523E+02
  0.151145765230E+03  0.786318889390E+01  0.153103594553E+02
  0.151065481596E+03  0.792477618132E+01  0.152951913726E+02
  0.155731401068E+03  0.325882929035E+01  0.164425709039E+02
  0.155543817255E+03  0.334603950855E+01  0.164129461889E+02
  0.159341770060E+03 -0.451930890673E+00  0.155638628035E+02
  0.159483298838E+03 -0.468973579011E+00  0.155793077863E+02
  0.160612442727E+03 -0.159812465945E+01  0.335194337076E+01
  0.159800160142E+03 -0.753059999464E-01  0.330368997401E+01
  0.145511906537E+03  0.142129621260E+02 -0.182147757249E+02
  0.143231607501E+03  0.177456260766E+02 -0.174083504649E+02
  0.793847921879E+02  0.815924712843E+02  0.127968385120E+01
  0.739603480431E+02  0.888789701096E+02  0.864758975429E+01