# vtk DataFile Version 3.0
TriPan results file. Generated by TriPan, USU AeroLab (c) 2021.
ASCII
DATASET POLYDATA
POINTS                  50 float
     19.580198288000      0.579897820950      0.000000000000
     99.329367107435      0.579897820950     11.918593136825
     19.000301361100      0.000000000000      0.000000000000
     99.316697738566      0.000000000000     12.003365863366
     20.321611404400      1.321311235430      0.000000000000
     99.345565220962      1.321311235430     11.810209028452
     21.262266159100      2.261965751650      0.000000000000
     99.366116290492      2.261965751650     11.672698611359
     22.444129943800      3.443829536440      0.000000000000
     99.391937203738      3.443829536440     11.499926846617
     23.911006927500      4.910706520080      0.000000000000
     99.423984977625      4.910706520080     11.285490184446
     25.704246521000      6.703944683070      0.000000000000
     99.463162998452      6.703944683070     11.023343925982
     27.856279373200      8.855978012080      0.000000000000
     99.510179798779      8.855978012080     10.708747169173
     30.382303237900     11.382001876800      0.000000000000
     99.565367413384     11.382001876800     10.339478217427
     33.271335601800     14.271034240700      0.000000000000
     99.628485900470     14.271034240700      9.917142558811
     36.479064941400     17.478763580300      0.000000000000
     99.698567158619     17.478763580300      9.448217911157
     39.925552368200     20.925249099700      0.000000000000
     99.773864713211     20.925249099700      8.944390209017
     43.500301361100     24.500000000000      0.000000000000
     99.851964478019     24.500000000000      8.421812480512
     47.075050354000     28.074750900300      0.000000000000
     99.930064242827     28.074750900300      7.899234752007
     50.521537780800     31.521236419700      0.000000000000
    100.005361797419     31.521236419700      7.395407049868
     53.729267120400     34.728965759300      0.000000000000
    100.075443055568     34.728965759300      6.926482402214
     56.618297576900     37.617996215800      0.000000000000
    100.138561500982     37.617996215800      6.504147022432
     59.144321441700     40.144020080600      0.000000000000
    100.193749115590     40.144020080600      6.134878070671
     61.296356201200     42.296054840100      0.000000000000
    100.240765957586     42.296054840100      5.820281035043
     63.089595794700     44.089294433600      0.000000000000
    100.279943978413     44.089294433600      5.558134776579
     64.556472778300     45.556171417200      0.000000000000
    100.311991752298     45.556171417200      5.343698114422
     65.738334655800     46.738033294700      0.000000000000
    100.337812623876     46.738033294700      5.170926628486
     66.678993225100     47.678688049300      0.000000000000
    100.358363776747     47.678688049300      5.033415653752
     67.420402526900     48.420101165800      0.000000000000
    100.374561806933     48.420101165800      4.925032103020
     68.000297546400     49.000000000000      0.000000000000
    100.387231134130     49.000000000000      4.840259655314
POLYGONS                  48                 192
3                   0                   1                   3
3                   0                   3                   2
3                   4                   5                   1
3                   4                   1                   0
3                   6                   7                   5
3                   6                   5                   4
3                   8                   9                   7
3                   8                   7                   6
3                  10                  11                   9
3                  10                   9                   8
3                  12                  13                  11
3                  12                  11                  10
3                  14                  15                  13
3                  14                  13                  12
3                  16                  17                  15
3                  16                  15                  14
3                  18                  19                  17
3                  18                  17                  16
3                  20                  21                  19
3                  20                  19                  18
3                  22                  23                  21
3                  22                  21                  20
3                  24                  25                  23
3                  24                  23                  22
3                  26                  27                  25
3                  26                  25                  24
3                  28                  29                  27
3                  28                  27                  26
3                  30                  31                  29
3                  30                  29                  28
3                  32                  33                  31
3                  32                  31                  30
3                  34                  35                  33
3                  34                  33                  32
3                  36                  37                  35
3                  36                  35                  34
3                  38                  39                  37
3                  38                  37                  36
3                  40                  41                  39
3                  40                  39                  38
3                  42                  43                  41
3                  42                  41                  40
3                  44                  45                  43
3                  44                  43                  42
3                  46                  47                  45
3                  46                  45                  44
3                  48                  49                  47
3                  48                  47                  46
POINT_DATA                  50
SCALARS mu float 1
LOOKUP_TABLE default
     -4.640842531885
     -4.640842531885
     -4.620543673937
     -4.620543673937
     -4.675514438860
     -4.675514438860
     -4.724122167425
     -4.724122167425
     -4.784672093243
     -4.784672093243
     -4.856496358232
     -4.856496358232
     -4.938361072402
     -4.938361072402
     -5.024084700910
     -5.024084700910
     -5.108468603079
     -5.108468603079
     -5.185978815031
     -5.185978815031
     -5.248222006930
     -5.248222006930
     -5.289477200082
     -5.289477200082
     -5.299411715731
     -5.299411715731
     -5.269113078047
     -5.269113078047
     -5.186730071916
     -5.186730071916
     -5.042580071886
     -5.042580071886
     -4.826732576107
     -4.826732576107
     -4.536415867630
     -4.536415867630
     -4.169705861540
     -4.169705861540
     -3.736992244891
     -3.736992244891
     -3.234535413340
     -3.234535413340
     -2.663442723214
     -2.663442723214
     -2.001209776634
     -2.001209776634
     -1.169172842952
     -1.169172842952
      0.000000000000
      0.000000000000
