# vtk DataFile Version 3.0
TriPan results file. Generated by TriPan, USU AeroLab (c) 2021.
ASCII
DATASET POLYDATA
POINTS                 532 float
      0.000010730060      0.000000000000      0.000000000000
      0.193052340604      0.000000000000     -0.275442291303
      0.193052340604      0.000000000000      0.275442291303
      0.750997434593      0.000000000000     -0.543777307962
      0.750997434593      0.000000000000      0.543777307962
      0.757904666675      0.757887941587      0.000000000000
      0.950948772764      0.757889809275     -0.275443655977
      0.950948772764      0.757889809275      0.275443655977
      1.508894184319      0.757891556532     -0.543777680183
      1.508894184319      0.757891556532      0.543777680183
      1.788984355435      1.788962784304      0.000000000000
      1.813534072423      0.000000000000     -0.806802519519
      1.813534072423      0.000000000000      0.806802519519
      1.982027747603      1.788965365917     -0.275441549707
      1.982027747603      1.788965365917      0.275441549707
      2.539972340984      1.788967812136     -0.543774846994
      2.539972340984      1.788967812136      0.543774846994
      2.571430809164      0.757892840247     -0.806802781184
      2.571430809164      0.757892840247      0.806802781184
      3.172811518898      3.172783840902     -0.000000000000
      3.365854151830      3.172787300960     -0.275438869278
      3.365854151830      3.172787300960      0.275438869278
      3.592466139769      0.000000000000     -1.038820352069
      3.592466139769      0.000000000000      1.038820352069
      3.602508522084      1.788969539596     -0.806799765038
      3.602508522084      1.788969539596      0.806799765038
      3.923797978680      3.172790632919     -0.543771230965
      3.923797978680      3.172790632919      0.543771230965
      4.350362917994      0.757894256497     -1.038820600324
      4.350362917994      0.757894256497      1.038820600324
      4.986333357561      3.172792924179     -0.806795901887
      4.986333357561      3.172792924179      0.806795901887
      4.996633877142      4.996598849918      0.000000000000
      5.189675485682      4.996603334358     -0.275435603163
      5.189675485682      4.996603334358      0.275435603163
      5.381440082154      1.788971266186     -1.038817556345
      5.381440082154      1.788971266186      1.038817556345
      5.747618236840      4.996607742020     -0.543766814780
      5.747618236840      4.996607742020      0.543766814780
      6.198484782022      0.000000000000     -1.139163113077
      6.198484782022      0.000000000000      1.139163113077
      6.765264759292      3.172795047528     -1.038813648835
      6.765264759292      3.172795047528      1.038813648835
      6.810152930043      4.996610718946     -0.806791168514
      6.810152930043      4.996610718946      0.806791168514
      6.956381634853      0.757896467068     -1.139162867477
      6.956381634853      0.757896467068      1.139162867477
      7.343646259961      7.343602923698      0.000000000000
      7.536686760666      7.343608515973     -0.275431848466
      7.536686760666      7.343608515973      0.275431848466
      7.987458526306      1.788973749464     -1.139159842030
      7.987458526306      1.788973749464      1.139159842030
      8.094628278105      7.343614157355     -0.543761729843
      8.094628278105      7.343614157355      0.543761729843
      8.589083846752      4.996613327327     -1.038808848010
      8.589083846752      4.996613327327      1.038808848010
      9.157162661312      7.343617921118     -0.806785704165
      9.157162661312      7.343617921118      0.806785704165
      9.371283330200      3.172797880891     -1.139155955820
      9.371283330200      3.172797880891      1.139155955820
      9.395235309056      0.000000000000     -0.980737909206
      9.395235309056      0.000000000000      0.980737909206
     10.153131387024      0.757898309407     -0.980733032608
     10.153131387024      0.757898309407      0.980733032608
     10.272863615142     10.272811662661      0.000000000000
     10.465903518770     10.272818328831     -0.275427862644
     10.465903518770     10.272818328831      0.275427862644
     10.936093019329      7.343621088200     -1.038803291134
     10.936093019329      7.343621088200      1.038803291134
     11.023843728569     10.272825277831     -0.543756326205
     11.023843728569     10.272825277831      0.543756326205
     11.184207681858      1.788975711611     -0.980731105567
     11.184207681858      1.788975711611      0.980731105567
     11.195101510688      4.996616590842     -1.139151174894
     11.195101510688      4.996616590842      1.139151174894
     12.086376324018     10.272829875682     -0.806779886356
     12.086376324018     10.272829875682      0.806779886356
     12.568031844562      3.172800007438     -0.980728481938
     12.568031844562      3.172800007438      0.980728481938
     12.582367492180      0.000000000000     -0.686883727897
     12.582367492180      0.000000000000      0.686883727897
     13.340263929601      0.757898602230     -0.686884436067
     13.340263929601      0.757898602230      0.686884436067
     13.542110185271      7.343624849659     -1.139145632127
     13.542110185271      7.343624849659      1.139145632127
     13.792151805529     13.792091968873     -0.000000000000
     13.865306088285     10.272833636516     -1.038797361824
     13.865306088285     10.272833636516      1.038797361824
     13.985189879504     13.792099511100     -0.275424084126
     13.985189879504     13.792099511100      0.275424084126
     14.371341196311      1.788975986259     -0.686883244298
     14.371341196311      1.788975986259      0.686883244298
     14.391850756627      4.996618939403     -0.980724975187
     14.391850756627      4.996618939403      0.980724975187
     14.543128850900     13.792107698504     -0.543751200125
     14.543128850900     13.792107698504      0.543751200125
     15.176527826907      0.000000000000     -0.411050235820
     15.176527826907      0.000000000000      0.411050235820
     15.605661610037     13.792113086264     -0.806774360281
     15.605661610037     13.792113086264      0.806774360281
     15.755165348051      3.172800292949     -0.686881262950
     15.755165348051      3.172800292949      0.686881262950
     15.934424342397      0.757898269434     -0.411051145801
     15.934424342397      0.757898269434      0.411051145801
     16.471322722859     10.272837929342     -1.139139708667
     16.471322722859     10.272837929342      1.139139708667
     16.738858190891      7.343627484939     -0.980720495475
     16.738858190891      7.343627484939      0.980720495475
     16.960581237392      0.000000000000     -0.218330691638
     16.960581237392      0.000000000000      0.218330691638
     16.965501561672      1.788975700797     -0.411049600485
     16.965501561672      1.788975700797      0.411049600485
     17.384590811105     13.792117410295     -1.038791720630
     17.384590811105     13.792117410295      1.038791720630
     17.578984199280      4.996619285851     -0.686878147034
     17.578984199280      4.996619285851      0.686878147034
     17.718477684025      0.757897776606     -0.218330892858
     17.718477684025      0.757897776606      0.218330892858
     17.832039316797     17.831973592198     -0.000000000000
     18.025075930401     17.831981640996     -0.275421080370
     18.025075930401     17.831981640996      0.275421080370
     18.049324863052      0.000000000000     -0.101506719246
     18.049324863052      0.000000000000      0.101506719246
     18.349324679981      3.172800087319     -0.411047020753
     18.349324679981      3.172800087319      0.411047020753
     18.583013918023     17.831990812275     -0.543747123335
     18.583013918023     17.831990812275      0.543747123335
     18.665867854728      0.000000000000     -0.035637992251
     18.665867854728      0.000000000000      0.035637992251
     18.749553871119      1.788975286551     -0.218328624660
     18.749553871119      1.788975286551      0.218328624660
     18.807221190513      0.757897479919     -0.101505816827
     18.807221190513      0.757897479919      0.101505816827
     19.000292777644     -0.000000067956     -0.000000637557
     19.423764124615      0.757897362016     -0.035636551322
     19.423764124615      0.757897362016      0.035636551322
     19.645546049638     17.831996827562     -0.806769961643
     19.645546049638     17.831996827562      0.806769961643
     19.668070389964     10.272840903136     -0.980715254779
     19.668070389964     10.272840903136      0.980715254779
     19.758190486977      0.757903601551     -0.000000769074
     19.838299217679      1.788975057192     -0.101502907251
     19.838299217679      1.788975057192      0.101502907251
     19.925991520818      7.343627944012     -0.686873816168
     19.925991520818      7.343627944012      0.686873816168
     19.990605986492     13.792122208708     -1.139134065882
     19.990605986492     13.792122208708      1.139134065882
     20.133378805849      3.172799763951     -0.218325212533
     20.133378805849      3.172799763951      0.218325212533
     20.173144382166      4.996619182864     -0.411043177483
     20.173144382166      4.996619182864      0.411043177483
     20.454840220937      1.788974962733     -0.035633412273
     20.454840220937      1.788974962733      0.035633412273
     20.789264521492      1.788983264080     -0.000001021671
     21.222122196717      3.172799582883     -0.101499025164
     21.222122196717      3.172799582883      0.101499025164
     21.424475756535     17.832001599465     -1.038787225311
     21.424475756535     17.832001599465      1.038787225311
     21.838665093998      3.172799501802     -0.035629391771
     21.838665093998      3.172799501802      0.035629391771
     21.957196524978      4.996618935251     -0.218320683055
[...]
POINT_DATA                 532
SCALARS phi float 1
LOOKUP_TABLE default
     -0.000010546955
     -0.139089988315
     -0.240425951317
     -0.638153355350
     -0.838210495814
     -0.744971288161
     -0.884052931445
     -0.985389396515
     -1.383116793191
     -1.583174070596
     -1.758455962033
     -1.634174333529
     -1.930999159815
     -1.897537291031
     -1.998872981198
     -2.396600482282
     -2.596656717349
     -2.379137778942
     -2.675962701496
     -3.118668598114
     -3.257749673900
     -3.359084377930
     -3.340069552595
     -3.722254366209
     -3.392621065516
     -3.689444878422
     -3.756812283806
     -3.956867188527
     -4.085033041252
     -4.467217946200
     -4.752832123970
     -5.049654515611
     -4.911368064601
     -5.050448734283
     -5.151782236700
     -5.098515793550
     -5.480699578610
     -5.549510498410
     -5.749563778404
     -5.883159210196
     -6.302260396634
     -6.458726704525
     -6.840909052002
     -6.545529722943
     -6.842350373165
     -6.628122863031
     -7.047223959112
     -7.218329500566
     -7.357409771999
     -7.458741893053
     -7.641605343867
     -8.060705326877
     -7.856470568158
     -8.056521977391
     -8.251423839162
     -8.633604420402
     -8.852489557780
     -9.149308197652
     -9.001816375517
     -9.420914928781
     -9.054500835854
     -9.415316961845
     -9.799464578927
    -10.160278910804
    -10.097560784315
    -10.236641202058
    -10.337971856717
    -10.558383141862
    -10.940561678712
    -10.735700973702
    -10.935750394921
    -10.812946271271
    -11.173759894185
    -10.794512614999
    -11.213609409346
    -11.731718282259
    -12.028534781744
    -12.173156440421
    -12.533969098095
    -12.241300594594
    -12.494006973515
    -12.986263663660
    -13.238970303119
    -13.101471425607
    -13.520566180755
    -13.556793550491
    -13.437611303233
    -13.819787658674
    -13.695872864867
    -13.797202129400
    -13.999746176042
    -14.252452377046
    -13.965853164609
    -14.326664532139
    -14.194931667126
    -14.394979202447
    -14.841932432370
    -14.993158924468
    -15.190949210158
    -15.487763676585
    -15.359956216266
    -15.612661688326
    -15.586895541050
    -15.738122367932
    -15.980699063602
    -16.399791639494
    -16.272810560512
    -16.633620279944
    -16.630992614749
    -16.711317065963
    -16.600378071842
    -16.751604330198
    -16.896841698720
    -17.279015978750
    -17.152652808760
    -17.405357134467
    -17.375955786124
    -17.456280311368
    -17.527741791904
    -17.666820223374
    -17.768148382817
    -17.722647138076
    -17.759991734279
    -17.960587206343
    -18.111812515609
    -18.165878256034
    -18.365924291493
    -18.340785680159
    -18.353896993774
    -18.389437435323
    -18.469761126090
    -18.467610395329
    -18.504954659530
    -18.676059298058
    -19.085748979880
    -19.098859763374
    -19.161895241457
    -19.458708089613
    -19.152037740174
    -19.512845531540
    -19.421023723408
    -19.481093971182
    -19.518437164942
    -19.459610066481
    -19.712312798851
    -19.439928025096
    -19.859018524992
    -19.749648508370
    -19.829970943806
    -19.753284769071
    -19.904508664387
    -20.099230700050
    -20.112340328680
    -20.434502793058
    -20.841303208359
    -20.878644973889
    -20.867788245001
    -21.249960871191
    -21.459441824392
    -21.472549973867
    -21.542344248110
    -21.622665017139
    -21.794710571115
    -21.854549982644
    -21.993630577807
    -22.094958120765
    -22.060242042457
    -22.211464113709
    -22.338837091541
    -22.591537930360
    -22.492688181436
    -22.692733379925
    -22.633998974090
    -22.671338964104
    -22.611268185215
    -22.972073993764
    -23.252137598466
    -23.265243941501
    -23.587402312751
    -23.410874176206
    -23.829963020340
    -23.488704856387
    -23.785516800910
    -23.849301554877
    -23.929620331003
    -24.940958173027
    -24.978296103951
    -24.939469061094
    -25.090689081256
    -25.194595749717
    -25.576767451683
    -25.559094928659
    -25.572199193368
    -25.894355076798
    -25.798065492741
    -26.050764427226
    -26.309348971621
    -26.448428161122
    -26.549755703976
    -26.582214063958
    -26.943018163808
    -26.728530467670
    -26.808847089214
    -26.947485765046
    -27.147530963118
    -27.820185222980
    -27.857520959155
    -27.737683335176
    -28.156771253626
    -27.943502440314
    -28.240314383913
    -28.438323858166
    -28.451425916004
    -28.398697442361
    -28.549915462825
    -28.773577385768
    -29.649393333677
    -30.031565034326
    -29.769011206681
    -30.021708581417
    -30.187758859284
    -30.268073420116
    -30.636153616284
    -30.775235226789
    -30.876563385873
    -30.909021238086
    -31.269824246451
    -31.279413623020
    -31.316747274395
    -31.274293260288
    -31.474339294468
    -31.897550386977
    -31.910650352501
    -32.232803306293
    -32.192480918695
    -32.611568836084
    -32.270310246651
    -32.567123092013
    -32.369645009267
    -32.520861417398
    -33.976203250255
    -34.358375872505
    -34.158702681584
    -34.239015596678
    -34.095821998822
    -34.348518489281
    -34.607095500065
    -34.746177626731
    -34.847506890648
    -35.250359325647
    -35.287691317900
    -35.245234555845
    -35.445282088957
    -35.363818891749
    -35.724621672765
    -35.868497966854
    -35.881596269005
    -36.203743860583
    -36.241252100478
    -36.538066562175
    -36.519287305376
    -36.938376146368
    -36.696452037991
    -36.847667538892
    -38.066319330529
    -37.947145526341
    -38.329319799870
    -38.205401872812
    -38.306732526547
    -38.485513461626
    -38.565825455837
    -38.550617708454
    -38.803314192608
    -38.704463521582
    -38.904512939548
    -39.577166358694
    -39.614497424716
    -39.700478019861
    -39.997294512640
    -39.690629260379
    -40.051432735952
    -40.195305001165
    -40.208402375375
    -40.530553077683
    -40.490233725223
    -40.909324220042
    -40.945543581552
    -41.084626416733
    -41.185958536510
    -41.151251496943
    -41.302466992248
    -41.406371977948
    -41.788548324539
    -41.583685341076
    -41.783736745925
    -42.579704332957
    -42.876522964244
    -42.940309170319
    -43.020621161988
    -42.877424339002
    -43.130121693399
    -43.252496597048
    -43.391579616121
    -43.492913116853
    -43.661572278821
    -44.022377216405
    -43.890639509021
    -44.090692783485
    -44.031965816635
    -44.069296881805
    -43.949460672582
    -44.368553241773
    -44.285598853514
    -44.667777379667
    -44.650104459062
    -44.663201833028
    -44.985349258818
    -44.886659204265
    -45.183479844377
    -45.045188674460
    -45.184271797333
    -45.285606499246
    -45.478058140675
    -45.629274530735
    -45.683332536352
    -45.883387434529
    -46.405394923821
    -46.544478099129
    -46.645813786799
    -46.592554256267
    -46.974734825815
    -46.679352846581
    -46.976175227282
    -46.848371199521
    -47.101070095188
    -46.828688070705
    -47.247782818082
    -47.043543286082
    -47.243599513965
    -47.120799634526
    -47.481606497241
    -47.267119560463
    -47.347432467408
    -47.418876181418
    -47.557959379051
    -47.659295841422
    -48.057021369199
    -48.257078639401
    -48.163835662031
    -48.039564104061
    -48.336387906180
    -48.302919740405
    -48.404257289138
    -48.358772453769
    -48.396104443331
    -48.509209264453
    -48.580866233039
    -48.385248362006
    -48.767430697915
    -48.624337652367
    -48.801982866739
    -49.002041315854
    -48.976911094676
    -48.990009396039
    -49.053042588478
    -49.349867501424
    -49.209239410723
    -49.350702668930
    -49.312162052460
    -49.135643964923
    -49.554740751201
    -49.436524101279
    -49.449001272699
    -49.600219258394
    -49.745456250959
    -50.127640025704
    -49.798004826451
    -50.094830700047
    -50.000027455275
    -50.360836359272
    -50.307598712353
    -50.560299486933
    -50.402248678012
    -50.612136717641
    -50.739472775804
    -50.758938784610
    -51.141123681279
    -50.928338496967
    -51.347437042691
    -51.238062685392
    -51.318377230724
    -51.503901453183
    -51.886087078603
    -52.329719321767
    -52.367052968114
    -52.281909101163
    -52.552155437220
    -52.306983759440
    -52.667794528029
    -52.288546734275
    -52.707646710939
    -52.716111729128
    -52.947857959797
    -52.960957923884
    -52.908228804716
    -53.059448765226
    -53.283109019182
    -53.186826729871
    -53.439529368697
    -53.302029540132
    -53.721130631377
    -54.046992423967
    -54.466094149719
    -54.099678675050
    -54.460490956763
    -54.697290204167
    -54.777606799258
    -54.900152783234
    -55.196502619088
    -55.376294404370
    -55.493783242896
    -55.746487459782
    -55.459887255985
    -55.820700666069
    -55.788946830494
    -55.826282558338
    -55.787456829635
    -55.938678804452
    -56.407085464393
    -56.420187519904
    -56.473370352049
    -56.834184569044
    -56.742341132714
    -57.218333411041
    -57.579148030063
    -57.286478355376
    -57.539183736600
    -57.576518205656
    -57.656836937725
    -57.952843859161
    -58.207977442258
    -58.094413332787
    -58.245637088221
    -58.362766677150
    -58.668171067725
    -58.705508985206
    -58.646687107503
    -58.899393253595
    -59.286309696019
    -59.299413957098
    -59.621573829054
    -59.660170344814
    -59.912876956975
    -59.883474672112
    -59.963795368540
    -59.887108421050
    -60.038333569536
    -60.405133433717
    -60.657840452017
    -60.975131262206
    -61.012471230342
    -60.919570681956
    -61.098261421850
    -61.206670014190
    -61.247320893166
    -61.398547020903
    -61.593269883110
    -61.606376220510
    -61.676169712665
    -61.756492035369
    -61.928534615412
    -62.260800357171
    -62.412027108102
    -62.767826271332
    -62.805168000573
    -63.036378384802
    -63.116701929996
    -63.005763419960
    -63.156990745065
    -63.313622203569
    -63.420556133586
    -63.385964881514
    -63.399073022077
    -63.485434188754
    -63.721237088950
    -64.049865301799
    -64.130189691636
    -64.128034902581
    -64.165378036348
    -64.746169746891
    -64.759279360999
    -64.794828318337
    -64.875153504233
    -64.958345472268
    -65.015144227093
    -65.049603273112
    -65.081444976543
    -65.141514277204
    -65.178858451138
    -65.759656597281
    -65.772767356428
    -65.886477238196
    -65.923822461435
    -65.962506249279
    -65.988913830201
    -66.004934508845
    -66.094926677311
    -66.504619493737
    -66.517731597765
    -66.531316964867
    -66.540589434575
    -66.546212185865
    -66.839894877688
    -19.421024006352
    -18.676059532617
    -20.434503168933
    -21.794711064140
    -23.587402946747
    -25.894355870156
    -28.773578344360
    -32.232804416070
    -36.203745083259
    -40.530554353254
    -44.985350516097
    -49.312163224282
    -53.283110055848
    -56.742342008477
    -59.621574540754
    -61.928535176144
    -63.721237520550
    -65.081445303487
    -66.094926922880
SCALARS phi_mu float 1
LOOKUP_TABLE default
     -0.000010546955
     -0.139089988315
     -0.240425951317
     -0.638153355350
     -0.838210495814
     -0.744971288161
     -0.884052931445
     -0.985389396515
     -1.383116793191
     -1.583174070596
     -1.758455962033
     -1.634174333529
     -1.930999159815
     -1.897537291031
     -1.998872981198
     -2.396600482282
     -2.596656717349
     -2.379137778942
     -2.675962701496
     -3.118668598114
     -3.257749673900
     -3.359084377930
     -3.340069552595
     -3.722254366209
     -3.392621065516
     -3.689444878422
     -3.756812283806
     -3.956867188527
     -4.085033041252
     -4.467217946200
     -4.752832123970
     -5.049654515611
     -4.911368064601
     -5.050448734283
     -5.151782236700
     -5.098515793550
     -5.480699578610
     -5.549510498410
     -5.749563778404
     -5.883159210196
     -6.302260396634
     -6.458726704525
     -6.840909052002
     -6.545529722943
     -6.842350373165
     -6.628122863031
     -7.047223959112
     -7.218329500566
     -7.357409771999
     -7.458741893053
     -7.641605343867
     -8.060705326877
     -7.856470568158
     -8.056521977391
     -8.251423839162
     -8.633604420402
     -8.852489557780
     -9.149308197652
     -9.001816375517
     -9.420914928781
     -9.054500835854
     -9.415316961845
     -9.799464578927
    -10.160278910804
    -10.097560784315
    -10.236641202058
    -10.337971856717
    -10.558383141862
    -10.940561678712
    -10.735700973702
    -10.935750394921
    -10.812946271271
    -11.173759894185
    -10.794512614999
    -11.213609409346
    -11.731718282259
    -12.028534781744
    -12.173156440421
    -12.533969098095
    -12.241300594594
    -12.494006973515
    -12.986263663660
    -13.238970303119
    -13.101471425607
    -13.520566180755
    -13.556793550491
    -13.437611303233
    -13.819787658674
    -13.695872864867
    -13.797202129400
    -13.999746176042
    -14.252452377046
    -13.965853164609
    -14.326664532139
    -14.194931667126
    -14.394979202447
    -14.841932432370
    -14.993158924468
    -15.190949210158
    -15.487763676585
    -15.359956216266
    -15.612661688326
    -15.586895541050
    -15.738122367932
    -15.980699063602
    -16.399791639494
    -16.272810560512
    -16.633620279944
    -16.630992614749
    -16.711317065963
    -16.600378071842
    -16.751604330198
    -16.896841698720
    -17.279015978750
    -17.152652808760
    -17.405357134467
    -17.375955786124
    -17.456280311368
    -17.527741791904
    -17.666820223374
    -17.768148382817
    -17.722647138076
    -17.759991734279
    -17.960587206343
    -18.111812515609
    -18.165878256034
    -18.365924291493
    -18.340785680159
    -18.353896993774
    -18.389437435323
    -18.469761126090
    -18.467610395329
    -18.504954659530
    -18.676059298058
    -19.085748979880
    -19.098859763374
    -19.161895241457
    -19.458708089613
    -19.152037740174
    -19.512845531540
    -19.421023723408
    -19.481093971182
    -19.518437164942
    -19.459610066481
    -19.712312798851
    -19.439928025096
    -19.859018524992
    -19.749648508370
    -19.829970943806
    -19.753284769071
    -19.904508664387
    -20.099230700050
    -20.112340328680
    -20.434502793058
    -20.841303208359
    -20.878644973889
    -20.867788245001
    -21.249960871191
    -21.459441824392
    -21.472549973867
    -21.542344248110
    -21.622665017139
    -21.794710571115
    -21.854549982644
    -21.993630577807
    -22.094958120765
    -22.060242042457
    -22.211464113709
    -22.338837091541
    -22.591537930360
    -22.492688181436
    -22.692733379925
    -22.633998974090
    -22.671338964104
    -22.611268185215
    -22.972073993764
    -23.252137598466
    -23.265243941501
    -23.587402312751
    -23.410874176206
    -23.829963020340
    -23.488704856387
    -23.785516800910
    -23.849301554877
    -23.929620331003
    -24.940958173027
    -24.978296103951
    -24.939469061094
    -25.090689081256
    -25.194595749717
    -25.576767451683
    -25.559094928659
    -25.572199193368
    -25.894355076798
    -25.798065492741
    -26.050764427226
    -26.309348971621
    -26.448428161122
    -26.549755703976
    -26.582214063958
    -26.943018163808
    -26.728530467670
    -26.808847089214
    -26.947485765046
    -27.147530963118
    -27.820185222980
    -27.857520959155
    -27.737683335176
    -28.156771253626
    -27.943502440314
    -28.240314383913
    -28.438323858166
    -28.451425916004
    -28.398697442361
    -28.549915462825
    -28.773577385768
    -29.649393333677
    -30.031565034326
    -29.769011206681
    -30.021708581417
    -30.187758859284
    -30.268073420116
    -30.636153616284
    -30.775235226789
    -30.876563385873
    -30.909021238086
    -31.269824246451
    -31.279413623020
    -31.316747274395
    -31.274293260288
    -31.474339294468
    -31.897550386977
    -31.910650352501
    -32.232803306293
    -32.192480918695
    -32.611568836084
    -32.270310246651
    -32.567123092013
    -32.369645009267
    -32.520861417398
    -33.976203250255
    -34.358375872505
    -34.158702681584
    -34.239015596678
    -34.095821998822
    -34.348518489281
    -34.607095500065
    -34.746177626731
    -34.847506890648
    -35.250359325647
    -35.287691317900
    -35.245234555845
    -35.445282088957
    -35.363818891749
    -35.724621672765
    -35.868497966854
    -35.881596269005
    -36.203743860583
    -36.241252100478
    -36.538066562175
    -36.519287305376
    -36.938376146368
    -36.696452037991
    -36.847667538892
    -38.066319330529
    -37.947145526341
    -38.329319799870
    -38.205401872812
    -38.306732526547
    -38.485513461626
    -38.565825455837
    -38.550617708454
    -38.803314192608
    -38.704463521582
    -38.904512939548
    -39.577166358694
    -39.614497424716
    -39.700478019861
    -39.997294512640
    -39.690629260379
    -40.051432735952
    -40.195305001165
    -40.208402375375
    -40.530553077683
    -40.490233725223
    -40.909324220042
    -40.945543581552
    -41.084626416733
    -41.185958536510
    -41.151251496943
    -41.302466992248
    -41.406371977948
    -41.788548324539
    -41.583685341076
    -41.783736745925
    -42.579704332957
    -42.876522964244
    -42.940309170319
    -43.020621161988
    -42.877424339002
    -43.130121693399
    -43.252496597048
    -43.391579616121
    -43.492913116853
    -43.661572278821
    -44.022377216405
    -43.890639509021
    -44.090692783485
    -44.031965816635
    -44.069296881805
    -43.949460672582
    -44.368553241773
    -44.285598853514
    -44.667777379667
    -44.650104459062
    -44.663201833028
    -44.985349258818
    -44.886659204265
    -45.183479844377
    -45.045188674460
    -45.184271797333
    -45.285606499246
    -45.478058140675
    -45.629274530735
    -45.683332536352
    -45.883387434529
    -46.405394923821
    -46.544478099129
    -46.645813786799
    -46.592554256267
    -46.974734825815
    -46.679352846581
    -46.976175227282
    -46.848371199521
    -47.101070095188
    -46.828688070705
    -47.247782818082
    -47.043543286082
    -47.243599513965
    -47.120799634526
    -47.481606497241
    -47.267119560463
    -47.347432467408
    -47.418876181418
    -47.557959379051
    -47.659295841422
    -48.057021369199
    -48.257078639401
    -48.163835662031
    -48.039564104061
    -48.336387906180
    -48.302919740405
    -48.404257289138
    -48.358772453769
    -48.396104443331
    -48.509209264453
    -48.580866233039
    -48.385248362006
    -48.767430697915
    -48.624337652367
    -48.801982866739
    -49.002041315854
    -48.976911094676
    -48.990009396039
    -49.053042588478
    -49.349867501424
    -49.209239410723
    -49.350702668930
    -49.312162052460
    -49.135643964923
    -49.554740751201
    -49.436524101279
    -49.449001272699
    -49.600219258394
    -49.745456250959
    -50.127640025704
    -49.798004826451
    -50.094830700047
    -50.000027455275
    -50.360836359272
    -50.307598712353
    -50.560299486933
    -50.402248678012
    -50.612136717641
    -50.739472775804
    -50.758938784610
    -51.141123681279
    -50.928338496967
    -51.347437042691
    -51.238062685392
    -51.318377230724
    -51.503901453183
    -51.886087078603
    -52.329719321767
    -52.367052968114
    -52.281909101163
    -52.552155437220
    -52.306983759440
    -52.667794528029
    -52.288546734275
    -52.707646710939
    -52.716111729128
    -52.947857959797
    -52.960957923884
    -52.908228804716
    -53.059448765226
    -53.283109019182
    -53.186826729871
    -53.439529368697
    -53.302029540132
    -53.721130631377
    -54.046992423967
    -54.466094149719
    -54.099678675050