# vtk DataFile Version 3.0
MachLine results file. Generated by MachLine, USU AeroLab (c) 2022.
ASCII
DATASET POLYDATA
POINTS                4847 float
  0.134734994924E-08  0.110223445430E-24  0.881787563441E-25
  0.458075275478E-02  0.565405825884E-26 -0.101794383270E-02
  0.458075275735E-02  0.571019642207E-26  0.101794382112E-02
  0.827775207790E-02  0.832120757102E-02  0.000000000000E+00
  0.827775323569E-02 -0.832120641928E-02  0.000000000000E+00
  0.856803594975E-02 -0.325980461880E-25 -0.190400681280E-02
  0.856803595382E-02 -0.110438018528E-25  0.190400679446E-02
  0.120840671280E-01 -0.322038533983E-25 -0.268534708885E-02
  0.120840671340E-01 -0.109951110129E-25  0.268534706198E-02
  0.126938503842E-01  0.832120779082E-02 -0.981354912172E-03
  0.126938503899E-01  0.832120778524E-02  0.981354886944E-03
  0.126938506778E-01 -0.832120749877E-02 -0.981353591065E-03
  0.126938507093E-01 -0.832120746750E-02  0.981353449610E-03
  0.152201957650E-01  0.105580352583E-25 -0.338226458286E-02
  0.152201957653E-01  0.370006613632E-25  0.338226458146E-02
  0.165378117138E-01  0.832120779826E-02 -0.183556857635E-02
  0.165378117226E-01  0.832120778952E-02  0.183556853679E-02
  0.165378120337E-01 -0.832120747997E-02 -0.183556713652E-02
  0.165378120778E-01 -0.832120743613E-02  0.183556693823E-02
  0.172182432999E-01  0.173086338881E-01  0.337657474380E-25
  0.172182446965E-01 -0.173086324989E-01  0.155627051517E-24
  0.180461249474E-01  0.520132700349E-26 -0.401024886229E-02
  0.180461249152E-01  0.134979053802E-25  0.401024900710E-02
  0.199274600486E-01  0.832120781036E-02 -0.258882381917E-02
  0.199274600709E-01  0.832120778816E-02  0.258882371875E-02
  0.199274604063E-01 -0.832120745458E-02 -0.258882220975E-02
  0.199274604147E-01 -0.832120744615E-02  0.258882217165E-02
  0.206160183604E-01  0.255657726050E-25 -0.458133630658E-02
  0.206160183070E-01  0.789904597540E-26  0.458133654661E-02
  0.214565049142E-01  0.173086341862E-01 -0.941835588432E-03
  0.214565049141E-01  0.173086341863E-01  0.941835588736E-03
  0.214565053691E-01 -0.173086337338E-01 -0.941833541636E-03
  0.214565053769E-01 -0.173086337260E-01  0.941833506361E-03
  0.229508613578E-01  0.832120780615E-02 -0.326069075684E-02
  0.229508613661E-01  0.832120779788E-02  0.326069071944E-02
  0.229508617141E-01 -0.832120745179E-02 -0.326068915384E-02
  0.229508617048E-01 -0.832120746101E-02  0.326068919553E-02
  0.229726553410E-01  0.150520462969E-25 -0.510503343424E-02
  0.229726552908E-01  0.235319119096E-25  0.510503366019E-02
  0.251456696224E-01  0.173086342089E-01 -0.176165007575E-02
  0.251456696422E-01  0.173086341892E-01  0.176164998669E-02
  0.251456701219E-01 -0.173086337120E-01 -0.176164782796E-02
  0.251456701099E-01 -0.173086337240E-01  0.176164788217E-02
  0.251503257384E-01  0.515747606168E-26 -0.558896015883E-02
  0.251503256824E-01  0.118056584494E-25  0.558896041096E-02
  0.256752132338E-01  0.832120781912E-02 -0.386610234630E-02
  0.256752132601E-01  0.832120779300E-02  0.386610222817E-02
  0.256752136071E-01 -0.832120744780E-02 -0.386610066660E-02
  0.256752135645E-01 -0.832120749016E-02  0.386610085823E-02
  0.267917399552E-01  0.269323889687E-01  0.327430803921E-25
  0.267917414488E-01 -0.269323874830E-01  0.163070402113E-24
  0.271768897165E-01 -0.198540133489E-25 -0.603930775144E-02
  0.271768896888E-01 -0.435814847100E-26  0.603930787632E-02
  0.281527324940E-01  0.832120781887E-02 -0.441666218089E-02
  0.281527325038E-01  0.832120780918E-02  0.441666213705E-02
  0.281527328517E-01 -0.832120746312E-02 -0.441666057159E-02
  0.281527328201E-01 -0.832120749457E-02  0.441666071387E-02
  0.283988165979E-01  0.173086341915E-01 -0.248457154296E-02
  0.283988165943E-01  0.173086341951E-01  0.248457155913E-02
  0.283988170562E-01 -0.173086337356E-01 -0.248456948070E-02
  0.283988170900E-01 -0.173086337020E-01  0.248456932884E-02
  0.290752715316E-01  0.391790000092E-26 -0.646117060333E-02
  0.290752715783E-01  0.987150312876E-26  0.646117039337E-02
  0.304246607954E-01  0.832120779364E-02 -0.492153501703E-02
  0.304246607780E-01  0.832120781100E-02  0.492153509556E-02
  0.304246611110E-01 -0.832120747966E-02 -0.492153359673E-02
  0.304246610732E-01 -0.832120751731E-02  0.492153376701E-02
  0.308395737648E-01  0.269323892526E-01 -0.899518283536E-03
  0.308395737976E-01  0.269323892200E-01  0.899518136149E-03
  0.308395741839E-01 -0.269323888357E-01 -0.899516397570E-03
  0.308395741748E-01 -0.269323888448E-01  0.899516438674E-03
  0.308645616342E-01 -0.316668937664E-26 -0.685879078889E-02
  0.308645617158E-01 -0.494748197226E-25  0.685879042155E-02
  0.313004653153E-01  0.173086341852E-01 -0.312938233934E-02
  0.313004653151E-01  0.173086341853E-01  0.312938234000E-02
  0.313004658025E-01 -0.173086337005E-01 -0.312938014674E-02
  0.313004657771E-01 -0.173086337257E-01  0.312938026088E-02
  0.325240553897E-01  0.832120778935E-02 -0.538806712863E-02
  0.325240553800E-01  0.832120779902E-02  0.538806717236E-02
  0.325240557098E-01 -0.832120747097E-02 -0.538806568840E-02
  0.325240556547E-01 -0.832120752571E-02  0.538806593604E-02
  0.325608426471E-01 -0.397173728549E-26 -0.723574195072E-02
  0.325608427024E-01 -0.258959979981E-25  0.723574170165E-02
  0.339151073422E-01  0.173086341962E-01 -0.371041395280E-02
  0.339151073611E-01  0.173086341774E-01  0.371041386781E-02
  0.339151078571E-01 -0.173086336839E-01 -0.371041163573E-02
  0.339151078155E-01 -0.173086337254E-01  0.371041182320E-02
  0.341778176710E-01 -0.968764725874E-26 -0.759506954503E-02
  0.341778176537E-01 -0.446585137811E-26  0.759506962300E-02
  0.343629819714E-01  0.269323892461E-01 -0.168249785417E-02
  0.343629819865E-01  0.269323892311E-01  0.168249778621E-02
  0.343629823955E-01 -0.269323888242E-01 -0.168249594534E-02
  0.343629823963E-01 -0.269323888234E-01  0.168249594174E-02
  0.344777750488E-01  0.832120779625E-02 -0.582222708567E-02
  0.344777750414E-01  0.832120780357E-02  0.582222711875E-02
  0.344777753753E-01 -0.832120747146E-02 -0.582222561643E-02
  0.344777753417E-01 -0.832120750491E-02  0.582222576772E-02
  0.357272953873E-01 -0.478342630084E-26 -0.793939793949E-02
  0.357272953634E-01  0.426339161162E-26  0.793939804676E-02
  0.362928567010E-01  0.173086342143E-01 -0.423880278540E-02
  0.362928567254E-01  0.173086341901E-01  0.423880267575E-02
  0.362928572058E-01 -0.173086337122E-01 -0.423880051392E-02
  0.362928571932E-01 -0.173086337247E-01  0.423880057071E-02
  0.363079200460E-01  0.832120781495E-02 -0.622892606266E-02
  0.363079200562E-01  0.832120780479E-02  0.622892601669E-02
  0.363079203529E-01 -0.832120750963E-02 -0.622892468148E-02
  0.363079203550E-01 -0.832120750760E-02  0.622892467231E-02
  0.369489978444E-01  0.371429696690E-01  0.000000000000E+00
  0.369489992531E-01 -0.371429682677E-01  0.000000000000E+00
  0.372195695711E-01  0.469225058803E-26 -0.827101444450E-02
  0.372195695430E-01  0.407987947272E-25  0.827101457082E-02
  0.374699629596E-01  0.269323892420E-01 -0.237293805386E-02
  0.374699629380E-01  0.269323892634E-01  0.237293815103E-02
  0.374699634150E-01 -0.269323887889E-01 -0.237293600440E-02
  0.374699634342E-01 -0.269323887698E-01  0.237293591797E-02
  0.380328946070E-01  0.832120781887E-02 -0.661225376150E-02
  0.380328946172E-01  0.832120780879E-02  0.661225371587E-02
  0.380328949180E-01 -0.832120750959E-02 -0.661225236240E-02
  0.380328949480E-01 -0.832120747967E-02  0.661225222705E-02
  0.384732942773E-01  0.173086341951E-01 -0.472334437772E-02
  0.384732942619E-01  0.173086342104E-01  0.472334444716E-02
  0.384732947177E-01 -0.173086337570E-01 -0.472334239616E-02
  0.384732947174E-01 -0.173086337573E-01  0.472334239726E-02
  0.386637200364E-01  0.821871899629E-26 -0.859193689643E-02
  0.386637200239E-01  0.767288304184E-26  0.859193695273E-02
  0.396682032032E-01  0.832120781572E-02 -0.697565565675E-02
  0.396682032040E-01  0.832120781499E-02  0.697565565341E-02
  0.396682035078E-01 -0.832120751269E-02 -0.697565428593E-02
  0.396682035365E-01 -0.832120748421E-02  0.697565415712E-02
  0.400678551548E-01 -0.138879930239E-25 -0.890396705856E-02
  0.400678551850E-01 -0.125860925295E-25  0.890396690823E-02
  0.402412387247E-01  0.269323892557E-01 -0.298877717829E-02
  0.402412387147E-01  0.269323892657E-01  0.298877722332E-02
  0.402412391901E-01 -0.269323887927E-01 -0.298877508390E-02
  0.402412392171E-01 -0.269323887659E-01  0.298877496252E-02
  0.404881460965E-01  0.173086341909E-01 -0.517108920664E-02
  0.404881460812E-01  0.173086342061E-01  0.517108927532E-02
  0.404881465177E-01 -0.173086337719E-01 -0.517108731126E-02
  0.404881465122E-01 -0.173086337774E-01  0.517108733584E-02
  0.407947921067E-01  0.371429700039E-01 -0.854620424571E-03
  0.407947921246E-01  0.371429699862E-01  0.854620344233E-03
  0.407947924787E-01 -0.371429696339E-01 -0.854618750614E-03
  0.407947925235E-01 -0.371429695894E-01  0.854618549375E-03
  0.412270564455E-01  0.832120780747E-02 -0.732206744931E-02
  0.412270564555E-01  0.832120779752E-02  0.732206740429E-02
  0.412270567498E-01 -0.832120750474E-02 -0.732206607988E-02
  0.412270567589E-01 -0.832120749575E-02  0.732206603920E-02
  0.415790790012E-01  0.000000000000E+00 -0.919126381131E-02
  0.415790790115E-01  0.272280539482E-26  0.919126366063E-02
  0.423631893353E-01  0.173086341831E-01 -0.558776544495E-02
  0.423631893284E-01  0.173086341900E-01  0.558776547623E-02
  0.423631897641E-01 -0.173086337566E-01 -0.558776351536E-02
  0.423631897409E-01 -0.173086337796E-01  0.558776361974E-02
  0.427208386078E-01  0.832120778730E-02 -0.765401894505E-02
  0.427208385945E-01  0.832120780051E-02  0.765401900480E-02
  0.427208389245E-01 -0.832120747225E-02 -0.765401751991E-02
  0.427208389129E-01 -0.832120748377E-02  0.765401757203E-02
  0.427384032349E-01  0.269323892436E-01 -0.354370256751E-02
  0.427384032555E-01  0.269323892231E-01  0.354370247479E-02
  0.427384036758E-01 -0.269323888050E-01 -0.354370058322E-02
  0.427384036887E-01 -0.269323887922E-01  0.354370052535E-02
[...]
POINT_DATA                4847
SCALARS phi float 1
LOOKUP_TABLE default
  0.000000000000E+00
  0.108420217249E-18
 -0.542101086243E-19
 -0.258493941423E-25
  0.103397576569E-24
  0.000000000000E+00
  0.216840434497E-18
 -0.433680868994E-18
  0.000000000000E+00
  0.108420217249E-18
 -0.108420217249E-18
 -0.108420217249E-18
  0.216840434497E-18
  0.433680868994E-18
 -0.216840434497E-18
 -0.433680868994E-18
 -0.433680868994E-18
  0.000000000000E+00
 -0.650521303491E-18
 -0.258493941423E-25
  0.103397576569E-24
 -0.433680868994E-18
  0.000000000000E+00
  0.216840434497E-18
 -0.433680868994E-18
 -0.216840434497E-18
 -0.216840434497E-18
 -0.433680868994E-18
 -0.650521303491E-18
  0.216840434497E-18
  0.216840434497E-18
  0.000000000000E+00
  0.216840434497E-18
  0.867361737988E-18
  0.433680868994E-18
 -0.433680868994E-18
  0.433680868994E-18
 -0.433680868994E-18
  0.433680868994E-18
 -0.216840434497E-18
  0.216840434497E-18
 -0.433680868994E-18
  0.433680868994E-18
  0.433680868994E-18
  0.000000000000E+00
 -0.867361737988E-18
  0.433680868994E-18
  0.433680868994E-18
  0.000000000000E+00
  0.000000000000E+00
 -0.103397576569E-24
  0.000000000000E+00
  0.000000000000E+00
  0.433680868994E-18
  0.867361737988E-18
 -0.433680868994E-18
 -0.173472347598E-17
  0.000000000000E+00
  0.000000000000E+00
  0.433680868994E-18
  0.000000000000E+00
 -0.433680868994E-18
  0.433680868994E-18
 -0.867361737988E-18
 -0.433680868994E-18
 -0.130104260698E-17
  0.000000000000E+00
 -0.108420217249E-18
 -0.216840434497E-18
  0.108420217249E-18
  0.325260651746E-18
  0.867361737988E-18
  0.867361737988E-18
  0.130104260698E-17
  0.867361737988E-18
 -0.867361737988E-18
  0.130104260698E-17
  0.173472347598E-17
  0.173472347598E-17
 -0.867361737988E-18
  0.130104260698E-17
 -0.867361737988E-18
  0.000000000000E+00
 -0.433680868994E-18
  0.867361737988E-18
  0.867361737988E-18
  0.000000000000E+00
 -0.216840434497E-17
 -0.216840434497E-17
  0.216840434497E-18
  0.000000000000E+00
  0.216840434497E-18
 -0.216840434497E-18
  0.000000000000E+00
 -0.130104260698E-17
 -0.130104260698E-17
  0.433680868994E-18
 -0.867361737988E-18
 -0.130104260698E-17
  0.130104260698E-17
  0.000000000000E+00
 -0.433680868994E-18
 -0.130104260698E-17
  0.000000000000E+00
  0.346944695195E-17
 -0.346944695195E-17
 -0.433680868994E-18
 -0.258493941423E-25
  0.000000000000E+00
 -0.433680868994E-18
 -0.867361737988E-18
 -0.433680868994E-18
 -0.433680868994E-18
  0.867361737988E-18
 -0.867361737988E-18
  0.130104260698E-17
  0.216840434497E-17
  0.433680868994E-18
 -0.173472347598E-17
  0.433680868994E-18
 -0.130104260698E-17
  0.433680868994E-18
 -0.173472347598E-17
  0.867361737988E-18
  0.173472347598E-17
 -0.173472347598E-17
 -0.867361737988E-18
 -0.867361737988E-18
  0.433680868994E-18
  0.130104260698E-17
  0.000000000000E+00
  0.433680868994E-18
 -0.433680868994E-18
 -0.130104260698E-17
  0.433680868994E-18
  0.433680868994E-18
 -0.433680868994E-18
 -0.173472347598E-17
  0.433680868994E-18
  0.108420217249E-18
 -0.108420217249E-18
  0.000000000000E+00
 -0.216840434497E-18
  0.433680868994E-18
  0.000000000000E+00
 -0.130104260698E-17
 -0.433680868994E-18
  0.867361737988E-18
  0.000000000000E+00
  0.000000000000E+00
  0.867361737988E-18
 -0.867361737988E-18
  0.130104260698E-17
 -0.867361737988E-18
  0.433680868994E-18
  0.433680868994E-18
 -0.867361737988E-18
  0.000000000000E+00
 -0.130104260698E-17
 -0.173472347598E-17
  0.433680868994E-18
  0.000000000000E+00
 -0.867361737988E-18
  0.260208521397E-17
  0.173472347598E-17
  0.000000000000E+00
 -0.433680868994E-18
  0.433680868994E-18
  0.433680868994E-18
 -0.216840434497E-17
 -0.216840434497E-17
  0.000000000000E+00
 -0.607153216592E-17
  0.000000000000E+00
  0.130104260698E-17
  0.433680868994E-18
  0.130104260698E-17
  0.867361737988E-18
 -0.867361737988E-18
 -0.867361737988E-18
  0.346944695195E-17
  0.000000000000E+00
 -0.173472347598E-17
  0.520417042793E-17
 -0.173472347598E-17
  0.867361737988E-18
 -0.867361737988E-18
  0.173472347598E-17
  0.867361737988E-18
 -0.433680868994E-18
  0.867361737988E-18
  0.130104260698E-17
  0.000000000000E+00
  0.433680868994E-18
 -0.433680868994E-18
  0.000000000000E+00
 -0.433680868994E-18
  0.346944695195E-17
 -0.260208521397E-17
 -0.867361737988E-18
 -0.867361737988E-18
 -0.258493941423E-25
 -0.103397576569E-24
 -0.433680868994E-18
 -0.173472347598E-17
  0.607153216592E-17
  0.346944695195E-17
  0.867361737988E-18
 -0.433680868994E-17
  0.173472347598E-17
 -0.867361737988E-18
 -0.260208521397E-17
 -0.173472347598E-17
  0.000000000000E+00
  0.173472347598E-17
  0.867361737988E-18
 -0.867361737988E-18
 -0.130104260698E-17
  0.433680868994E-18
  0.130104260698E-17
 -0.433680868994E-18
  0.173472347598E-17
 -0.433680868994E-17
  0.867361737988E-18
  0.346944695195E-17
 -0.260208521397E-17
 -0.867361737988E-18
  0.260208521397E-17
  0.260208521397E-17
  0.108420217249E-18
 -0.108420217249E-18
  0.000000000000E+00
 -0.108420217249E-18
  0.000000000000E+00
  0.607153216592E-17
  0.693889390391E-17
 -0.346944695195E-17
  0.433680868994E-18
 -0.867361737988E-18
  0.433680868994E-18
  0.130104260698E-17
 -0.346944695195E-17
 -0.867361737988E-18
  0.173472347598E-17
  0.867361737988E-18
  0.520417042793E-17
 -0.260208521397E-17
  0.000000000000E+00
 -0.173472347598E-17
 -0.173472347598E-17
 -0.867361737988E-18
  0.260208521397E-17
  0.173472347598E-17
 -0.867361737988E-18
  0.346944695195E-17
  0.000000000000E+00
 -0.867361737988E-18
 -0.130104260698E-17
  0.000000000000E+00
  0.173472347598E-17
  0.780625564190E-17
  0.173472347598E-17
 -0.607153216592E-17
  0.867361737988E-18
 -0.954097911787E-17
 -0.173472347598E-17
  0.433680868994E-17
 -0.216840434497E-18
  0.433680868994E-18
  0.000000000000E+00
 -0.216840434497E-18
  0.346944695195E-17
 -0.867361737988E-18
  0.000000000000E+00
 -0.173472347598E-17
 -0.173472347598E-17
 -0.520417042793E-17
  0.433680868994E-17
 -0.260208521397E-17
 -0.173472347598E-17
 -0.346944695195E-17
  0.173472347598E-17
 -0.173472347598E-17
 -0.607153216592E-17
  0.433680868994E-17
 -0.693889390391E-17
 -0.173472347598E-17
  0.000000000000E+00
  0.433680868994E-18
  0.000000000000E+00
  0.867361737988E-18
 -0.867361737988E-18
 -0.867361737988E-18
 -0.867361737988E-18
  0.000000000000E+00
 -0.173472347598E-17
  0.173472347598E-17
  0.260208521397E-17
  0.000000000000E+00
  0.000000000000E+00
  0.000000000000E+00
 -0.260208521397E-17
 -0.346944695195E-17
  0.867361737988E-18
 -0.867361737988E-18
 -0.867361737988E-18
 -0.433680868994E-18
 -0.867361737988E-18
 -0.433680868994E-18
 -0.260208521397E-17
  0.346944695195E-17
 -0.867361737988E-18
 -0.867361737988E-18
  0.867361737988E-18
 -0.260208521397E-17
  0.260208521397E-17
 -0.867361737988E-18
 -0.867361737988E-18
  0.867361737988E-18
  0.000000000000E+00
  0.346944695195E-17
  0.260208521397E-17
  0.433680868994E-17
 -0.867361737988E-18
  0.000000000000E+00
  0.000000000000E+00
  0.000000000000E+00
  0.000000000000E+00
 -0.173472347598E-17
 -0.173472347598E-17
  0.693889390391E-17
 -0.433680868994E-18
  0.867361737988E-18
 -0.433680868994E-18
  0.867361737988E-18
  0.108420217249E-18
  0.216840434497E-18
 -0.108420217249E-18
 -0.216840434497E-18
 -0.346944695195E-17
  0.000000000000E+00
  0.520417042793E-17
 -0.867361737988E-18
  0.867361737988E-18
  0.173472347598E-17
 -0.173472347598E-17
  0.693889390391E-17
 -0.867361737988E-18
  0.867361737988E-18
  0.346944695195E-17
 -0.867361737988E-18
  0.433680868994E-18
  0.867361737988E-18
  0.130104260698E-17
 -0.433680868994E-18
 -0.867361737988E-18
 -0.346944695195E-17
 -0.260208521397E-17
  0.000000000000E+00
  0.000000000000E+00
 -0.216840434497E-18
 -0.433680868994E-18
 -0.216840434497E-18
  0.173472347598E-17
  0.346944695195E-17
  0.000000000000E+00
  0.000000000000E+00
 -0.433680868994E-17
  0.433680868994E-17
  0.867361737988E-18
  0.000000000000E+00
 -0.867361737988E-18
 -0.260208521397E-17
 -0.173472347598E-17
 -0.780625564190E-17
 -0.780625564190E-17
  0.260208521397E-17
 -0.433680868994E-17
  0.260208521397E-17
 -0.867361737988E-18
  0.346944695195E-17
 -0.346944695195E-17
  0.121430643318E-16
 -0.260208521397E-17
 -0.260208521397E-17
  0.867361737988E-18
  0.260208521397E-17
 -0.867361737988E-18
  0.867361737988E-18
  0.433680868994E-18
  0.000000000000E+00
  0.433680868994E-18
  0.000000000000E+00
 -0.260208521397E-17
 -0.867361737988E-18
  0.173472347598E-17
 -0.260208521397E-17
 -0.260208521397E-17
  0.346944695195E-17
  0.000000000000E+00
  0.346944695195E-17
  0.260208521397E-17
  0.867361737988E-18
  0.346944695195E-17
  0.867361737988E-18
 -0.173472347598E-17
 -0.173472347598E-17
  0.867361737988E-18
  0.000000000000E+00
  0.433680868994E-18
  0.173472347598E-17
  0.000000000000E+00
  0.000000000000E+00
  0.000000000000E+00
  0.000000000000E+00
  0.260208521397E-17
 -0.867361737988E-18
 -0.346944695195E-17
  0.867361737988E-18
  0.000000000000E+00
 -0.346944695195E-17
  0.000000000000E+00
  0.867361737988E-18
  0.607153216592E-17
  0.173472347598E-17
  0.000000000000E+00
 -0.607153216592E-17
 -0.867361737988E-18
  0.607153216592E-17
 -0.433680868994E-17
  0.867361737988E-18
 -0.260208521397E-17
 -0.433680868994E-17
  0.173472347598E-17
 -0.867361737988E-18
  0.173472347598E-17
 -0.173472347598E-17
  0.000000000000E+00
  0.000000000000E+00
  0.260208521397E-17
  0.867361737988E-18
  0.607153216592E-17
  0.433680868994E-17
  0.260208521397E-17
  0.000000000000E+00
  0.108420217249E-18
  0.000000000000E+00
  0.000000000000E+00
 -0.758941520740E-18
  0.260208521397E-17
  0.173472347598E-17
  0.000000000000E+00
  0.000000000000E+00
  0.433680868994E-18
  0.433680868994E-18
  0.130104260698E-17
  0.867361737988E-18
 -0.346944695195E-17
 -0.346944695195E-17
  0.780625564190E-17
  0.000000000000E+00
 -0.433680868994E-17
 -0.433680868994E-17
 -0.260208521397E-17
  0.000000000000E+00
 -0.173472347598E-17
  0.173472347598E-17
  0.000000000000E+00
 -0.867361737988E-18
  0.867361737988E-18
  0.260208521397E-17
 -0.867361737988E-18
  0.867361737988E-18
  0.433680868994E-18
  0.000000000000E+00
 -0.433680868994E-18
  0.867361737988E-18
 -0.867361737988E-18
  0.520417042793E-17
  0.173472347598E-17
  0.433680868994E-17
 -0.867361737988E-18
  0.693889390391E-17
  0.173472347598E-17
  0.867361737988E-18
 -0.520417042793E-17
 -0.173472347598E-17
 -0.867361737988E-18
  0.173472347598E-17
  0.867361737988E-18
  0.260208521397E-17
 -0.433680868994E-17
  0.000000000000E+00
  0.867361737988E-17
 -0.346944695195E-17
  0.173472347598E-17
  0.000000000000E+00
 -0.867361737988E-18
 -0.433680868994E-17
 -0.954097911787E-17
 -0.346944695195E-17
  0.000000000000E+00
 -0.346944695195E-17
  0.000000000000E+00
  0.867361737988E-18
 -0.867361737988E-18
  0.433680868994E-18
  0.260208521397E-17
 -0.867361737988E-18
  0.000000000000E+00
  0.260208521397E-17
 -0.260208521397E-17
  0.000000000000E+00
  0.260208521397E-17
  0.867361737988E-18
 -0.867361737988E-18
  0.607153216592E-17
  0.000000000000E+00
 -0.693889390391E-17
 -0.867361737988E-18
  0.173472347598E-17
  0.000000000000E+00
  0.433680868994E-17
 -0.867361737988E-18
  0.433680868994E-17
  0.000000000000E+00
  0.000000000000E+00
 -0.433680868994E-18
 -0.433680868994E-18
 -0.433680868994E-18
  0.433680868994E-18
  0.520417042793E-17
  0.173472347598E-17
 -0.867361737988E-18
  0.260208521397E-17
  0.000000000000E+00
  0.206795153138E-24
 -0.260208521397E-17
 -0.520417042793E-17
 -0.173472347598E-17
 -0.867361737988E-18
 -0.867361737988E-18
  0.867361737988E-18
  0.433680868994E-18
  0.000000000000E+00
 -0.607153216592E-17
  0.693889390391E-17
 -0.346944695195E-17
  0.260208521397E-17
  0.607153216592E-17
  0.433680868994E-18
  0.520417042793E-17
  0.130104260698E-17
 -0.867361737988E-18
  0.520417042793E-17
  0.000000000000E+00
  0.260208521397E-17
 -0.260208521397E-17
  0.173472347598E-17
 -0.867361737988E-18
 -0.867361737988E-18
  0.173472347598E-17
  0.520417042793E-17
 -0.867361737988E-18
 -0.433680868994E-18
 -0.130104260698E-17
  0.000000000000E+00
  0.216840434497E-18
  0.216840434497E-18
  0.216840434497E-18
 -0.867361737988E-18
 -0.130104260698E-16
 -0.173472347598E-17
  0.780625564190E-17
 -0.346944695195E-17
  0.173472347598E-17
  0.867361737988E-18
 -0.260208521397E-17
 -0.260208521397E-17
 -0.954097911787E-17
 -0.607153216592E-17
  0.260208521397E-17
 -0.260208521397E-17
 -0.433680868994E-18
  0.130104260698E-17
  0.433680868994E-18
  0.130104260698E-17
  0.173472347598E-17
  0.867361737988E-18
 -0.173472347598E-17
  0.000000000000E+00
 -0.607153216592E-17
 -0.867361737988E-18
  0.173472347598E-17
  0.173472347598E-17
  0.000000000000E+00
  0.650521303491E-18
 -0.650521303491E-18
 -0.216840434497E-18
 -0.520417042793E-17
  0.346944695195E-17
  0.867361737988E-18
  0.173472347598E-17
  0.000000000000E+00
 -0.260208521397E-17
  0.000000000000E+00
 -0.173472347598E-17
  0.260208521397E-17
  0.607153216592E-17
  0.173472347598E-17
 -0.346944695195E-17
  0.216840434497E-17
  0.433680868994E-18
 -0.108420217249E-16
  0.173472347598E-17
  0.130104260698E-17
 -0.134441069388E-16
 -0.607153216592E-17
 -0.477048955894E-17
  0.867361737988E-18
  0.346944695195E-17
  0.346944695195E-17
  0.173472347598E-17
  0.433680868994E-18
 -0.216840434497E-18
 -0.867361737988E-18
  0.216840434497E-18
  0.173472347598E-17
  0.823993651089E-17
  0.867361737988E-18
 -0.346944695195E-17
  0.000000000000E+00
 -0.780625564190E-17
 -0.607153216592E-17
 -0.867361737988E-18
 -0.433680868994E-17
  0.607153216592E-17
 -0.433680868994E-17
 -0.867361737988E-18
  0.520417042793E-17
 -0.867361737988E-18
 -0.433680868994E-17
  0.173472347598E-17
 -0.260208521397E-17
  0.867361737988E-18
 -0.433680868994E-18
  0.130104260698E-17
  0.130104260698E-17
  0.130104260698E-17
 -0.433680868994E-17
 -0.173472347598E-17
  0.867361737988E-18
 -0.346944695195E-17
 -0.520417042793E-17
  0.780625564190E-17
  0.260208521397E-17
  0.607153216592E-17
 -0.260208521397E-17
  0.867361737988E-18
  0.000000000000E+00
  0.867361737988E-18
  0.000000000000E+00
  0.130104260698E-17
 -0.433680868994E-18
 -0.433680868994E-18
  0.000000000000E+00
 -0.206795153138E-24
 -0.173472347598E-17
  0.000000000000E+00
  0.000000000000E+00
 -0.433680868994E-17
  0.867361737988E-18
  0.693889390391E-17
  0.173472347598E-17
  0.173472347598E-17
  0.173472347598E-17
  0.303576608296E-17
  0.433680868994E-18
  0.173472347598E-17
  0.433680868994E-18
 -0.216840434497E-17
  0.346944695195E-17
  0.607153216592E-17
 -0.173472347598E-17
 -0.346944695195E-17
 -0.433680868994E-17
 -0.173472347598E-17
  0.867361737988E-17
  0.000000000000E+00
  0.260208521397E-17
  0.607153216592E-17
  0.130104260698E-17
  0.130104260698E-17
  0.000000000000E+00
  0.433680868994E-18
  0.000000000000E+00
 -0.303576608296E-17
 -0.130104260698E-17
 -0.216840434497E-17
 -0.130104260698E-17
  0.737257477290E-17
  0.346944695195E-17
  0.346944695195E-17
  0.000000000000E+00
 -0.867361737988E-18
  0.000000000000E+00
  0.108420217249E-18
  0.108420217249E-18
  0.108420217249E-18
 -0.867361737988E-18
  0.130104260698E-17
 -0.130104260698E-17
 -0.173472347598E-17
 -0.260208521397E-17
 -0.260208521397E-17
 -0.433680868994E-17
 -0.607153216592E-17
  0.260208521397E-17
 -0.867361737988E-18
  0.867361737988E-18
  0.173472347598E-17
 -0.173472347598E-17
  0.000000000000E+00
  0.173472347598E-17
 -0.867361737988E-18
  0.346944695195E-17
 -0.867361737988E-18
  0.000000000000E+00
  0.346944695195E-17
  0.000000000000E+00
 -0.433680868994E-18
 -0.433680868994E-18
  0.216840434497E-18
  0.780625564190E-17
  0.433680868994E-17
 -0.433680868994E-17
  0.607153216592E-17
  0.000000000000E+00
  0.867361737988E-18
 -0.260208521397E-17
 -0.346944695195E-17
  0.867361737988E-18
  0.173472347598E-17
  0.173472347598E-17
 -0.173472347598E-17
 -0.112757025938E-16
 -0.260208521397E-17
  0.693889390391E-17
  0.260208521397E-17
 -0.216840434497E-17
 -0.130104260698E-17
 -0.867361737988E-18
 -0.216840434497E-17
 -0.346944695195E-17
 -0.173472347598E-17
  0.867361737988E-18
  0.000000000000E+00
 -0.216840434497E-17
  0.000000000000E+00
  0.867361737988E-18
  0.173472347598E-17
 -0.693889390391E-17
 -0.260208521397E-17
  0.216840434497E-17
 -0.130104260698E-17
  0.151788304148E-17
 -0.433680868994E-18
 -0.867361737988E-18
  0.867361737988E-18
  0.000000000000E+00
  0.867361737988E-18
  0.867361737988E-18
 -0.346944695195E-17
 -0.390312782095E-17
 -0.303576608296E-17
  0.346944695195E-17
  0.433680868994E-17
 -0.346944695195E-17
 -0.433680868994E-17
  0.130104260698E-17
 -0.173472347598E-17
 -0.867361737988E-18
  0.433680868994E-18
  0.000000000000E+00
 -0.260208521397E-17
 -0.260208521397E-17
 -0.173472347598E-17
  0.260208521397E-17
 -0.260208521397E-17
 -0.693889390391E-17
  0.433680868994E-17
  0.173472347598E-17
  0.173472347598E-17
  0.173472347598E-17
  0.433680868994E-17
  0.173472347598E-17
  0.173472347598E-17
  0.867361737988E-18
  0.173472347598E-17
 -0.433680868994E-18
  0.260208521397E-17
  0.000000000000E+00
  0.433680868994E-18
 -0.173472347598E-17
  0.433680868994E-17
 -0.954097911787E-17
 -0.138777878078E-16
  0.346944695195E-17
  0.000000000000E+00
  0.346944695195E-17
  0.867361737988E-18
  0.103397576569E-24
  0.000000000000E+00
  0.000000000000E+00
 -0.867361737988E-18
  0.000000000000E+00
 -0.433680868994E-18
 -0.954097911787E-17
  0.303576608296E-17
 -0.130104260698E-17
  0.303576608296E-17
 -0.867361737988E-18
  0.867361737988E-18
  0.173472347598E-17
 -0.520417042793E-17
  0.607153216592E-17
  0.000000000000E+00
  0.346944695195E-17
  0.000000000000E+00
  0.000000000000E+00
  0.867361737988E-18
 -0.216840434497E-17
 -0.693889390391E-17
 -0.433680868994E-17
  0.867361737988E-18
 -0.173472347598E-17
  0.260208521397E-17
  0.173472347598E-17
 -0.737257477290E-17
 -0.130104260698E-17
  0.390312782095E-17
 -0.867361737988E-18
 -0.130104260698E-17
  0.173472347598E-17
 -0.216840434497E-17
  0.000000000000E+00
  0.346944695195E-17
  0.867361737988E-18
  0.346944695195E-17
 -0.108420217249E-18
  0.108420217249E-18
  0.108420217249E-18
  0.000000000000E+00
 -0.260208521397E-17
  0.173472347598E-17
 -0.260208521397E-17
 -0.867361737988E-18
 -0.433680868994E-17
 -0.780625564190E-17
  0.208166817117E-16
 -0.112757025938E-16
  0.520417042793E-17
 -0.173472347598E-17
  0.000000000000E+00
  0.173472347598E-17
  0.867361737988E-18
 -0.130104260698E-17
 -0.867361737988E-17
  0.433680868994E-17
 -0.173472347598E-17
  0.433680868994E-17
 -0.954097911787E-17
 -0.346944695195E-17
  0.173472347598E-17
  0.104083408559E-16
 -0.433680868994E-18
 -0.867361737988E-18
 -0.867361737988E-18
 -0.216840434497E-17
  0.216840434497E-18
  0.216840434497E-18
  0.216840434497E-18
  0.433680868994E-18
  0.173472347598E-17
  0.346944695195E-17
 -0.260208521397E-17
  0.346944695195E-17
 -0.650521303491E-17
  0.563785129692E-17
 -0.693889390391E-17
  0.000000000000E+00
 -0.390312782095E-17
  0.390312782095E-17
  0.303576608296E-17
  0.563785129692E-17
 -0.433680868994E-18
  0.433680868994E-18
 -0.216840434497E-18
  0.000000000000E+00
 -0.867361737988E-18
  0.520417042793E-17
 -0.260208521397E-17
  0.867361737988E-18
 -0.173472347598E-17
 -0.346944695195E-17
 -0.260208521397E-17
 -0.346944695195E-17
 -0.867361737988E-18
 -0.693889390391E-17
 -0.693889390391E-17
  0.000000000000E+00
  0.173472347598E-17
  0.346944695195E-17
  0.173472347598E-17
  0.216840434497E-17
 -0.433680868994E-17
 -0.346944695195E-17
 -0.173472347598E-17
 -0.520417042793E-17
 -0.433680868994E-18
 -0.390312782095E-17
  0.607153216592E-17
 -0.433680868994E-17
 -0.260208521397E-17
 -0.346944695195E-17
 -0.867361737988E-18
  0.000000000000E+00
 -0.433680868994E-18
  0.000000000000E+00
  0.000000000000E+00
  0.000000000000E+00
  0.173472347598E-17
 -0.867361737988E-18
 -0.346944695195E-17
  0.000000000000E+00
 -0.867361737988E-18
 -0.867361737988E-18
  0.390312782095E-17
  0.130104260698E-17
  0.000000000000E+00
  0.173472347598E-17
 -0.260208521397E-17
 -0.867361737988E-18
 -0.867361737988E-18
  0.867361737988E-18
  0.433680868994E-18
 -0.130104260698E-17
  0.390312782095E-17