# vtk DataFile Version 3.0
MachLine results file. Generated by MachLine, USU AeroLab (c) 2022.
ASCII
DATASET POLYDATA
POINTS                4847 float
  0.229999999849E+00 -0.569803153967E-26 -0.368598707313E-11
  0.229999999849E+00 -0.569693123522E-26  0.368598707313E-11
  0.216140350613E+00  0.832120786071E-02 -0.676590615939E-03
  0.230010460899E+00  0.832120786088E-02 -0.344439207141E-11
  0.230010460899E+00  0.832120786088E-02  0.344439207141E-11
  0.215612743333E+00 -0.181620997136E-27 -0.701817263763E-03
  0.203649904894E+00  0.832120786071E-02 -0.128588066067E-02
  0.202656592104E+00 -0.437211313973E-28 -0.133382465067E-02
  0.192297495544E+00  0.832120786071E-02 -0.183965673410E-02
  0.190880908854E+00  0.479634365377E-28 -0.190824823112E-02
  0.181892470094E+00  0.832120786071E-02 -0.234721895735E-02
  0.180087932655E+00  0.730834202355E-28 -0.243473488114E-02
  0.172282149115E+00  0.832120786071E-02 -0.281601510789E-02
  0.170119291435E+00  0.499011202216E-28 -0.292101006771E-02
  0.163342585845E+00  0.832120786071E-02 -0.325209136886E-02
  0.160846417085E+00  0.461592252713E-30 -0.337334540564E-02
  0.154971873155E+00  0.832120786071E-02 -0.366041882044E-02
  0.152163602875E+00  0.446848798376E-30 -0.379689732160E-02
  0.147085210825E+00  0.832120786071E-02 -0.404513405876E-02
  0.143982886815E+00  0.000000000000E+00 -0.419595664433E-02
  0.139611211805E+00  0.832120786071E-02 -0.440971937885E-02
  0.136230220195E+00 -0.833978078424E-28 -0.457413550612E-02
  0.132489094665E+00  0.832120786071E-02 -0.475713972868E-02
  0.128842555345E+00 -0.543415346491E-28 -0.493450940288E-02
  0.125666519045E+00  0.832120786071E-02 -0.508994829683E-02
  0.121765600396E+00  0.144270078723E-29 -0.527972671846E-02
  0.119097893486E+00  0.832120786071E-02 -0.541036905696E-02
  0.114952064026E+00  0.428196507232E-28 -0.561209434733E-02
  0.112743033916E+00  0.832120786071E-02 -0.572036220742E-02
  0.108360263896E+00  0.750571188062E-28 -0.593364557394E-02
  0.106566084586E+00  0.832120786071E-02 -0.602167680946E-02
  0.101953007376E+00  0.907579505816E-28 -0.624619467281E-02
  0.100534636396E+00  0.832120786071E-02 -0.631589379439E-02
  0.956966770097E-01  0.306941806054E-28 -0.655138152039E-02
  0.946189939866E-01  0.832120786071E-02 -0.660446171674E-02
  0.895604702307E-01 -0.396774417921E-28 -0.685070868039E-02
  0.887915543276E-01  0.832120786071E-02 -0.688872706594E-02
  0.835157548337E-01 -0.170442685119E-28 -0.714557284603E-02
  0.830262678476E-01  0.832120786071E-02 -0.716996055250E-02
  0.775355099927E-01  0.287388879063E-28 -0.743729210643E-02
  0.772981587936E-01  0.832120786071E-02 -0.744938050603E-02
  0.715938287366E-01  0.494207464196E-28 -0.772713021610E-02
  0.715828854855E-01  0.832120786071E-02 -0.772817432534E-02
  0.656654618066E-01 -0.261536152166E-28 -0.801631884635E-02
  0.658563237325E-01  0.832120786071E-02 -0.800751880053E-02
  0.597253855426E-01  0.208112111786E-28 -0.830607866358E-02
  0.600941581095E-01  0.832120786071E-02 -0.828860004971E-02
  0.537483779206E-01  0.945680938547E-29 -0.859764001029E-02
  0.542714663284E-01  0.832120786071E-02 -0.857263379428E-02
  0.477085874265E-01  0.234357070280E-28 -0.889226393599E-02
  0.483622814692E-01  0.832120785202E-02 -0.886088671786E-02
  0.415790789635E-01  0.000000000000E+00 -0.919126436111E-02
  0.400678550273E-01 -0.166151151333E-26 -0.890396769378E-02
  0.469053780890E-01  0.832120784258E-02 -0.858391686480E-02
  0.386637198671E-01  0.832118109389E-27 -0.859193765828E-02
  0.455517142053E-01  0.832120784152E-02 -0.828310266853E-02
  0.372195693752E-01  0.418520237276E-27 -0.827101532607E-02
  0.441594733294E-01  0.832120784140E-02 -0.797371580682E-02
  0.357272951873E-01 -0.421280701371E-27 -0.793939883930E-02
  0.427208385535E-01  0.832120784128E-02 -0.765401918924E-02
  0.341778174685E-01 -0.848763253286E-27 -0.759507045666E-02
  0.412270564117E-01  0.832120784114E-02 -0.732206760160E-02
  0.325608424846E-01 -0.427873670275E-27 -0.723574268174E-02
  0.396682031778E-01  0.832120784098E-02 -0.697565577098E-02
  0.308645615088E-01 -0.431819383295E-27 -0.685879135303E-02
  0.380328945850E-01  0.832120784080E-02 -0.661225386067E-02
  0.290752713720E-01  0.436296437855E-27 -0.646117132150E-02
  0.363079200202E-01  0.832120784059E-02 -0.622892617865E-02
  0.271768895092E-01 -0.176560792477E-26 -0.603930868425E-02
  0.344777750044E-01  0.832120784036E-02 -0.582222728520E-02
  0.251503255225E-01  0.447258578861E-27 -0.558896113044E-02
  0.325240553387E-01  0.832120784009E-02 -0.538806735819E-02
  0.229726551318E-01  0.136206731573E-26 -0.510503437555E-02
  0.304246607490E-01  0.832120783979E-02 -0.492153522580E-02
  0.206160181472E-01  0.230947481623E-26 -0.458133726602E-02
  0.281527324734E-01  0.832120783943E-02 -0.441666227387E-02
  0.180461247306E-01  0.471139258796E-27 -0.401024983801E-02
  0.256752132138E-01  0.832120783900E-02 -0.386610243626E-02
  0.152201955451E-01  0.964208344731E-27 -0.338226557235E-02
  0.229508613253E-01  0.832120783850E-02 -0.326069090319E-02
  0.120840669047E-01 -0.297156026735E-26 -0.268534809384E-02
  0.199274600209E-01  0.832120783790E-02 -0.258882394376E-02
  0.856803572414E-02 -0.306751897722E-26 -0.190400782804E-02
  0.165378116747E-01  0.832120783716E-02 -0.183556875233E-02
  0.458075251994E-02  0.530990956915E-27 -0.101794488947E-02
  0.126938503386E-01  0.832120783625E-02 -0.981355117679E-03
  0.128836021443E-09  0.105397637689E-25  0.843181101511E-26
  0.827775187173E-02  0.832120777611E-02  0.000000000000E+00
  0.126938503386E-01  0.832120783625E-02  0.981355117679E-03
  0.458075251994E-02  0.530990956915E-27  0.101794488947E-02
  0.165378116747E-01  0.832120783716E-02  0.183556875233E-02
  0.856803572414E-02 -0.102250632574E-26  0.190400782804E-02
  0.199274600209E-01  0.832120783790E-02  0.258882394376E-02
  0.120840669047E-01 -0.990520089118E-27  0.268534809384E-02
  0.229508613253E-01  0.832120783850E-02  0.326069090319E-02
  0.152201955451E-01  0.337472920656E-26  0.338226557235E-02
  0.256752132138E-01  0.832120783900E-02  0.386610243626E-02
  0.180461247306E-01  0.141341777639E-26  0.401024983801E-02
  0.281527324734E-01  0.832120783943E-02  0.441666227387E-02
  0.206160181472E-01  0.923789926491E-27  0.458133726602E-02
  0.304246607490E-01  0.832120783979E-02  0.492153522580E-02
  0.229726551318E-01  0.272413463146E-26  0.510503437555E-02
  0.325240553387E-01  0.832120784009E-02  0.538806735819E-02
  0.251503255225E-01  0.134177573658E-26  0.558896113044E-02
  0.344777750044E-01  0.832120784036E-02  0.582222728520E-02
  0.271768895092E-01 -0.441401981193E-27  0.603930868425E-02
  0.363079200202E-01  0.832120784059E-02  0.622892617865E-02
  0.290752713720E-01  0.872592875709E-27  0.646117132150E-02
  0.380328945850E-01  0.832120784080E-02  0.661225386067E-02
  0.308645615088E-01 -0.431819383295E-26  0.685879135303E-02
  0.396682031778E-01  0.832120784098E-02  0.697565577098E-02
  0.325608424846E-01 -0.213936835137E-26  0.723574268174E-02
  0.412270564117E-01  0.832120784114E-02  0.732206760160E-02
  0.341778174685E-01 -0.424381626643E-27  0.759507045666E-02
  0.427208385535E-01  0.832120784128E-02  0.765401918924E-02
  0.357272951873E-01  0.421280701371E-27  0.793939883930E-02
  0.441594733294E-01  0.832120784140E-02  0.797371580682E-02
  0.372195693752E-01  0.418520237276E-26  0.827101532607E-02
  0.455517142053E-01  0.832120784152E-02  0.828310266853E-02
  0.386637198671E-01  0.832118109389E-27  0.859193765828E-02
  0.469053780890E-01  0.832120784258E-02  0.858391686480E-02
  0.400678550273E-01 -0.124613363500E-26  0.890396769378E-02
  0.483622814692E-01  0.832120785202E-02  0.886088671786E-02
  0.415790789635E-01  0.279067551495E-27  0.919126436111E-02
  0.477085874265E-01 -0.829582549665E-29  0.889226393599E-02
  0.542714663284E-01  0.832120786071E-02  0.857263379428E-02
  0.537483779206E-01  0.411165625455E-28  0.859764001029E-02
  0.600941581095E-01  0.832120786071E-02  0.828860004971E-02
  0.597253855426E-01  0.330531001072E-28  0.830607866358E-02
  0.658563237325E-01  0.832120786071E-02  0.800751880053E-02
  0.656654618066E-01 -0.310194040941E-28  0.801631884635E-02
  0.715828854855E-01  0.832120786071E-02  0.772817432534E-02
  0.715938287366E-01  0.324764905043E-28  0.772713021610E-02
  0.772981587936E-01  0.832120786071E-02  0.744938050603E-02
  0.775355099927E-01  0.329592840324E-28  0.743729210643E-02
  0.830262678476E-01  0.832120786071E-02  0.716996055250E-02
  0.835157548337E-01 -0.162421852878E-28  0.714557284603E-02
  0.887915543276E-01  0.832120786071E-02  0.688872706594E-02
  0.895604702307E-01 -0.164320718533E-28  0.685070868039E-02
  0.946189939866E-01  0.832120786071E-02  0.660446171674E-02
  0.956966770097E-01  0.162498603205E-28  0.655138152039E-02
  0.100534636396E+00  0.832120786071E-02  0.631589379439E-02
  0.101953007376E+00  0.154952598554E-28  0.624619467281E-02
  0.106566084586E+00  0.832120786071E-02  0.602167680946E-02
  0.108360263896E+00  0.758663599793E-28  0.593364557394E-02
  0.112743033916E+00  0.832120786071E-02  0.572036220742E-02
  0.114952064026E+00  0.144771200064E-28  0.561209434733E-02
  0.119097893486E+00  0.832120786071E-02  0.541036905696E-02
  0.121765600396E+00 -0.276174150698E-28  0.527972671846E-02
  0.125666519045E+00  0.832120786071E-02  0.508994829683E-02
  0.128842555345E+00 -0.146304131748E-29  0.493450940288E-02
  0.132489094665E+00  0.832120786071E-02  0.475713972868E-02
  0.136230220195E+00 -0.127649705881E-29  0.457413550612E-02
  0.139611211805E+00  0.832120786071E-02  0.440971937885E-02
  0.143982886815E+00 -0.274037553733E-28  0.419595664433E-02
  0.147085210825E+00  0.832120786071E-02  0.404513405876E-02
  0.152163602875E+00  0.223424399188E-30  0.379689732160E-02
  0.154971873155E+00  0.832120786071E-02  0.366041882044E-02
  0.160846417085E+00 -0.727007798023E-28  0.337334540564E-02
  0.163342585845E+00  0.832120786071E-02  0.325209136886E-02
  0.170119291435E+00 -0.933246911836E-28  0.292101006771E-02
[...]
POINT_DATA                4847
SCALARS phi float 1
LOOKUP_TABLE default
 -0.284060969191E-16
  0.507406616723E-16
  0.325260651746E-16
  0.216840434497E-18
  0.188651178012E-16
  0.329597460436E-16
  0.267797936604E-16
  0.317671236538E-16
  0.208979968747E-16
  0.258446692866E-16
  0.135525271561E-16
  0.179435459546E-16
  0.401154803820E-17
  0.639679281766E-17
 -0.119262238973E-17
 -0.867361737988E-18
  0.650521303491E-18
 -0.303576608296E-17
  0.000000000000E+00
 -0.433680868994E-18
 -0.216840434497E-18
  0.411996825544E-17
  0.433680868994E-18
 -0.520417042793E-17
  0.130104260698E-17
  0.173472347598E-17
 -0.260208521397E-17
  0.867361737988E-18
 -0.346944695195E-17
 -0.433680868994E-18
  0.867361737988E-18
 -0.867361737988E-18
  0.173472347598E-17
 -0.303576608296E-17
  0.303576608296E-17
  0.260208521397E-17
  0.390312782095E-17
 -0.823993651089E-17
 -0.477048955894E-17
  0.954097911787E-17
  0.520417042793E-17
  0.260208521397E-17
 -0.346944695195E-17
  0.346944695195E-17
  0.520417042793E-17
  0.000000000000E+00
  0.867361737988E-18
 -0.867361737988E-18
 -0.416333634234E-16
 -0.923740250958E-16
  0.867361737988E-17
 -0.125767452008E-16
  0.000000000000E+00
  0.208166817117E-16
 -0.130104260698E-17
  0.954097911787E-17
 -0.130104260698E-17
  0.477048955894E-17
  0.000000000000E+00
 -0.433680868994E-18
  0.303576608296E-17
  0.433680868994E-18
 -0.867361737988E-18
  0.563785129692E-17
  0.303576608296E-17
  0.433680868994E-18
 -0.303576608296E-17
  0.390312782095E-17
  0.997465998687E-17
  0.477048955894E-17
 -0.433680868994E-18
  0.498732999343E-16
  0.219442519711E-15
  0.156125112838E-16
 -0.279724160501E-16
  0.178242837157E-15
 -0.419803081186E-15
  0.590673343570E-15
 -0.424356730311E-15
  0.232539681955E-14
  0.975847007367E-14
  0.297418339956E-14
  0.890813030979E-14
  0.319189119580E-14
 -0.341654330695E-13
 -0.296557483431E-13
 -0.120470496016E-11
 -0.960913772430E-15
  0.804412959854E-14
  0.285804908386E-13
 -0.120107916668E-14
 -0.191578523878E-14
  0.479434200673E-15
 -0.374895427202E-14
 -0.618862600055E-15
 -0.102565525517E-15
  0.143114686768E-15
 -0.131622143740E-15
  0.175207071074E-15
 -0.379470760370E-16
  0.164798730218E-16
 -0.112323345069E-15
  0.503069808033E-16
  0.216840434497E-17
  0.563785129692E-17
  0.477048955894E-17
 -0.173472347598E-17
 -0.433680868994E-18
  0.433680868994E-18
  0.130104260698E-17
 -0.260208521397E-17
  0.477048955894E-17
  0.000000000000E+00
 -0.173472347598E-17
  0.216840434497E-17
  0.346944695195E-17
 -0.130104260698E-17
  0.216840434497E-17
  0.173472347598E-16
 -0.346944695195E-17
  0.138777878078E-16
  0.737257477290E-17
  0.780625564190E-17
 -0.130104260698E-16
 -0.828330459779E-16
 -0.338271077815E-16
  0.433680868994E-17
 -0.867361737988E-18
  0.260208521397E-17
  0.693889390391E-17
  0.346944695195E-17
 -0.867361737988E-18
  0.346944695195E-17
  0.000000000000E+00
 -0.433680868994E-17
  0.520417042793E-17
 -0.216840434497E-17
 -0.173472347598E-17
  0.433680868994E-18
 -0.433680868994E-17
  0.867361737988E-18
 -0.867361737988E-18
 -0.390312782095E-17
 -0.260208521397E-17
  0.867361737988E-18
 -0.867361737988E-18
  0.433680868994E-18
  0.433680868994E-17
  0.737257477290E-17
 -0.563785129692E-17
  0.346944695195E-17
 -0.173472347598E-17
 -0.216840434497E-18
  0.867361737988E-18
 -0.151788304148E-17
 -0.216840434497E-17
  0.130104260698E-17
 -0.411996825544E-17
  0.216840434497E-18
 -0.336102673471E-17
 -0.596311194867E-17
 -0.650521303491E-17
 -0.124683249836E-16
 -0.975781955237E-17
 -0.166560558748E-16
 -0.147993596544E-16
 -0.175640751943E-16
 -0.177809156288E-16
 -0.125767452008E-16
 -0.164798730218E-16
  0.316587034366E-16
  0.281892564846E-16
 -0.325260651746E-17
  0.260208521397E-16
  0.211961524721E-16
  0.131459513414E-16
  0.542101086243E-17
 -0.975781955237E-18
  0.108420217249E-17
 -0.151788304148E-17
  0.260208521397E-17
  0.433680868994E-18
 -0.173472347598E-17
 -0.216840434497E-17
  0.216840434497E-17
  0.130104260698E-17
  0.867361737988E-18
 -0.130104260698E-17
  0.173472347598E-17
  0.260208521397E-17
 -0.867361737988E-18
 -0.433680868994E-17
 -0.173472347598E-17
 -0.173472347598E-17
 -0.537764277553E-16
  0.693889390391E-17
  0.693889390391E-17
  0.954097911787E-17
 -0.867361737988E-18
 -0.693889390391E-17
 -0.433680868994E-17
 -0.260208521397E-17
 -0.260208521397E-17
  0.238524477947E-16
  0.390312782095E-17
  0.111889664201E-15
  0.420670442924E-15
  0.133617075737E-14
  0.125030194531E-14
  0.130277733046E-14
  0.871698546678E-15
 -0.152048512669E-14
 -0.940783909109E-14
 -0.934588312587E-16
  0.522780603529E-14
  0.146258873068E-14
  0.482253126322E-15
  0.519983361924E-15
  0.234621350126E-15
  0.181278603240E-15
  0.415032591627E-15
  0.102782365952E-15
 -0.867361737988E-18
  0.247198095327E-16
  0.260208521397E-17
  0.000000000000E+00
  0.433680868994E-17
  0.520417042793E-17
 -0.104083408559E-16
  0.780625564190E-17
  0.867361737988E-17
  0.000000000000E+00
 -0.485722573274E-16
 -0.867361737988E-18
 -0.260208521397E-17
 -0.433680868994E-17
 -0.867361737988E-18
  0.303576608296E-17
  0.477048955894E-17
  0.433680868994E-17
 -0.173472347598E-17
  0.867361737988E-18
 -0.867361737988E-18
  0.867361737988E-18
 -0.867361737988E-18
 -0.216840434497E-17
 -0.650521303491E-18
 -0.368628738645E-17
 -0.238524477947E-17
 -0.195156391047E-17
 -0.444522890719E-17
 -0.105167610731E-16
 -0.150162000889E-16
 -0.181061762805E-16
 -0.177809156288E-16
  0.359955121265E-16
  0.370797142990E-16
 -0.227682456222E-16
  0.277555756156E-16
  0.230121911110E-16
  0.141488383509E-16
  0.368628738645E-17
  0.130104260698E-17
 -0.173472347598E-17
 -0.650521303491E-18
 -0.173472347598E-17
  0.650521303491E-18
 -0.130104260698E-17
 -0.520417042793E-17
 -0.216840434497E-17
 -0.173472347598E-17
 -0.173472347598E-17
  0.867361737988E-18
 -0.130104260698E-17
  0.563785129692E-17
  0.867361737988E-18
 -0.867361737988E-18
  0.867361737988E-17
 -0.954097911787E-17
 -0.971445146547E-16
 -0.780625564190E-17
  0.867361737988E-17
  0.780625564190E-17
  0.156125112838E-16
  0.000000000000E+00
  0.121430643318E-16
  0.954097911787E-17
 -0.433680868994E-17
  0.494396190653E-16
  0.398986399475E-15
  0.229417179698E-15
  0.590239662701E-15
  0.412430506413E-15
  0.212069944938E-15
  0.780625564190E-16
  0.154390389362E-15
 -0.521653033270E-14
 -0.154737334057E-14
 -0.969119089720E-16
  0.191361683444E-15
  0.341935681158E-14
  0.186049092799E-15
  0.160461921528E-15
  0.265846372693E-15
  0.414598910758E-15
  0.578963960107E-15
  0.225514051877E-15
  0.387710696881E-15
  0.468375338514E-16
  0.346944695195E-17
  0.867361737988E-18
  0.433680868994E-17
  0.000000000000E+00
  0.433680868994E-17
  0.780625564190E-17
  0.780625564190E-17
 -0.260208521397E-17
 -0.997465998687E-16
  0.260208521397E-17
  0.520417042793E-17
 -0.173472347598E-17
 -0.173472347598E-17
 -0.130104260698E-17
 -0.433680868994E-18
  0.216840434497E-17
 -0.260208521397E-17
  0.520417042793E-17
  0.303576608296E-17
  0.477048955894E-17
 -0.346944695195E-17
  0.281892564846E-17
  0.195156391047E-17
 -0.173472347598E-17
  0.195156391047E-17
 -0.130104260698E-17
 -0.466206934169E-17
 -0.106251812904E-16
 -0.151517253605E-16
 -0.170219741080E-16
 -0.182145964978E-16
  0.346944695195E-16
 -0.140946282423E-16
  0.383807569060E-16
  0.304660810468E-16
  0.233374517628E-16
  0.152601455777E-16
  0.422838847269E-17
 -0.119262238973E-17
  0.151788304148E-17
 -0.650521303491E-18
 -0.238524477947E-17
 -0.173472347598E-17
 -0.173472347598E-17
 -0.433680868994E-17
 -0.260208521397E-17
  0.477048955894E-17
  0.000000000000E+00
  0.867361737988E-18
  0.390312782095E-17
  0.104083408559E-16
 -0.433680868994E-17
  0.173472347598E-17
 -0.260208521397E-17
 -0.520417042793E-17
 -0.641847686111E-16
  0.520417042793E-17
  0.954097911787E-17
  0.867361737988E-17
  0.867361737988E-18
  0.104083408559E-16
  0.260208521397E-17
  0.520417042793E-17
  0.304443970034E-15
  0.241126563161E-15
  0.108420217249E-15
  0.598479599212E-16
  0.173472347598E-17
 -0.108420217249E-16
 -0.294902990916E-16
  0.650521303491E-17
 -0.195590071916E-15
 -0.477699477197E-15
 -0.169449957538E-14
 -0.105132106485E-15
 -0.101481323345E-15
 -0.456882795485E-15
 -0.459701721134E-16
  0.192120624964E-15
  0.741594285980E-16
  0.390312782095E-17
  0.208166817117E-16
  0.581132364452E-16
  0.945424294407E-16
  0.231585584043E-15
  0.296637714392E-15
  0.867361737988E-18
  0.000000000000E+00
  0.346944695195E-17
 -0.693889390391E-17
  0.173472347598E-17
 -0.693889390391E-17
  0.607153216592E-17
 -0.728583859910E-16
 -0.433680868994E-17
 -0.954097911787E-17
 -0.147451495458E-16
  0.693889390391E-17
 -0.780625564190E-17
  0.650521303491E-17
 -0.173472347598E-17
  0.216840434497E-17
 -0.433680868994E-18
  0.130104260698E-17
  0.000000000000E+00
 -0.867361737988E-18
 -0.411996825544E-17
  0.281892564846E-17
  0.867361737988E-18
 -0.195156391047E-17
  0.216840434497E-18
 -0.547522097105E-17
 -0.121701693861E-16
 -0.156938264467E-16
 -0.174556549770E-16
 -0.158293517183E-16
  0.364291929955E-16
 -0.223345647532E-16
  0.355618312575E-16
  0.320923843056E-16
  0.259124319224E-16
  0.162630325873E-16
  0.693889390391E-17
 -0.119262238973E-17
 -0.260208521397E-17
 -0.303576608296E-17
 -0.216840434497E-18
 -0.260208521397E-17
 -0.433680868994E-18
 -0.867361737988E-18
 -0.477048955894E-17
  0.867361737988E-18
 -0.130104260698E-17
  0.260208521397E-17
 -0.823993651089E-17
 -0.346944695195E-17
 -0.867361737988E-18
 -0.346944695195E-17
 -0.693889390391E-17
 -0.954097911787E-17
  0.607153216592E-17
  0.138777878078E-16
  0.164798730218E-16
  0.867361737988E-17
  0.147451495458E-16
  0.693889390391E-17
  0.173472347598E-16
  0.780625564190E-17
 -0.433680868994E-17
 -0.138777878078E-16
 -0.693889390391E-17
 -0.780625564190E-17
 -0.182145964978E-16
 -0.102782365952E-15
 -0.137910516340E-15
 -0.572458747072E-16
 -0.333500588257E-15
 -0.833968311076E-15
 -0.673506389548E-15
 -0.144615311203E-15
 -0.456015433747E-15
 -0.813585310233E-15
 -0.347812056933E-15
 -0.229850860567E-16
  0.149619899803E-15
  0.650521303491E-16
  0.607153216592E-17
 -0.520417042793E-17
 -0.693889390391E-17
  0.433680868994E-17
  0.346944695195E-17
  0.954097911787E-17
  0.294902990916E-16
  0.780625564190E-17
  0.260208521397E-16
  0.954097911787E-17
  0.954097911787E-17
  0.199493199737E-16
  0.121430643318E-16
  0.867361737988E-18
 -0.346944695195E-17
  0.607153216592E-17
 -0.780625564190E-17
 -0.156125112838E-16
 -0.130104260698E-17
  0.173472347598E-17
  0.000000000000E+00
 -0.780625564190E-17
  0.693889390391E-17
  0.650521303491E-17
  0.433680868994E-18
  0.216840434497E-18
  0.195156391047E-17
 -0.216840434497E-17
 -0.650521303491E-18
 -0.184314369323E-17
 -0.390312782095E-17
 -0.128749007983E-16
 -0.164527679675E-16
 -0.174556549770E-16
 -0.162630325873E-16
  0.395733792957E-16
  0.414165229889E-16
 -0.171303943253E-16
  0.346402594109E-16
  0.276200503441E-16
  0.177538105745E-16
  0.672205346941E-17
  0.108420217249E-17
  0.216840434497E-18
  0.433680868994E-18
 -0.216840434497E-17
 -0.433680868994E-18
  0.867361737988E-18
 -0.303576608296E-17
 -0.650521303491E-17
 -0.173472347598E-17
  0.997465998687E-17
 -0.390312782095E-17
 -0.954097911787E-17
 -0.260208521397E-17
  0.693889390391E-17
 -0.520417042793E-17
  0.000000000000E+00
  0.355618312575E-16
  0.893382590128E-16
  0.164798730218E-16
  0.156125112838E-16
  0.156125112838E-16
  0.693889390391E-17
  0.104083408559E-16
  0.520417042793E-17
 -0.173472347598E-17
 -0.867361737988E-18
 -0.346944695195E-17
 -0.208166817117E-16
 -0.468375338514E-16
 -0.624500451352E-16
 -0.724247051220E-16
 -0.533427468863E-16
 -0.235922392733E-15
 -0.783661330273E-15
 -0.704297731247E-15
 -0.451895465492E-15
 -0.165256194313E-16
 -0.323417508052E-15
 -0.657677037830E-15
 -0.772385627679E-15
 -0.244162329244E-15
 -0.633174068732E-16
  0.737257477290E-17
 -0.346944695195E-17
  0.156125112838E-16
 -0.104083408559E-16
 -0.693889390391E-17
 -0.607153216592E-17
 -0.867361737988E-18
  0.112757025938E-16
 -0.520417042793E-17
  0.138777878078E-16
  0.346944695195E-17
  0.130104260698E-16
  0.338271077815E-16
  0.789299181569E-16
  0.381639164715E-16
  0.173472347598E-17
 -0.693889390391E-17
 -0.173472347598E-17
 -0.780625564190E-17
  0.104083408559E-16
 -0.867361737988E-18
  0.130104260698E-17
 -0.130104260698E-17
  0.867361737988E-18
 -0.433680868994E-17
  0.867361737988E-18
  0.216840434497E-17
 -0.195156391047E-17
 -0.173472347598E-17
  0.216840434497E-17
  0.151788304148E-17
 -0.607153216592E-17
 -0.137693675906E-16
 -0.179435459546E-16
 -0.215214131238E-16
 -0.182145964978E-16
  0.422838847269E-16
 -0.182145964978E-16
  0.498732999343E-16
  0.381097063629E-16
  0.306829214813E-16
  0.195156391047E-16
  0.867361737988E-17
 -0.151788304148E-17
  0.108420217249E-17
 -0.650521303491E-18
  0.173472347598E-17
  0.173472347598E-17
 -0.433680868994E-18
 -0.433680868994E-17
 -0.260208521397E-17
 -0.433680868994E-18
  0.607153216592E-17
  0.867361737988E-18
  0.173472347598E-17
 -0.260208521397E-17
  0.173472347598E-17
 -0.867361737988E-18
  0.520417042793E-17
  0.137910516340E-15
  0.156125112838E-15
  0.312250225676E-16
  0.164798730218E-16
  0.156125112838E-16
  0.173472347598E-17
  0.190819582357E-16
  0.520417042793E-17
 -0.607153216592E-17
 -0.216840434497E-16
 -0.459701721134E-16
 -0.633174068732E-16
 -0.451028103754E-16
 -0.208166817117E-16
 -0.507406616723E-16
 -0.225080371008E-15
 -0.634041430470E-15
 -0.937184357896E-15
 -0.319839640883E-15
 -0.236356073602E-16
  0.638492852090E-17
  0.159377719355E-16
 -0.300757682647E-15
 -0.926776017041E-15
 -0.636643515683E-15
 -0.224213009270E-15
 -0.481385764584E-16
 -0.260208521397E-16
 -0.425007251614E-16
 -0.320923843056E-16
 -0.372965547335E-16
 -0.199493199737E-16
 -0.260208521397E-17
  0.607153216592E-17
  0.173472347598E-16
  0.121430643318E-16
  0.190819582357E-16
  0.225514051877E-16
  0.294902990916E-16
  0.166533453694E-15
  0.142247325030E-15
 -0.138777878078E-16
 -0.173472347598E-17
 -0.138777878078E-16
 -0.346944695195E-17
  0.867361737988E-18
 -0.780625564190E-17
 -0.433680868994E-18
 -0.346944695195E-17
 -0.433680868994E-18
 -0.260208521397E-17
 -0.433680868994E-18
  0.130104260698E-17
 -0.303576608296E-17
  0.173472347598E-17
  0.346944695195E-17
  0.119262238973E-17
 -0.813151629364E-17
 -0.156125112838E-16
 -0.200306351367E-16
 -0.221177243187E-16
 -0.200577401910E-16
  0.449943901581E-16
  0.461870125479E-16
 -0.223345647532E-16
  0.436933475512E-16
  0.345996018294E-16
  0.229850860567E-16
  0.899887803163E-17
  0.238524477947E-17
  0.130104260698E-17
  0.650521303491E-18
 -0.845677694539E-17
  0.693889390391E-17
 -0.346944695195E-17
 -0.433680868994E-18
 -0.346944695195E-17
 -0.173472347598E-17
  0.780625564190E-17
  0.346944695195E-17
 -0.433680868994E-17
 -0.433680868994E-17
 -0.121430643318E-16
 -0.693889390391E-17
 -0.607153216592E-17
 -0.346944695195E-17
  0.780625564190E-17
  0.867361737988E-17
  0.147451495458E-16
  0.867361737988E-18
  0.173472347598E-17
 -0.104083408559E-16
 -0.182145964978E-16
 -0.954097911787E-17
 -0.780625564190E-17
 -0.433680868994E-17
 -0.867361737988E-18
 -0.260208521397E-17
 -0.208166817117E-16
 -0.176508113681E-15
 -0.549907341885E-15
 -0.100613961607E-14
 -0.472712147204E-15
  0.550774703623E-16
  0.410912623372E-16
  0.784677103877E-17
  0.494396190653E-16
  0.652689707836E-16
 -0.470326902424E-15
 -0.100657329694E-14
 -0.550774703623E-15
 -0.173038666729E-15
 -0.260208521397E-16
 -0.216840434497E-17
  0.260208521397E-17
 -0.693889390391E-17
 -0.208166817117E-16
 -0.173472347598E-16
 -0.104083408559E-16
 -0.156125112838E-16
  0.260208521397E-17
  0.130104260698E-16
  0.234187669257E-16
 -0.867361737988E-18
  0.104083408559E-16
  0.000000000000E+00
  0.693889390391E-17
 -0.346944695195E-17
 -0.112757025938E-16
  0.121430643318E-16
  0.000000000000E+00
  0.693889390391E-17
  0.112757025938E-16
 -0.173472347598E-17
 -0.477048955894E-17
 -0.112757025938E-16
  0.130104260698E-17
  0.867361737988E-18
 -0.260208521397E-17
  0.000000000000E+00
  0.173472347598E-17
  0.281892564846E-17
 -0.921571846613E-17
 -0.181061762805E-16
 -0.232154790183E-16
 -0.239066579033E-16
 -0.247198095327E-16
  0.567037736210E-16
  0.604984812247E-16
 -0.223345647532E-16
  0.506593465094E-16
  0.416062583691E-16
  0.280808362674E-16
  0.119262238973E-16
 -0.130104260698E-17
  0.325260651746E-17
  0.650521303491E-18
 -0.433680868994E-18
  0.260208521397E-17
 -0.216840434497E-17
  0.346944695195E-17
  0.433680868994E-17
  0.520417042793E-17
  0.867361737988E-18
  0.954097911787E-17
  0.346944695195E-17
  0.260208521397E-17
  0.780625564190E-17
  0.173472347598E-17
  0.780625564190E-17
  0.867361737988E-17
 -0.173472347598E-17
 -0.433680868994E-17
 -0.121430643318E-16
 -0.693889390391E-17
  0.867361737988E-18
 -0.147451495458E-16
 -0.520417042793E-17
 -0.346944695195E-17
 -0.112757025938E-16
 -0.208166817117E-16
 -0.303576608296E-17
 -0.563785129692E-17
 -0.234187669257E-15
 -0.592408067046E-15
 -0.325260651746E-15
 -0.954097911787E-16
  0.136609473733E-16
  0.572458747072E-16
  0.337186875643E-16
  0.875651519783E-17
  0.381639164715E-16
  0.513911829758E-16
  0.143114686768E-16
 -0.910729824888E-16
 -0.323525928270E-15
 -0.600214322688E-15
 -0.235922392733E-15
  0.433680868994E-18
 -0.346944695195E-17
 -0.303576608296E-16
 -0.130104260698E-16
 -0.173472347598E-17
 -0.130104260698E-16
 -0.138777878078E-16
  0.000000000000E+00
 -0.164798730218E-16
 -0.433680868994E-17
 -0.104083408559E-16
 -0.147451495458E-16
  0.433680868994E-17
 -0.520417042793E-17
 -0.433680868994E-17
 -0.780625564190E-17
 -0.433680868994E-17
  0.104083408559E-16
  0.121430643318E-16
 -0.693889390391E-17
  0.173472347598E-17
  0.130104260698E-17
  0.104083408559E-16
  0.130104260698E-17
  0.104083408559E-16
  0.000000000000E+00
  0.000000000000E+00
 -0.650521303491E-18
 -0.346944695195E-17
 -0.997465998687E-17
 -0.224429849704E-16
 -0.275387351811E-16
 -0.280130736316E-16
 -0.262919026828E-16
  0.664615931734E-16
 -0.305745012641E-16
  0.668952740424E-16
  0.617859713045E-16
  0.501985605861E-16
  0.350197301713E-16
  0.171303943253E-16
  0.238524477947E-17
 -0.260208521397E-17
 -0.563785129692E-17
  0.130104260698E-17
  0.260208521397E-17
 -0.260208521397E-17
  0.173472347598E-17
  0.867361737988E-18
  0.164798730218E-16
 -0.173472347598E-17
  0.346944695195E-17
  0.000000000000E+00
 -0.104083408559E-16
 -0.867361737988E-17
  0.867361737988E-18
 -0.433680868994E-17
  0.130104260698E-16
  0.867361737988E-18
 -0.338271077815E-16
 -0.459701721134E-16
 -0.372965547335E-16
 -0.355618312575E-16
 -0.277555756156E-16
 -0.234187669257E-16
 -0.164798730218E-16
 -0.164798730218E-16
 -0.693889390391E-16
  0.433680868994E-18
  0.867361737988E-18
 -0.147451495458E-16
 -0.225514051877E-16
  0.130104260698E-17
  0.216840434497E-17
  0.331765864781E-16
  0.171303943253E-16
  0.166967134563E-16
  0.593843227839E-17
  0.158293517183E-16
  0.153956708493E-16
  0.320923843056E-16
  0.433680868994E-17
  0.607153216592E-17
 -0.221177243187E-16
 -0.147451495458E-16
 -0.390312782095E-17
 -0.346944695195E-17
 -0.819656842399E-16
 -0.121430643318E-16
 -0.164798730218E-16
 -0.251534904017E-16
 -0.268882138776E-16
 -0.372965547335E-16
 -0.372965547335E-16
 -0.451028103754E-16
 -0.381639164715E-16
  0.954097911787E-17
 -0.520417042793E-17
  0.346944695195E-17
 -0.520417042793E-17
 -0.346944695195E-17
 -0.693889390391E-17
 -0.260208521397E-17
  0.780625564190E-17
 -0.433680868994E-17
  0.693889390391E-17
 -0.954097911787E-17
  0.433680868994E-17
 -0.216840434497E-17
  0.477048955894E-17
  0.563785129692E-17
  0.867361737988E-18
 -0.108420217249E-17
 -0.281892564846E-17
 -0.123599047663E-16
 -0.268882138776E-16
 -0.333392168039E-16
 -0.343692088678E-16
 -0.323092247401E-16
  0.846144621451E-16
 -0.355618312575E-16
  0.864651232557E-16
  0.796346495691E-16
  0.672205346941E-16
  0.485722573274E-16
  0.214672030152E-16
  0.260208521397E-17
  0.477048955894E-17
 -0.693889390391E-17
  0.954097911787E-17
 -0.433680868994E-17
 -0.737257477290E-17