# vtk DataFile Version 3.0
MachLine results file. Generated by MachLine, USU AeroLab (c) 2022.
ASCII
DATASET POLYDATA
POINTS                4925 float
  0.227504927993E-08 -0.000000000000E+00 -0.744465148928E-25
  0.916070722352E-03  0.203568950021E-03  0.160878094911E-25
  0.916070717208E-03 -0.203568973167E-03  0.000000000000E+00
  0.364563285893E-02  0.810138348665E-03  0.000000000000E+00
  0.364563285512E-02 -0.810138365805E-03  0.000000000000E+00
  0.813312089339E-02  0.180735795406E-02  0.000000000000E+00
  0.813312088333E-02 -0.180735799934E-02 -0.152240117255E-25
  0.142871825073E-01  0.317492726382E-02  0.000000000000E+00
  0.142871824958E-01 -0.317492731563E-02  0.147453479069E-25
  0.204335459349E-01 -0.198139985293E-24  0.205408158474E-01
  0.204335468791E-01 -0.586570849425E-24 -0.205408149081E-01
  0.213309206183E-01  0.199415545091E-03  0.205408160825E-01
  0.213309205937E-01 -0.199415655741E-03  0.205408161070E-01
  0.213309216110E-01  0.199411077862E-03 -0.205408150950E-01
  0.213309215571E-01 -0.199411320446E-03 -0.205408151486E-01
  0.219825390255E-01  0.488500528475E-02 -0.375591428145E-25
  0.219825389577E-01 -0.488500558976E-02  0.000000000000E+00
  0.240047773887E-01  0.793606050486E-03  0.205408161061E-01
  0.240047773926E-01 -0.793606032975E-03  0.205408161022E-01
  0.240047784422E-01  0.793601309607E-03 -0.205408150581E-01
  0.240047783454E-01 -0.793601745289E-03 -0.205408151544E-01
  0.284006840406E-01  0.177047420869E-02  0.205408161089E-01
  0.284006840119E-01 -0.177047433819E-02  0.205408161375E-01
  0.284006848660E-01  0.177047049468E-02 -0.205408152879E-01
  0.284006848763E-01 -0.177047044823E-02 -0.205408152776E-01
  0.310625345645E-01  0.690278253299E-02 -0.135163196119E-25
  0.310625345639E-01 -0.690278253549E-02 -0.405124981813E-25
  0.344291525587E-01  0.311013394874E-02  0.205408161235E-01
  0.344291525442E-01 -0.311013401362E-02  0.205408161379E-01
  0.344291534188E-01  0.311013007802E-02 -0.205408152678E-01
  0.344291534033E-01 -0.311013014787E-02 -0.205408152833E-01
  0.408670917643E-01 -0.000000000000E+00  0.410816317995E-01
  0.408670961651E-01 -0.000000000000E+00 -0.410816274217E-01
  0.413423271609E-01  0.918718035728E-02  0.359256374501E-25
  0.413423272293E-01 -0.918718004944E-02 -0.654724412050E-25
  0.417457708547E-01  0.195260608296E-03  0.410816323155E-01
  0.417457708377E-01 -0.195260684969E-03  0.410816323325E-01
  0.417457723380E-01  0.195253933859E-03 -0.410816308401E-01
  0.417457723964E-01 -0.195253670715E-03 -0.410816307819E-01
  0.419674608025E-01  0.478531323752E-02  0.205408160559E-01
  0.419674608106E-01 -0.478531320132E-02  0.205408160479E-01
  0.419674620724E-01  0.478530752320E-02 -0.205408147927E-01
  0.419674621194E-01 -0.478530731151E-02 -0.205408147459E-01
  0.443639222869E-01  0.777072094398E-03  0.410816323275E-01
  0.443639222776E-01 -0.777072136312E-03  0.410816323367E-01
  0.443639237777E-01  0.777065385972E-03 -0.410816308445E-01
  0.443639237862E-01 -0.777065347660E-03 -0.410816308360E-01
  0.486682475117E-01  0.173358900606E-02  0.410816323686E-01
  0.486682475051E-01 -0.173358903596E-02  0.410816323752E-01
  0.486682489957E-01  0.173358232842E-02 -0.410816308924E-01
  0.486682490232E-01 -0.173358220467E-02 -0.410816308650E-01
  0.508621503326E-01  0.676191125695E-02  0.205408161288E-01
  0.508621503445E-01 -0.676191120371E-02  0.205408161170E-01
  0.508621513349E-01  0.676190674688E-02 -0.205408151318E-01
  0.508621513387E-01 -0.676190672965E-02 -0.205408151280E-01
  0.526126495063E-01  0.116916966956E-01 -0.147587254422E-25
  0.526126495414E-01 -0.116916965376E-01 -0.155245692894E-25
  0.545711228999E-01  0.304533932907E-02  0.410816324184E-01
  0.545711229675E-01 -0.304533902504E-02  0.410816323512E-01
  0.545711244498E-01  0.304533235468E-02 -0.410816308767E-01
  0.545711243874E-01 -0.304533263534E-02 -0.410816309387E-01
  0.609321511231E-01  0.899968925867E-02  0.205408161390E-01
  0.609321511131E-01 -0.899968930353E-02  0.205408161489E-01
  0.609321521992E-01  0.899968441640E-02 -0.205408150685E-01
  0.609321521958E-01 -0.899968443147E-02 -0.205408150719E-01
  0.613006374778E-01 -0.125466877328E-24  0.616224478671E-01
  0.613006425106E-01 -0.690106530482E-24 -0.616224428607E-01
  0.619523830161E-01  0.468561922585E-02  0.410816323913E-01
  0.619523830828E-01 -0.468561892590E-02  0.410816323249E-01
  0.619523845565E-01  0.468561229408E-02 -0.410816308589E-01
  0.619523844188E-01 -0.468561291401E-02 -0.410816309959E-01
  0.622443179131E-01  0.209705402736E-03  0.616224486406E-01
  0.622443179292E-01 -0.209705330188E-03  0.616224486246E-01
  0.622443194523E-01  0.209698476173E-03 -0.616224471094E-01
  0.622443192115E-01 -0.209699559578E-03 -0.616224473489E-01
  0.646440705369E-01  0.143653459266E-01  0.000000000000E+00
  0.646440705999E-01 -0.143653456428E-01 -0.156119640708E-25
  0.650542812752E-01  0.834141693212E-03  0.616224486380E-01
  0.650542812474E-01 -0.834141818115E-03  0.616224486657E-01
  0.650542827485E-01  0.834135062933E-03 -0.616224471723E-01
  0.650542825585E-01 -0.834135918348E-03 -0.616224473614E-01
  0.696677568540E-01  0.185935843835E-02  0.616224486275E-01
  0.696677568274E-01 -0.185935855809E-02  0.616224486539E-01
  0.696677582739E-01  0.185935204871E-02 -0.616224472150E-01
  0.696677580175E-01 -0.185935320233E-02 -0.616224474700E-01
  0.706617665559E-01  0.662103793299E-02  0.410816324213E-01
  0.706617666052E-01 -0.662103771110E-02  0.410816323723E-01
  0.706617681133E-01  0.662103092470E-02 -0.410816308721E-01
  0.706617678956E-01 -0.662103190442E-02 -0.410816310886E-01
  0.719724669076E-01  0.114530929403E-01  0.205408161756E-01
  0.719724669272E-01 -0.114530928518E-01  0.205408161561E-01
  0.719724678824E-01  0.114530885535E-01 -0.205408152059E-01
  0.719724679655E-01 -0.114530881797E-01 -0.205408151233E-01
  0.759816871605E-01  0.326245429588E-02  0.616224486767E-01
  0.759816871040E-01 -0.326245455048E-02  0.616224487330E-01
  0.759816885809E-01  0.326244790437E-02 -0.616224472638E-01
  0.759816884631E-01 -0.326244843461E-02 -0.616224473810E-01
  0.771916652135E-01  0.171537002730E-01  0.143568786012E-25
  0.771916652444E-01 -0.171537001340E-01 -0.150308961162E-25
  0.805219756753E-01  0.881219550538E-02  0.410816324193E-01
  0.805219756640E-01 -0.881219555656E-02  0.410816324306E-01
  0.805219771684E-01  0.881218878675E-02 -0.410816309340E-01
  0.805219770269E-01 -0.881218942338E-02 -0.410816310748E-01
  0.817341829697E-01 -0.302916469502E-24  0.821632641550E-01
  0.817341874121E-01 -0.146585262304E-23 -0.821632597359E-01
  0.826573486089E-01  0.205146324045E-03  0.821632649158E-01
  0.826573486532E-01 -0.205146124505E-03  0.821632648717E-01
  0.826573501263E-01  0.205139495617E-03 -0.821632634063E-01
  0.826573498611E-01 -0.205140688913E-03 -0.821632636701E-01
  0.837583487482E-01  0.140721778341E-01  0.205408161841E-01
  0.837583487933E-01 -0.140721776312E-01  0.205408161393E-01
  0.837583497284E-01  0.140721734234E-01 -0.205408152091E-01
  0.837583498292E-01 -0.140721729698E-01 -0.205408151088E-01
  0.838550295052E-01  0.501208606351E-02  0.616224487053E-01
  0.838550295993E-01 -0.501208563995E-02  0.616224486116E-01
  0.838550310516E-01  0.501207910461E-02 -0.616224471669E-01
  0.838550308915E-01 -0.501207982496E-02 -0.616224473262E-01
  0.854062257831E-01  0.816008037737E-03  0.821632649409E-01
  0.854062258489E-01 -0.816007741462E-03  0.821632648754E-01
  0.854062273213E-01  0.816001115719E-03 -0.821632634107E-01
  0.854062269981E-01 -0.816002570121E-03 -0.821632637322E-01
  0.899194083625E-01  0.181893769603E-02  0.821632649823E-01
  0.899194084309E-01 -0.181893738850E-02  0.821632649143E-01
  0.899194099610E-01  0.181893050317E-02 -0.821632633922E-01
  0.899194095629E-01 -0.181893229461E-02 -0.821632637882E-01
  0.900000006790E-01  0.199999969447E-01 -0.296236431983E-25
  0.900000006664E-01 -0.199999970010E-01 -0.145385665627E-25
  0.913322848583E-01  0.112144867117E-01  0.410816324776E-01
  0.913322848481E-01 -0.112144867577E-01  0.410816324877E-01
  0.913322864155E-01  0.112144797047E-01 -0.410816309286E-01
  0.913322862479E-01 -0.112144804586E-01 -0.410816310953E-01
  0.931119063786E-01  0.706917009055E-02  0.616224487637E-01
  0.931119065066E-01 -0.706916951442E-02  0.616224486364E-01
  0.931119078934E-01  0.706916327385E-02 -0.616224472568E-01
  0.931119076629E-01 -0.706916431121E-02 -0.616224474861E-01
  0.960498700521E-01  0.168036270443E-01  0.205408161908E-01
  0.960498700893E-01 -0.168036268764E-01  0.205408161537E-01
  0.960498710633E-01  0.168036224935E-01 -0.205408151848E-01
  0.960498710671E-01 -0.168036224765E-01 -0.205408151810E-01
  0.960960793560E-01  0.319153128404E-02  0.821632649894E-01
  0.960960794127E-01 -0.319153102871E-02  0.821632649330E-01
  0.960960808159E-01  0.319152471425E-02 -0.821632635371E-01
  0.960960806138E-01 -0.319152562360E-02 -0.821632637381E-01
  0.102167728612E+00  0.402552376572E-24  0.102704080295E+00
  0.102167733195E+00  0.177383591570E-23 -0.102704075735E+00
  0.102808336132E+00  0.228462936738E-01  0.000000000000E+00
  0.102808336108E+00 -0.228462937815E-01 -0.144659100232E-25
  0.102872627505E+00  0.137790072894E-01  0.410816324754E-01
  0.102872627546E+00 -0.137790071021E-01  0.410816324340E-01
  0.102872628945E+00  0.137790008095E-01 -0.410816310430E-01
  0.102872628793E+00 -0.137790014903E-01 -0.410816311935E-01
  0.103162710795E+00  0.221105361085E-03  0.102704081193E+00
  0.103162710699E+00 -0.221105791935E-03  0.102704081288E+00
  0.103162712101E+00  0.221099483874E-03 -0.102704079894E+00
  0.103162712204E+00 -0.221099019857E-03 -0.102704079791E+00
  0.103545534695E+00  0.938775341105E-02  0.616224486058E-01
  0.103545534586E+00 -0.938775389941E-02  0.616224487137E-01
  0.103545536054E+00  0.938774729639E-02 -0.616224472541E-01
  0.103545535904E+00 -0.938774796989E-02 -0.616224474030E-01
  0.103798262120E+00  0.490312741981E-02  0.821632649823E-01
  0.103798262102E+00 -0.490312750009E-02  0.821632650000E-01
[...]
POINT_DATA                4925
SCALARS phi float 1
LOOKUP_TABLE default
  0.258493941423E-25
  0.135525271561E-19
  0.135525271561E-19
  0.000000000000E+00
  0.542101086243E-19
  0.108420217249E-18
  0.108420217249E-18
  0.000000000000E+00
  0.000000000000E+00
 -0.258493941423E-25
  0.000000000000E+00
  0.271050543121E-19
 -0.271050543121E-19
  0.000000000000E+00
 -0.271050543121E-19
  0.216840434497E-18
  0.433680868994E-18
  0.216840434497E-18
  0.108420217249E-18
  0.325260651746E-18
 -0.325260651746E-18
  0.000000000000E+00
  0.000000000000E+00
 -0.216840434497E-18
  0.000000000000E+00
  0.000000000000E+00
  0.000000000000E+00
  0.433680868994E-18
  0.433680868994E-18
 -0.867361737988E-18
  0.000000000000E+00
  0.516987882846E-25
 -0.413590306277E-24
  0.433680868994E-18
 -0.867361737988E-18
 -0.542101086243E-19
 -0.271050543121E-19
  0.000000000000E+00
  0.000000000000E+00
  0.867361737988E-18
 -0.433680868994E-18
 -0.867361737988E-18
 -0.433680868994E-18
  0.216840434497E-18
  0.325260651746E-18
  0.108420217249E-18
  0.000000000000E+00
 -0.216840434497E-18
  0.433680868994E-18
  0.433680868994E-18
  0.650521303491E-18
 -0.173472347598E-17
  0.867361737988E-18
  0.260208521397E-17
 -0.173472347598E-17
 -0.260208521397E-17
  0.173472347598E-17
  0.433680868994E-18
  0.433680868994E-18
  0.000000000000E+00
  0.000000000000E+00
 -0.173472347598E-17
  0.000000000000E+00
 -0.867361737988E-18
  0.867361737988E-18
  0.103397576569E-24
  0.413590306277E-24
  0.346944695195E-17
  0.000000000000E+00
  0.000000000000E+00
  0.000000000000E+00
 -0.271050543121E-19
  0.000000000000E+00
  0.000000000000E+00
  0.000000000000E+00
  0.000000000000E+00
 -0.867361737988E-18
  0.216840434497E-18
 -0.108420217249E-18
 -0.108420217249E-18
 -0.216840434497E-18
 -0.867361737988E-18
 -0.433680868994E-18
  0.433680868994E-18
  0.867361737988E-18
  0.000000000000E+00
 -0.173472347598E-17
 -0.867361737988E-18
  0.000000000000E+00
  0.867361737988E-18
  0.260208521397E-17
  0.433680868994E-17
  0.173472347598E-17
  0.000000000000E+00
 -0.867361737988E-18
  0.433680868994E-18
  0.173472347598E-17
 -0.346944695195E-17
  0.000000000000E+00
 -0.173472347598E-17
  0.867361737988E-18
 -0.173472347598E-17
  0.000000000000E+00
  0.103397576569E-24
  0.413590306277E-24
  0.271050543121E-19
 -0.271050543121E-19
 -0.271050543121E-19
  0.000000000000E+00
 -0.260208521397E-17
 -0.260208521397E-17
  0.346944695195E-17
 -0.173472347598E-17
  0.173472347598E-17
 -0.867361737988E-18
 -0.867361737988E-18
 -0.867361737988E-18
  0.216840434497E-18
  0.108420217249E-18
  0.216840434497E-18
  0.108420217249E-18
  0.867361737988E-18
  0.650521303491E-18
  0.000000000000E+00
  0.000000000000E+00
 -0.520417042793E-17
 -0.867361737988E-18
 -0.867361737988E-18
 -0.173472347598E-17
 -0.867361737988E-18
 -0.867361737988E-18
 -0.867361737988E-18
  0.173472347598E-17
  0.867361737988E-18
  0.173472347598E-17
 -0.173472347598E-17
 -0.173472347598E-17
  0.173472347598E-17
  0.346944695195E-17
 -0.433680868994E-18
  0.130104260698E-17
  0.433680868994E-18
 -0.130104260698E-17
  0.000000000000E+00
  0.000000000000E+00
 -0.867361737988E-17
 -0.693889390391E-17
  0.520417042793E-17
 -0.346944695195E-17
  0.693889390391E-17
 -0.346944695195E-17
  0.000000000000E+00
  0.000000000000E+00
  0.000000000000E+00
  0.271050543121E-19
 -0.173472347598E-17
  0.867361737988E-18
  0.346944695195E-17
  0.000000000000E+00
  0.260208521397E-17
 -0.173472347598E-17
 -0.867361737988E-18
  0.867361737988E-18
  0.216840434497E-18
  0.108420217249E-18
  0.216840434497E-18
  0.108420217249E-18
  0.000000000000E+00
  0.173472347598E-17
  0.867361737988E-17
  0.173472347598E-17
  0.000000000000E+00
  0.867361737988E-18
  0.000000000000E+00
  0.000000000000E+00
  0.867361737988E-18
  0.867361737988E-18
  0.173472347598E-17
  0.000000000000E+00
 -0.346944695195E-17
  0.520417042793E-17
  0.693889390391E-17
 -0.520417042793E-17
 -0.173472347598E-17
  0.520417042793E-17
 -0.173472347598E-17
  0.520417042793E-17
 -0.867361737988E-17
 -0.693889390391E-17
 -0.433680868994E-18
  0.000000000000E+00
  0.433680868994E-18
 -0.867361737988E-18
 -0.867361737988E-17
 -0.121430643318E-16
 -0.520417042793E-17
 -0.520417042793E-17
  0.103397576569E-24
 -0.413590306277E-24
  0.520417042793E-17
  0.000000000000E+00
 -0.693889390391E-17
  0.520417042793E-17
  0.271050543121E-19
 -0.271050543121E-19
 -0.271050543121E-19
  0.271050543121E-19
  0.867361737988E-18
 -0.867361737988E-18
  0.867361737988E-18
  0.867361737988E-18
  0.108420217249E-18
 -0.108420217249E-18
 -0.108420217249E-18
  0.108420217249E-18
 -0.346944695195E-17
 -0.867361737988E-17
  0.000000000000E+00
 -0.693889390391E-17
  0.173472347598E-17
  0.121430643318E-16
 -0.346944695195E-17
 -0.346944695195E-17
  0.173472347598E-17
 -0.346944695195E-17
 -0.433680868994E-18
 -0.433680868994E-18
 -0.433680868994E-18
 -0.433680868994E-18
  0.173472347598E-17
 -0.346944695195E-17
  0.156125112838E-16
  0.104083408559E-16
  0.173472347598E-17
  0.346944695195E-17
  0.173472347598E-17
 -0.173472347598E-17
  0.867361737988E-18
  0.000000000000E+00
  0.520417042793E-17
  0.260208521397E-17
  0.433680868994E-18
 -0.433680868994E-18
 -0.130104260698E-17
  0.867361737988E-18
  0.173472347598E-17
  0.000000000000E+00
 -0.104083408559E-16
  0.346944695195E-17
  0.867361737988E-17
  0.693889390391E-17
 -0.520417042793E-17
 -0.693889390391E-17
  0.693889390391E-17
  0.693889390391E-17
  0.206795153138E-24
  0.413590306277E-24
  0.108420217249E-18
  0.000000000000E+00
 -0.108420217249E-18
 -0.162630325873E-18
 -0.173472347598E-17
 -0.173472347598E-17
 -0.346944695195E-17
 -0.520417042793E-17
  0.260208521397E-17
  0.000000000000E+00
 -0.173472347598E-17
  0.173472347598E-17
 -0.173472347598E-17
 -0.520417042793E-17
 -0.173472347598E-17
  0.346944695195E-17
  0.173472347598E-17
  0.867361737988E-17
  0.000000000000E+00
  0.346944695195E-17
  0.216840434497E-18
 -0.216840434497E-18
 -0.216840434497E-18
  0.216840434497E-18
 -0.520417042793E-17
  0.000000000000E+00
 -0.520417042793E-17
 -0.173472347598E-17
  0.346944695195E-17
  0.173472347598E-17
  0.693889390391E-17
 -0.520417042793E-17
 -0.693889390391E-17
 -0.173472347598E-17
  0.000000000000E+00
 -0.433680868994E-18
 -0.867361737988E-18
  0.000000000000E+00
 -0.260208521397E-17
 -0.867361737988E-18
 -0.867361737988E-18
  0.173472347598E-17
 -0.346944695195E-17
  0.173472347598E-17
 -0.520417042793E-17
 -0.346944695195E-17
 -0.346944695195E-17
 -0.104083408559E-16
 -0.121430643318E-16
 -0.520417042793E-17
  0.520417042793E-17
  0.520417042793E-17
  0.173472347598E-17
 -0.346944695195E-17
  0.520417042793E-17
  0.867361737988E-17
  0.130104260698E-17
  0.433680868994E-18
  0.130104260698E-17
 -0.867361737988E-18
  0.000000000000E+00
  0.173472347598E-17
 -0.121430643318E-16
 -0.346944695195E-17
  0.000000000000E+00
 -0.413590306277E-24
  0.000000000000E+00
 -0.271050543121E-19
 -0.542101086243E-19
  0.000000000000E+00
 -0.104083408559E-16
  0.693889390391E-17
  0.346944695195E-17
  0.520417042793E-17
 -0.693889390391E-17
  0.867361737988E-17
  0.346944695195E-17
  0.520417042793E-17
 -0.346944695195E-17
 -0.520417042793E-17
  0.000000000000E+00
 -0.173472347598E-17
  0.173472347598E-17
 -0.346944695195E-17
  0.108420217249E-18
 -0.216840434497E-18
 -0.108420217249E-18
  0.108420217249E-18
 -0.173472347598E-17
  0.000000000000E+00
 -0.867361737988E-18
  0.867361737988E-18
  0.520417042793E-17
  0.000000000000E+00
 -0.346944695195E-17
  0.693889390391E-17
 -0.173472347598E-17
  0.156125112838E-16
  0.693889390391E-17
 -0.346944695195E-17
  0.346944695195E-17
 -0.104083408559E-16
 -0.433680868994E-18
 -0.433680868994E-18
  0.000000000000E+00
 -0.867361737988E-18
  0.173472347598E-17
  0.693889390391E-17
 -0.693889390391E-17
 -0.693889390391E-17
  0.520417042793E-17
  0.520417042793E-17
  0.121430643318E-16
 -0.104083408559E-16
  0.520417042793E-17
  0.104083408559E-16
 -0.104083408559E-16
  0.693889390391E-17
 -0.104083408559E-16
 -0.346944695195E-17
  0.693889390391E-17
 -0.867361737988E-17
 -0.867361737988E-17
  0.867361737988E-17
 -0.173472347598E-17
  0.173472347598E-17
 -0.346944695195E-17
 -0.346944695195E-17
  0.121430643318E-16
  0.867361737988E-17
 -0.130104260698E-17
 -0.433680868994E-18
  0.000000000000E+00
  0.867361737988E-18
 -0.867361737988E-17
 -0.242861286637E-16
 -0.693889390391E-17
  0.104083408559E-16
  0.104083408559E-16
 -0.277555756156E-16
  0.190819582357E-16
  0.000000000000E+00
 -0.693889390391E-17
  0.346944695195E-17
  0.346944695195E-17
  0.520417042793E-17
  0.867361737988E-17
 -0.346944695195E-17
 -0.346944695195E-17
  0.867361737988E-17
 -0.173472347598E-16
  0.346944695195E-17
  0.000000000000E+00
 -0.693889390391E-17
  0.000000000000E+00
 -0.413590306277E-24
  0.108420217249E-18
  0.000000000000E+00
 -0.542101086243E-19
 -0.108420217249E-18
 -0.173472347598E-17
 -0.173472347598E-17
  0.260208521397E-17
  0.173472347598E-17
 -0.693889390391E-17
  0.138777878078E-16
  0.346944695195E-17
 -0.104083408559E-16
 -0.216840434497E-18
  0.000000000000E+00
  0.216840434497E-18
  0.433680868994E-18
 -0.138777878078E-16
 -0.104083408559E-16
 -0.138777878078E-16
  0.208166817117E-16
 -0.173472347598E-17
 -0.104083408559E-16
 -0.867361737988E-17
 -0.520417042793E-17
  0.173472347598E-17
 -0.693889390391E-17
 -0.346944695195E-17
 -0.173472347598E-17
 -0.693889390391E-17
  0.693889390391E-17
  0.208166817117E-16
  0.693889390391E-17
 -0.138777878078E-16
  0.138777878078E-16
 -0.138777878078E-16
  0.208166817117E-16
  0.346944695195E-17
  0.000000000000E+00
  0.130104260698E-17
  0.130104260698E-17
 -0.130104260698E-17
  0.433680868994E-18
 -0.346944695195E-17
  0.138777878078E-16
  0.104083408559E-16
  0.693889390391E-17
  0.173472347598E-17
  0.104083408559E-16
 -0.346944695195E-17
  0.000000000000E+00
 -0.138777878078E-16
 -0.346944695195E-17
 -0.693889390391E-17
  0.000000000000E+00
  0.138777878078E-16
  0.346944695195E-17
 -0.138777878078E-16
  0.346944695195E-17
  0.346944695195E-17
  0.000000000000E+00
  0.173472347598E-17
  0.520417042793E-17
 -0.693889390391E-17
  0.000000000000E+00
  0.000000000000E+00
 -0.693889390391E-17
 -0.138777878078E-16
 -0.346944695195E-17
  0.208166817117E-16
  0.104083408559E-16
 -0.346944695195E-17
  0.693889390391E-17
 -0.312250225676E-16
 -0.346944695195E-17
 -0.260208521397E-17
 -0.867361737988E-18
  0.000000000000E+00
  0.346944695195E-17
 -0.173472347598E-17
  0.520417042793E-17
 -0.173472347598E-17
  0.173472347598E-17
 -0.346944695195E-17
  0.225514051877E-16
 -0.520417042793E-17
  0.173472347598E-17
  0.000000000000E+00
 -0.413590306277E-24
  0.312250225676E-16
 -0.208166817117E-16
 -0.542101086243E-19
  0.000000000000E+00
  0.000000000000E+00
 -0.542101086243E-19
  0.346944695195E-17
  0.208166817117E-16
  0.000000000000E+00
 -0.346944695195E-17
  0.381639164715E-16
 -0.693889390391E-17
 -0.693889390391E-17
 -0.208166817117E-16
  0.693889390391E-17
 -0.138777878078E-16
 -0.104083408559E-16
 -0.346944695195E-17
  0.693889390391E-17
 -0.346944695195E-17
 -0.173472347598E-16
  0.000000000000E+00
  0.346944695195E-17
 -0.173472347598E-16
  0.138777878078E-16
 -0.277555756156E-16
 -0.346944695195E-17
  0.121430643318E-16
 -0.693889390391E-17
 -0.346944695195E-17
 -0.216840434497E-18
 -0.216840434497E-18
  0.000000000000E+00
  0.000000000000E+00
 -0.173472347598E-16
  0.000000000000E+00
 -0.346944695195E-17
  0.000000000000E+00
  0.000000000000E+00
 -0.173472347598E-17
 -0.433680868994E-17
 -0.173472347598E-17
  0.000000000000E+00
  0.208166817117E-16
  0.346944695195E-17
  0.138777878078E-16
  0.693889390391E-17
 -0.208166817117E-16
  0.693889390391E-17
  0.000000000000E+00
  0.173472347598E-17
 -0.173472347598E-17
  0.173472347598E-17
  0.000000000000E+00
 -0.433680868994E-18
  0.867361737988E-18
  0.867361737988E-18
  0.000000000000E+00
 -0.346944695195E-17
  0.346944695195E-17
  0.208166817117E-16
 -0.693889390391E-17
 -0.312250225676E-16
 -0.173472347598E-16
  0.104083408559E-16
  0.173472347598E-16
  0.346944695195E-17
  0.138777878078E-16
 -0.346944695195E-17
  0.104083408559E-16
  0.277555756156E-16
  0.346944695195E-17
 -0.693889390391E-17
  0.242861286637E-16
  0.138777878078E-16
  0.000000000000E+00
 -0.173472347598E-16
  0.693889390391E-17
  0.104083408559E-16
 -0.867361737988E-17
  0.173472347598E-17
  0.000000000000E+00
 -0.520417042793E-17
  0.693889390391E-17
  0.173472347598E-17
 -0.346944695195E-17
  0.000000000000E+00
 -0.867361737988E-18
  0.867361737988E-18
 -0.173472347598E-17
  0.104083408559E-16
 -0.173472347598E-16
  0.693889390391E-17
  0.000000000000E+00
  0.208166817117E-16
 -0.346944695195E-16
  0.693889390391E-17
  0.346944695195E-17
  0.346944695195E-17
  0.208166817117E-16
  0.000000000000E+00
  0.000000000000E+00
 -0.346944695195E-17
 -0.208166817117E-16
 -0.346944695195E-16
 -0.346944695195E-16
  0.542101086243E-19
  0.108420217249E-18
  0.000000000000E+00
  0.162630325873E-18
  0.277555756156E-16
 -0.104083408559E-16
 -0.346944695195E-17
  0.346944695195E-17
  0.208166817117E-16
 -0.346944695195E-17
 -0.693889390391E-17
 -0.242861286637E-16
 -0.693889390391E-17
  0.173472347598E-16
  0.000000000000E+00
 -0.312250225676E-16
  0.138777878078E-16
  0.346944695195E-17
  0.138777878078E-16
  0.346944695195E-17
  0.216840434497E-18
 -0.216840434497E-18
  0.216840434497E-18
  0.216840434497E-18
  0.104083408559E-16
  0.000000000000E+00
 -0.173472347598E-16
  0.104083408559E-16
 -0.173472347598E-17
 -0.867361737988E-18
  0.867361737988E-18
 -0.173472347598E-17
  0.693889390391E-17
 -0.346944695195E-17
  0.138777878078E-16
 -0.693889390391E-17
 -0.138777878078E-16
 -0.346944695195E-17
  0.208166817117E-16
  0.104083408559E-16
  0.104083408559E-16
 -0.346944695195E-17
  0.346944695195E-17
  0.173472347598E-17
 -0.225514051877E-16
 -0.867361737988E-17
 -0.346944695195E-17
 -0.173472347598E-17
 -0.173472347598E-16
  0.138777878078E-16
 -0.138777878078E-16
  0.346944695195E-17
 -0.104083408559E-16
 -0.104083408559E-16
  0.104083408559E-16
  0.104083408559E-16
  0.000000000000E+00
  0.867361737988E-18
  0.867361737988E-18
 -0.433680868994E-18
  0.173472347598E-16
  0.346944695195E-17
 -0.346944695195E-17
  0.208166817117E-16
  0.138777878078E-16
 -0.693889390391E-17
 -0.138777878078E-16
  0.138777878078E-16
 -0.277555756156E-16
  0.173472347598E-16
  0.346944695195E-17
  0.104083408559E-16
  0.104083408559E-16
 -0.208166817117E-16
 -0.208166817117E-16
  0.000000000000E+00
  0.693889390391E-17
 -0.104083408559E-16
 -0.520417042793E-17
  0.520417042793E-17
  0.433680868994E-18
  0.867361737988E-18
  0.433680868994E-18
 -0.867361737988E-18
 -0.277555756156E-16
  0.000000000000E+00
  0.346944695195E-16
  0.173472347598E-16
 -0.242861286637E-16
  0.346944695195E-17
  0.000000000000E+00
  0.208166817117E-16
  0.242861286637E-16
  0.693889390391E-17
 -0.104083408559E-16
 -0.242861286637E-16
 -0.104083408559E-16
 -0.346944695195E-17
 -0.346944695195E-16
  0.000000000000E+00
  0.173472347598E-17
 -0.173472347598E-17
  0.000000000000E+00
  0.520417042793E-17
 -0.346944695195E-17
  0.000000000000E+00
 -0.208166817117E-16
 -0.693889390391E-17
  0.000000000000E+00
  0.124077091883E-23
 -0.138777878078E-16
  0.693889390391E-17
  0.000000000000E+00
  0.000000000000E+00
  0.000000000000E+00
  0.000000000000E+00
  0.000000000000E+00
  0.542101086243E-19
 -0.104083408559E-16
  0.104083408559E-16
  0.208166817117E-16
 -0.173472347598E-16
 -0.346944695195E-17
  0.138777878078E-16
  0.138777878078E-16
 -0.693889390391E-17
  0.138777878078E-16
 -0.346944695195E-17
 -0.138777878078E-16
  0.312250225676E-16
 -0.173472347598E-16
 -0.173472347598E-16
  0.173472347598E-17
 -0.346944695195E-17
  0.867361737988E-18
  0.000000000000E+00
  0.216840434497E-18
 -0.216840434497E-18
 -0.216840434497E-18
  0.216840434497E-18
  0.000000000000E+00
 -0.346944695195E-17
 -0.173472347598E-16
 -0.138777878078E-16
 -0.381639164715E-16
 -0.138777878078E-16
 -0.104083408559E-16
  0.000000000000E+00
 -0.104083408559E-16
 -0.520417042793E-17
 -0.346944695195E-17
 -0.346944695195E-17
 -0.693889390391E-17
 -0.138777878078E-16
  0.242861286637E-16
 -0.693889390391E-17
 -0.130104260698E-17
 -0.130104260698E-17
 -0.173472347598E-17
  0.000000000000E+00
 -0.138777878078E-16
  0.693889390391E-17
 -0.346944695195E-17
 -0.104083408559E-16
  0.138777878078E-16
  0.000000000000E+00
  0.173472347598E-16
  0.208166817117E-16
  0.693889390391E-17
 -0.104083408559E-16
 -0.693889390391E-17
 -0.138777878078E-16
 -0.104083408559E-16
  0.104083408559E-16
  0.173472347598E-16
  0.346944695195E-17
  0.346944695195E-17
  0.520417042793E-17
 -0.346944695195E-17
 -0.520417042793E-17
  0.208166817117E-16
  0.208166817117E-16
  0.173472347598E-16
  0.346944695195E-16
 -0.173472347598E-16
  0.208166817117E-16
  0.242861286637E-16
 -0.346944695195E-16
 -0.138777878078E-16
 -0.138777878078E-16
 -0.173472347598E-16
  0.346944695195E-17
  0.693889390391E-17
  0.000000000000E+00
 -0.693889390391E-17
 -0.173472347598E-16
  0.000000000000E+00
  0.693889390391E-17
  0.138777878078E-16
 -0.138777878078E-16
 -0.260208521397E-17
  0.173472347598E-17
  0.000000000000E+00
  0.867361737988E-18
  0.867361737988E-17
  0.000000000000E+00
 -0.121430643318E-16
 -0.693889390391E-17
 -0.346944695195E-17
 -0.138777878078E-16
  0.346944695195E-17
 -0.208166817117E-16
  0.346944695195E-17
 -0.277555756156E-16
  0.000000000000E+00
  0.138777878078E-16
 -0.206795153138E-24
  0.000000000000E+00
  0.542101086243E-19
  0.000000000000E+00
  0.108420217249E-18
  0.000000000000E+00
 -0.693889390391E-17
 -0.277555756156E-16
  0.693889390391E-17
  0.208166817117E-16
  0.242861286637E-16
  0.000000000000E+00
  0.104083408559E-16
 -0.173472347598E-16
  0.104083408559E-16
  0.173472347598E-16
  0.277555756156E-16
 -0.693889390391E-17
 -0.216840434497E-18
  0.000000000000E+00
  0.000000000000E+00
 -0.216840434497E-18
  0.693889390391E-17
  0.346944695195E-17
  0.104083408559E-16
  0.346944695195E-17
 -0.693889390391E-17
  0.173472347598E-17
 -0.520417042793E-17
 -0.693889390391E-17
 -0.138777878078E-16
 -0.104083408559E-16
  0.312250225676E-16
 -0.138777878078E-16
  0.346944695195E-17
 -0.867361737988E-18
 -0.173472347598E-17
 -0.260208521397E-17
  0.693889390391E-17
 -0.138777878078E-16
  0.138777878078E-16
  0.346944695195E-16
  0.130104260698E-17
 -0.433680868994E-18
  0.433680868994E-18
  0.000000000000E+00
 -0.208166817117E-16
 -0.242861286637E-16
 -0.104083408559E-16
  0.312250225676E-16
  0.416333634234E-16
 -0.312250225676E-16
 -0.104083408559E-16
 -0.346944695195E-17
  0.242861286637E-16
  0.104083408559E-16
 -0.138777878078E-16
  0.173472347598E-16
  0.000000000000E+00
  0.138777878078E-16
 -0.693889390391E-17
 -0.104083408559E-16
  0.104083408559E-16
  0.346944695195E-17
  0.208166817117E-16
 -0.104083408559E-16
  0.346944695195E-17
 -0.346944695195E-17
  0.451028103754E-16
  0.693889390391E-17
  0.346944695195E-17
 -0.104083408559E-16
  0.277555756156E-16
 -0.242861286637E-16
 -0.693889390391E-17
  0.000000000000E+00
  0.173472347598E-16
  0.693889390391E-17
  0.242861286637E-16
  0.000000000000E+00
  0.346944695195E-17
  0.242861286637E-16
  0.138777878078E-16
  0.277555756156E-16
  0.000000000000E+00
  0.867361737988E-17
 -0.173472347598E-17
 -0.520417042793E-17
  0.000000000000E+00
 -0.277555756156E-16
 -0.346944695195E-17
 -0.104083408559E-16
 -0.346944695195E-17
  0.693889390391E-17
  0.121430643318E-16
  0.173472347598E-17
 -0.173472347598E-17
 -0.867361737988E-18
  0.000000000000E+00
  0.173472347598E-17
 -0.138777878078E-16
  0.346944695195E-17
  0.000000000000E+00
 -0.277555756156E-16
 -0.413590306277E-24
  0.000000000000E+00
  0.108420217249E-18
  0.542101086243E-19
 -0.542101086243E-19
 -0.542101086243E-19
 -0.312250225676E-16
 -0.312250225676E-16
  0.208166817117E-16
 -0.138777878078E-16
  0.693889390391E-17
 -0.346944695195E-17
  0.173472347598E-16
 -0.346944695195E-17
 -0.346944695195E-16
 -0.242861286637E-16
 -0.346944695195E-16
 -0.173472347598E-16
 -0.208166817117E-16
 -0.346944695195E-17
 -0.277555756156E-16