# vtk DataFile Version 3.0
MachLine results file. Generated by MachLine, USU AeroLab (c) 2022.
ASCII
DATASET POLYDATA
POINTS                2512 float
  0.111916620824E-08 -0.000000000000E+00  0.000000000000E+00
  0.916070678580E-03  0.407141317070E-03  0.000000000000E+00
  0.916070681443E-03 -0.407141310627E-03  0.000000000000E+00
  0.364563281187E-02  0.162028007179E-02  0.000000000000E+00
  0.364563284926E-02 -0.162027998765E-02  0.000000000000E+00
  0.813312085970E-02  0.361471919221E-02  0.000000000000E+00
  0.813312087313E-02 -0.361471916199E-02  0.000000000000E+00
  0.142871824968E-01  0.634985767069E-02  0.000000000000E+00
  0.142871825548E-01 -0.634985754023E-02  0.000000000000E+00
  0.219825388181E-01  0.977001587839E-02  0.000000000000E+00
  0.219825388407E-01 -0.977001582743E-02  0.000000000000E+00
  0.204335461333E-01  0.133678521510E-24  0.205408156499E-01
  0.213309208706E-01  0.398832178216E-03  0.205408158315E-01
  0.213309208861E-01 -0.398832143194E-03  0.205408158161E-01
  0.240047777188E-01  0.158721285386E-02  0.205408157777E-01
  0.240047777225E-01 -0.158721284557E-02  0.205408157740E-01
  0.310625344542E-01  0.138055694963E-01  0.000000000000E+00
  0.310625344670E-01 -0.138055694675E-01  0.000000000000E+00
  0.284006842819E-01  0.354094935115E-02  0.205408158689E-01
  0.284006842907E-01 -0.354094933133E-02  0.205408158602E-01
  0.344291529275E-01  0.622026844487E-02  0.205408157566E-01
  0.344291529378E-01 -0.622026842173E-02  0.205408157463E-01
  0.413423268265E-01  0.183743664074E-01  0.000000000000E+00
  0.413423269153E-01 -0.183743662076E-01  0.000000000000E+00
  0.419674610530E-01  0.957062774760E-02  0.205408158067E-01
  0.419674610623E-01 -0.957062772661E-02  0.205408157974E-01
  0.408670920385E-01 -0.111270034336E-24  0.410816315268E-01
  0.417457712130E-01  0.390522701187E-03  0.410816319592E-01
  0.417457712182E-01 -0.390522689497E-03  0.410816319540E-01
  0.443639226903E-01  0.155414549067E-02  0.410816319262E-01
  0.443639226930E-01 -0.155414548455E-02  0.410816319235E-01
  0.526126492154E-01  0.233833986122E-01  0.000000000000E+00
  0.526126492973E-01 -0.233833984281E-01  0.000000000000E+00
  0.508621505925E-01  0.135238232707E-01  0.205408158703E-01
  0.508621506438E-01 -0.135238231553E-01  0.205408158192E-01
  0.486682478810E-01  0.346717911207E-02  0.410816320013E-01
  0.486682478940E-01 -0.346717908277E-02  0.410816319883E-01
  0.545711233261E-01  0.609067929148E-02  0.410816319945E-01
  0.545711233495E-01 -0.609067923881E-02  0.410816319712E-01
  0.646440702185E-01  0.287306969744E-01  0.000000000000E+00
  0.646440702634E-01 -0.287306968733E-01  0.000000000000E+00
  0.609321513369E-01  0.179993793089E-01  0.205408159263E-01
  0.609321513791E-01 -0.179993792138E-01  0.205408158843E-01
  0.619523834354E-01  0.937123928516E-02  0.410816319742E-01
  0.619523834371E-01 -0.937123928117E-02  0.410816319724E-01
  0.613006376589E-01  0.109460846218E-24  0.616224476869E-01
  0.622443183733E-01  0.419412070066E-03  0.616224481828E-01
  0.622443183717E-01 -0.419412073777E-03  0.616224481844E-01
  0.719724671537E-01  0.229061863507E-01  0.205408159308E-01
  0.719724671564E-01 -0.229061863445E-01  0.205408159281E-01
  0.650542817228E-01  0.166828469692E-02  0.616224481928E-01
  0.650542817101E-01 -0.166828472548E-02  0.616224482054E-01
  0.771916650254E-01  0.343074054115E-01  0.000000000000E+00
  0.771916649683E-01 -0.343074055400E-01  0.000000000000E+00
  0.706617669132E-01  0.132420766347E-01  0.410816320659E-01
  0.706617668990E-01 -0.132420766668E-01  0.410816320800E-01
  0.696677572209E-01  0.371871844051E-02  0.616224482625E-01
  0.696677572233E-01 -0.371871843493E-02  0.616224482600E-01
  0.837583489962E-01  0.281443560765E-01  0.205408159375E-01
  0.837583489488E-01 -0.281443561832E-01  0.205408159846E-01
  0.759816876003E-01  0.652490965726E-02  0.616224482392E-01
  0.759816875832E-01 -0.652490969576E-02  0.616224482563E-01
  0.805219760329E-01  0.176243917929E-01  0.410816320636E-01
  0.805219760161E-01 -0.176243918307E-01  0.410816320803E-01
  0.900000004145E-01  0.399999990675E-01  0.000000000000E+00
  0.900000003377E-01 -0.399999992403E-01  0.000000000000E+00
  0.838550300019E-01  0.100241728706E-01  0.616224482111E-01
  0.838550299792E-01 -0.100241729218E-01  0.616224482337E-01
  0.817341832915E-01  0.181679101430E-24  0.821632638349E-01
  0.826573490588E-01  0.410294284376E-03  0.821632644682E-01
  0.826573490266E-01 -0.410294356702E-03  0.821632645002E-01
  0.913322852467E-01  0.224289737406E-01  0.410816320913E-01
  0.913322851774E-01 -0.224289738965E-01  0.410816321602E-01
  0.960498702974E-01  0.336072544575E-01  0.205408159467E-01
  0.960498703337E-01 -0.336072543758E-01  0.205408159106E-01
  0.854062262626E-01  0.163201747436E-02  0.821632644639E-01
  0.854062262359E-01 -0.163201753458E-02  0.821632644905E-01
  0.102808335856E+00  0.456925926055E-01  0.000000000000E+00
  0.102808335841E+00 -0.456925926396E-01  0.000000000000E+00
  0.931119068696E-01  0.141383405412E-01  0.616224482753E-01
  0.931119068650E-01 -0.141383405517E-01  0.616224482799E-01
  0.899194088249E-01  0.363787654916E-02  0.821632645223E-01
  0.899194088020E-01 -0.363787660071E-02  0.821632645451E-01
  0.102872627803E+00  0.275580151131E-01  0.410816321785E-01
  0.102872627855E+00 -0.275580149954E-01  0.410816321265E-01
  0.960960798471E-01  0.638306361181E-02  0.821632645008E-01
  0.960960798545E-01 -0.638306359520E-02  0.821632644934E-01
  0.108596811173E+00  0.391836725388E-01  0.205408159151E-01
  0.108596811126E+00 -0.391836726443E-01  0.205408159617E-01
  0.103545534959E+00  0.187755087650E-01  0.616224483434E-01
  0.103545534919E+00 -0.187755088541E-01  0.616224483827E-01
  0.115355930540E+00  0.512693013202E-01  0.000000000000E+00
  0.115355930480E+00 -0.512693014557E-01  0.000000000000E+00
  0.103798262602E+00  0.980625595137E-02  0.821632645023E-01
  0.103798262580E+00 -0.980625600106E-02  0.821632645242E-01
  0.102167728789E+00 -0.748526774866E-25  0.102704080118E+00
  0.103162711229E+00  0.442212731120E-03  0.102704080760E+00
  0.103162711269E+00 -0.442212642481E-03  0.102704080721E+00
  0.114908075742E+00  0.329071031152E-01  0.410816321893E-01
  0.114908075787E+00 -0.329071030144E-01  0.410816321448E-01
  0.121143751963E+00  0.447600908121E-01  0.205408159684E-01
  0.121143752079E+00 -0.447600905519E-01  0.205408158534E-01
  0.106123160762E+00  0.175796792075E-02  0.102704080702E+00
  0.106123160772E+00 -0.175796789745E-02  0.102704080691E+00
  0.114922844256E+00  0.238320908705E-01  0.616224484156E-01
  0.114922844317E+00 -0.238320907332E-01  0.616224483549E-01
  0.127387351567E+00  0.566165996265E-01  0.000000000000E+00
  0.127387351615E+00 -0.566165995183E-01  0.000000000000E+00
  0.112853903044E+00  0.138309851306E-01  0.821632645369E-01
  0.112853903028E+00 -0.138309851679E-01  0.821632645534E-01
  0.110976180475E+00  0.391486572616E-02  0.102704080759E+00
  0.110976180493E+00 -0.391486568734E-02  0.102704080742E+00
  0.127193621932E+00  0.383673460088E-01  0.410816322419E-01
  0.127193622043E+00 -0.383673457593E-01  0.410816321316E-01
  0.117602273110E+00  0.685979572878E-02  0.102704080738E+00
  0.117602273120E+00 -0.685979570556E-02  0.102704080728E+00
  0.133435273346E+00  0.502229890088E-01  0.205408158960E-01
  0.133435273331E+00 -0.502229890410E-01  0.205408159103E-01
  0.138657673958E+00  0.616256318266E-01  0.000000000000E+00
  0.138657674021E+00 -0.616256316852E-01  0.000000000000E+00
  0.123060713197E+00  0.183673452026E-01  0.821632645385E-01
  0.123060713141E+00 -0.183673453283E-01  0.821632645940E-01
  0.126989684580E+00  0.291951309268E-01  0.616224483831E-01
  0.126989684603E+00 -0.291951308733E-01  0.616224483595E-01
  0.125838282149E+00  0.105202442622E-01  0.102704080764E+00
  0.125838282172E+00 -0.105202442102E-01  0.102704080741E+00
  0.122601274364E+00  0.282851222898E-24  0.123244896323E+00
  0.123573643542E+00  0.432162148444E-03  0.123244896976E+00
  0.123573643521E+00 -0.432162195858E-03  0.123244896997E+00
  0.139479168290E+00  0.438275885236E-01  0.410816321271E-01
  0.139479168247E+00 -0.438275886190E-01  0.410816321693E-01
  0.148937466520E+00  0.661944283124E-01  0.000000000000E+00
  0.148937466612E+00 -0.661944281049E-01  0.000000000000E+00
  0.145221155066E+00  0.554611590109E-01  0.205408160249E-01
  0.145221155191E+00 -0.554611587298E-01  0.205408159006E-01
  0.134190689661E+00  0.233140016578E-01  0.821632646302E-01
  0.134190689670E+00 -0.233140016388E-01  0.821632646218E-01
  0.126466810007E+00  0.171801408763E-02  0.123244897042E+00
  0.126466810004E+00 -0.171801409397E-02  0.123244897044E+00
  0.139476502501E+00  0.347448278354E-01  0.616224484033E-01
  0.139476502554E+00 -0.347448277165E-01  0.616224483507E-01
  0.131209533840E+00  0.382589143716E-02  0.123244897075E+00
  0.131209533853E+00 -0.382589140740E-02  0.123244897062E+00
  0.135481409757E+00  0.148060788446E-01  0.102704080798E+00
  0.135481409789E+00 -0.148060787731E-01  0.102704080766E+00
  0.158017462151E+00  0.702299819414E-01  0.000000000000E+00
  0.158017462249E+00 -0.702299817214E-01  0.000000000000E+00
  0.151514616144E+00  0.491766767161E-01  0.410816322220E-01
  0.151514616260E+00 -0.491766764557E-01  0.410816321069E-01
  0.156261471049E+00  0.603679656789E-01  0.205408158641E-01
  0.156261470987E+00 -0.603679658182E-01  0.205408159257E-01
  0.137685033500E+00  0.670389112428E-02  0.123244897015E+00
  0.137685033506E+00 -0.670389111073E-02  0.123244897009E+00
  0.145995207329E+00  0.285604539805E-01  0.821632646399E-01
  0.145995207346E+00 -0.285604539421E-01  0.821632646229E-01
  0.152104363225E+00  0.403572103484E-01  0.616224483920E-01
  0.152104363228E+00 -0.403572103407E-01  0.616224483886E-01
  0.165712818475E+00  0.736501401432E-01  0.000000000000E+00
  0.165712818570E+00 -0.736501399286E-01  0.000000000000E+00
  0.146294210100E+00  0.196117680685E-01  0.102704080865E+00
  0.146294210106E+00 -0.196117680549E-01  0.102704080859E+00
[...]
POINT_DATA                2512
SCALARS phi float 1
LOOKUP_TABLE default
  0.000000000000E+00
  0.135525271561E-19
  0.000000000000E+00
  0.542101086243E-19
 -0.542101086243E-19
  0.000000000000E+00
 -0.108420217249E-18
 -0.433680868994E-18
  0.216840434497E-18
 -0.433680868994E-18
 -0.867361737988E-18
 -0.433680868994E-18
  0.216840434497E-18
 -0.216840434497E-18
 -0.433680868994E-18
 -0.433680868994E-18
  0.433680868994E-18
 -0.433680868994E-18
  0.433680868994E-18
  0.000000000000E+00
  0.173472347598E-17
 -0.173472347598E-17
  0.173472347598E-17
  0.173472347598E-17
 -0.346944695195E-17
 -0.867361737988E-18
 -0.867361737988E-18
 -0.130104260698E-17
 -0.867361737988E-18
  0.173472347598E-17
 -0.433680868994E-18
  0.867361737988E-18
  0.000000000000E+00
  0.260208521397E-17
  0.867361737988E-18
 -0.260208521397E-17
  0.000000000000E+00
  0.173472347598E-17
  0.867361737988E-18
  0.867361737988E-18
 -0.867361737988E-18
  0.000000000000E+00
  0.173472347598E-17
  0.346944695195E-17
 -0.867361737988E-18
 -0.433680868994E-18
 -0.260208521397E-17
 -0.867361737988E-18
  0.000000000000E+00
  0.173472347598E-17
  0.867361737988E-18
  0.000000000000E+00
 -0.693889390391E-17
  0.000000000000E+00
  0.346944695195E-17
  0.173472347598E-17
  0.346944695195E-17
 -0.173472347598E-17
 -0.520417042793E-17
 -0.520417042793E-17
  0.173472347598E-17
 -0.346944695195E-17
  0.000000000000E+00
  0.173472347598E-17
  0.693889390391E-17
  0.173472347598E-17
  0.346944695195E-17
  0.000000000000E+00
 -0.173472347598E-17
  0.173472347598E-17
 -0.867361737988E-18
  0.520417042793E-17
 -0.346944695195E-17
 -0.693889390391E-17
 -0.346944695195E-17
  0.260208521397E-17
  0.000000000000E+00
 -0.693889390391E-17
  0.520417042793E-17
  0.000000000000E+00
  0.520417042793E-17
 -0.867361737988E-18
  0.173472347598E-17
 -0.693889390391E-17
  0.000000000000E+00
 -0.520417042793E-17
  0.520417042793E-17
  0.346944695195E-17
 -0.346944695195E-17
 -0.346944695195E-17
  0.520417042793E-17
 -0.867361737988E-17
 -0.693889390391E-17
 -0.867361737988E-17
  0.000000000000E+00
  0.173472347598E-17
 -0.173472347598E-17
  0.173472347598E-17
  0.693889390391E-17
 -0.173472347598E-17
 -0.867361737988E-17
 -0.173472347598E-17
  0.260208521397E-17
 -0.433680868994E-17
 -0.121430643318E-16
  0.121430643318E-16
 -0.520417042793E-17
 -0.346944695195E-17
  0.693889390391E-17
  0.173472347598E-17
  0.000000000000E+00
  0.346944695195E-17
 -0.346944695195E-17
 -0.346944695195E-17
 -0.104083408559E-16
  0.104083408559E-16
 -0.693889390391E-17
  0.104083408559E-16
 -0.520417042793E-17
  0.346944695195E-17
  0.173472347598E-17
  0.346944695195E-17
 -0.346944695195E-17
 -0.693889390391E-17
  0.104083408559E-16
 -0.104083408559E-16
 -0.433680868994E-17
  0.867361737988E-18
 -0.867361737988E-18
  0.173472347598E-16
 -0.693889390391E-17
  0.000000000000E+00
 -0.104083408559E-16
  0.104083408559E-16
 -0.138777878078E-16
  0.346944695195E-17
  0.693889390391E-17
  0.520417042793E-17
  0.346944695195E-17
  0.346944695195E-17
 -0.346944695195E-17
  0.867361737988E-17
  0.346944695195E-17
 -0.346944695195E-17
 -0.173472347598E-17
 -0.346944695195E-17
  0.346944695195E-17
 -0.104083408559E-16
  0.346944695195E-17
 -0.208166817117E-16
 -0.138777878078E-16
  0.138777878078E-16
  0.104083408559E-16
 -0.173472347598E-16
  0.346944695195E-17
  0.138777878078E-16
 -0.693889390391E-17
 -0.693889390391E-17
  0.693889390391E-17
 -0.693889390391E-17
  0.346944695195E-17
  0.000000000000E+00
  0.173472347598E-17
  0.000000000000E+00
 -0.104083408559E-16
 -0.433680868994E-17
 -0.693889390391E-17
  0.173472347598E-16
  0.000000000000E+00
  0.693889390391E-17
  0.138777878078E-16
 -0.208166817117E-16
  0.693889390391E-17
  0.693889390391E-17
  0.520417042793E-17
 -0.346944695195E-17
  0.242861286637E-16
  0.138777878078E-16
 -0.138777878078E-16
  0.693889390391E-17
 -0.346944695195E-17
  0.242861286637E-16
  0.000000000000E+00
  0.000000000000E+00
  0.000000000000E+00
 -0.104083408559E-16
  0.104083408559E-16
  0.346944695195E-16
 -0.693889390391E-17
 -0.693889390391E-17
  0.000000000000E+00
 -0.208166817117E-16
  0.138777878078E-16
 -0.104083408559E-16
 -0.138777878078E-16
  0.346944695195E-17
 -0.346944695195E-17
 -0.346944695195E-17
 -0.520417042793E-17
  0.173472347598E-17
  0.173472347598E-16
 -0.693889390391E-17
  0.693889390391E-17
  0.693889390391E-17
  0.173472347598E-16
  0.277555756156E-16
  0.104083408559E-16
 -0.104083408559E-16
  0.104083408559E-16
  0.104083408559E-16
 -0.693889390391E-17
 -0.346944695195E-17
 -0.208166817117E-16
 -0.693889390391E-17
 -0.173472347598E-17
  0.346944695195E-17
 -0.693889390391E-17
  0.520417042793E-17
  0.000000000000E+00
 -0.104083408559E-16
 -0.173472347598E-16
 -0.346944695195E-17
 -0.312250225676E-16
  0.000000000000E+00
 -0.346944695195E-17
 -0.173472347598E-16
  0.173472347598E-16
  0.173472347598E-16
 -0.104083408559E-16
  0.104083408559E-16
  0.242861286637E-16
  0.000000000000E+00
 -0.208166817117E-16
  0.693889390391E-17
 -0.208166817117E-16
 -0.346944695195E-17
  0.208166817117E-16
 -0.693889390391E-17
  0.346944695195E-17
  0.000000000000E+00
  0.173472347598E-17
 -0.693889390391E-17
 -0.693889390391E-17
 -0.693889390391E-17
  0.173472347598E-16
 -0.208166817117E-16
  0.000000000000E+00
  0.138777878078E-16
  0.173472347598E-16
 -0.277555756156E-16
  0.208166817117E-16
 -0.867361737988E-17
  0.520417042793E-17
  0.693889390391E-17
 -0.173472347598E-16
 -0.104083408559E-16
 -0.693889390391E-17
  0.000000000000E+00
 -0.693889390391E-17
  0.138777878078E-16
  0.104083408559E-16
  0.138777878078E-16
  0.208166817117E-16
  0.346944695195E-17
 -0.104083408559E-16
  0.693889390391E-17
  0.208166817117E-16
 -0.520417042793E-17
  0.693889390391E-17
  0.693889390391E-17
  0.173472347598E-17
 -0.346944695195E-17
  0.277555756156E-16
 -0.346944695195E-17
  0.346944695195E-17
  0.693889390391E-17
  0.000000000000E+00
  0.208166817117E-16
 -0.346944695195E-17
  0.104083408559E-16
  0.138777878078E-16
  0.346944695195E-17
  0.173472347598E-16
  0.381639164715E-16
 -0.173472347598E-16
 -0.138777878078E-16
 -0.693889390391E-17
 -0.693889390391E-17
  0.208166817117E-16
 -0.104083408559E-16
  0.173472347598E-16
  0.346944695195E-17
 -0.312250225676E-16
  0.312250225676E-16
  0.693889390391E-17
  0.104083408559E-16
 -0.693889390391E-17
  0.867361737988E-17
  0.000000000000E+00
  0.208166817117E-16
  0.173472347598E-16
 -0.693889390391E-17
  0.208166817117E-16
  0.000000000000E+00
  0.693889390391E-17
 -0.346944695195E-17
  0.242861286637E-16
  0.000000000000E+00
 -0.138777878078E-16
 -0.173472347598E-16
  0.000000000000E+00
  0.000000000000E+00
  0.000000000000E+00
  0.104083408559E-16
  0.346944695195E-17
  0.693889390391E-17
  0.208166817117E-16
 -0.173472347598E-16
  0.138777878078E-16
 -0.346944695195E-17
 -0.277555756156E-16
  0.693889390391E-17
  0.520417042793E-17
 -0.173472347598E-17
  0.693889390391E-17
  0.346944695195E-16
  0.208166817117E-16
 -0.104083408559E-16
 -0.346944695195E-17
 -0.104083408559E-16
  0.000000000000E+00
  0.381639164715E-16
 -0.173472347598E-16
 -0.346944695195E-17
  0.173472347598E-17
  0.346944695195E-17
  0.346944695195E-16
  0.173472347598E-16
 -0.104083408559E-16
  0.693889390391E-17
  0.104083408559E-16
  0.346944695195E-17
  0.000000000000E+00
  0.346944695195E-17
  0.312250225676E-16
  0.000000000000E+00
  0.693889390391E-17
  0.000000000000E+00
  0.000000000000E+00
  0.173472347598E-16
 -0.346944695195E-17
  0.138777878078E-16
  0.138777878078E-16
  0.138777878078E-16
  0.208166817117E-16
 -0.693889390391E-17
 -0.208166817117E-16
  0.346944695195E-17
  0.104083408559E-16
 -0.693889390391E-17
 -0.346944695195E-17
  0.173472347598E-16
  0.208166817117E-16
  0.555111512313E-16
  0.693889390391E-17
 -0.277555756156E-16
  0.208166817117E-16
  0.693889390391E-17
 -0.277555756156E-16
 -0.242861286637E-16
  0.693889390391E-17
  0.104083408559E-16
  0.693889390391E-17
 -0.346944695195E-17
 -0.173472347598E-16
 -0.173472347598E-17
 -0.693889390391E-17
  0.346944695195E-16
  0.173472347598E-17
 -0.520417042793E-17
  0.173472347598E-16
 -0.346944695195E-17
  0.346944695195E-17
 -0.104083408559E-16
  0.208166817117E-16
  0.312250225676E-16
  0.208166817117E-16
  0.000000000000E+00
 -0.381639164715E-16
 -0.451028103754E-16
 -0.156125112838E-16
 -0.173472347598E-17
  0.138777878078E-16
  0.416333634234E-16
  0.173472347598E-16
 -0.381639164715E-16
  0.416333634234E-16
 -0.346944695195E-17
  0.000000000000E+00
 -0.173472347598E-16
 -0.693889390391E-17
 -0.346944695195E-17
  0.104083408559E-16
  0.104083408559E-16
  0.693889390391E-17
  0.104083408559E-16
  0.000000000000E+00
 -0.138777878078E-16
  0.693889390391E-17
 -0.693889390391E-17
  0.277555756156E-16
 -0.277555756156E-16
  0.000000000000E+00
  0.346944695195E-16
  0.346944695195E-16
 -0.138777878078E-16
  0.693889390391E-17
 -0.346944695195E-17
 -0.208166817117E-16
  0.624500451352E-16
 -0.346944695195E-17
 -0.104083408559E-16
  0.693889390391E-17
  0.346944695195E-16
 -0.381639164715E-16
  0.138777878078E-16
  0.693889390391E-17
 -0.693889390391E-17
 -0.381639164715E-16
  0.104083408559E-16
  0.000000000000E+00
  0.173472347598E-16
  0.346944695195E-17
  0.693889390391E-17
 -0.693889390391E-17
 -0.346944695195E-17
  0.000000000000E+00
  0.520417042793E-17
 -0.346944695195E-17
  0.346944695195E-16
  0.000000000000E+00
 -0.381639164715E-16
 -0.485722573274E-16
  0.346944695195E-17
  0.208166817117E-16
  0.346944695195E-17
  0.346944695195E-17
  0.000000000000E+00
 -0.208166817117E-16
 -0.624500451352E-16
 -0.624500451352E-16
 -0.346944695195E-16
 -0.346944695195E-16
  0.346944695195E-17
  0.104083408559E-16
  0.693889390391E-17
  0.693889390391E-17
  0.416333634234E-16
  0.000000000000E+00
 -0.104083408559E-16
  0.346944695195E-17
  0.208166817117E-16
 -0.693889390391E-17
  0.208166817117E-16
 -0.693889390391E-17
 -0.555111512313E-16
  0.000000000000E+00
  0.138777878078E-16
  0.693889390391E-17
 -0.693889390391E-17
  0.346944695195E-16
 -0.277555756156E-16
  0.242861286637E-16
  0.104083408559E-16
  0.000000000000E+00
  0.000000000000E+00
 -0.277555756156E-16
  0.693889390391E-17
  0.312250225676E-16
 -0.693889390391E-17
 -0.485722573274E-16
  0.000000000000E+00
  0.346944695195E-17
 -0.208166817117E-16
 -0.173472347598E-16
  0.138777878078E-16
 -0.277555756156E-16
 -0.242861286637E-16
  0.381639164715E-16
 -0.138777878078E-16
 -0.138777878078E-16
 -0.138777878078E-16
 -0.173472347598E-17
 -0.346944695195E-17
  0.693889390391E-17
 -0.138777878078E-16
 -0.693889390391E-17
  0.346944695195E-17
  0.208166817117E-16
  0.693889390391E-17
  0.312250225676E-16
 -0.277555756156E-16
 -0.416333634234E-16
  0.485722573274E-16
  0.346944695195E-16
  0.693889390391E-16
  0.138777878078E-16
  0.832667268469E-16
 -0.138777878078E-16
  0.173472347598E-16
  0.138777878078E-16
 -0.346944695195E-17
 -0.416333634234E-16
 -0.693889390391E-17
  0.416333634234E-16
  0.346944695195E-16
 -0.242861286637E-16
  0.346944695195E-17
  0.208166817117E-16
  0.693889390391E-17
 -0.277555756156E-16
  0.208166817117E-16
 -0.138777878078E-16
  0.312250225676E-16
  0.555111512313E-16
 -0.277555756156E-16
  0.208166817117E-16
 -0.104083408559E-16
  0.104083408559E-16
 -0.346944695195E-17
 -0.381639164715E-16
  0.277555756156E-16
 -0.555111512313E-16
  0.000000000000E+00
 -0.208166817117E-16
  0.277555756156E-16
 -0.693889390391E-17
 -0.485722573274E-16
 -0.346944695195E-16
  0.000000000000E+00
  0.624500451352E-16
 -0.485722573274E-16
  0.381639164715E-16
  0.208166817117E-16
  0.173472347598E-17
  0.000000000000E+00
  0.902056207508E-16
  0.208166817117E-16
  0.416333634234E-16
  0.000000000000E+00
  0.346944695195E-17
  0.277555756156E-16
  0.000000000000E+00
  0.277555756156E-16
  0.346944695195E-16
  0.138777878078E-16
  0.173472347598E-16
 -0.416333634234E-16
  0.346944695195E-16
  0.000000000000E+00
  0.242861286637E-16
 -0.312250225676E-16
 -0.208166817117E-16
 -0.138777878078E-16
  0.693889390391E-17
 -0.138777878078E-16
  0.832667268469E-16
 -0.277555756156E-16
 -0.138777878078E-16
  0.208166817117E-16
 -0.208166817117E-16
  0.693889390391E-17
  0.000000000000E+00
  0.104083408559E-16
  0.693889390391E-17
  0.346944695195E-16
  0.485722573274E-16
 -0.763278329430E-16
  0.208166817117E-16
 -0.624500451352E-16
  0.208166817117E-16
  0.138777878078E-16
  0.381639164715E-16
  0.000000000000E+00
  0.693889390391E-17
  0.346944695195E-16
 -0.242861286637E-16
  0.208166817117E-16
  0.138777878078E-16
  0.346944695195E-16
  0.208166817117E-16
  0.693889390391E-17
  0.138777878078E-16
 -0.693889390391E-17
 -0.208166817117E-16
 -0.346944695195E-16
 -0.312250225676E-16
  0.346944695195E-17
 -0.104083408559E-16
 -0.902056207508E-16
  0.208166817117E-16
 -0.693889390391E-17
 -0.693889390391E-16
 -0.277555756156E-16
 -0.173472347598E-16
 -0.693889390391E-17
  0.277555756156E-16
  0.416333634234E-16
 -0.346944695195E-17
 -0.173472347598E-16
  0.485722573274E-16
 -0.902056207508E-16
  0.242861286637E-16
 -0.208166817117E-16
  0.346944695195E-16
 -0.763278329430E-16
 -0.208166817117E-16
 -0.485722573274E-16
 -0.208166817117E-16
 -0.173472347598E-16
  0.555111512313E-16
  0.104083408559E-16
  0.346944695195E-17
 -0.138777878078E-16
 -0.416333634234E-16
 -0.208166817117E-16
  0.138777878078E-16
 -0.346944695195E-16
 -0.693889390391E-17
 -0.416333634234E-16
  0.693889390391E-16
  0.555111512313E-16
 -0.832667268469E-16
  0.138777878078E-16
 -0.832667268469E-16
  0.208166817117E-16
 -0.346944695195E-17
  0.346944695195E-16
 -0.138777878078E-16
  0.346944695195E-16
 -0.208166817117E-16
  0.763278329430E-16
  0.485722573274E-16
 -0.416333634234E-16
 -0.173472347598E-16
 -0.312250225676E-16
 -0.520417042793E-16
  0.451028103754E-16
  0.624500451352E-16
  0.242861286637E-16
  0.104083408559E-15
  0.555111512313E-16
  0.416333634234E-16
  0.693889390391E-17
  0.277555756156E-16
  0.000000000000E+00
 -0.346944695195E-17
  0.000000000000E+00
  0.693889390391E-17
 -0.555111512313E-16
 -0.416333634234E-16
  0.104083408559E-16
  0.000000000000E+00
  0.485722573274E-16
  0.208166817117E-16
 -0.416333634234E-16
  0.416333634234E-16
 -0.277555756156E-16
  0.208166817117E-16
 -0.173472347598E-16
  0.346944695195E-16
 -0.346944695195E-17
  0.346944695195E-17
  0.624500451352E-16
  0.416333634234E-16
  0.000000000000E+00
 -0.416333634234E-16
 -0.485722573274E-16
 -0.555111512313E-16
 -0.208166817117E-16
  0.555111512313E-16
 -0.346944695195E-17
 -0.138777878078E-16
  0.555111512313E-16
 -0.277555756156E-16
 -0.693889390391E-17
  0.346944695195E-16
  0.208166817117E-16
 -0.138777878078E-16
  0.624500451352E-16
  0.208166817117E-16
 -0.693889390391E-17
  0.416333634234E-16
  0.104083408559E-16
 -0.242861286637E-16
  0.416333634234E-16
 -0.138777878078E-16
  0.208166817117E-16
  0.138777878078E-16
 -0.693889390391E-17
  0.763278329430E-16
  0.104083408559E-16
  0.173472347598E-16
  0.346944695195E-16
 -0.971445146547E-16
  0.208166817117E-16
 -0.416333634234E-16
  0.693889390391E-17
  0.624500451352E-16
 -0.138777878078E-16
 -0.277555756156E-16
  0.000000000000E+00
 -0.277555756156E-16
 -0.138777878078E-16
 -0.138777878078E-16
  0.485722573274E-16
  0.000000000000E+00
  0.242861286637E-16
  0.208166817117E-16
  0.138777878078E-16
 -0.277555756156E-16
 -0.416333634234E-16
  0.312250225676E-16
 -0.138777878078E-16
 -0.277555756156E-16
  0.138777878078E-16
  0.485722573274E-16
  0.208166817117E-16
  0.832667268469E-16
  0.208166817117E-16
 -0.346944695195E-16
  0.693889390391E-17
  0.381639164715E-16
  0.624500451352E-16
 -0.208166817117E-16
 -0.346944695195E-16
  0.555111512313E-16
  0.485722573274E-16
 -0.138777878078E-16
  0.277555756156E-16
  0.000000000000E+00
  0.381639164715E-16
  0.763278329430E-16
 -0.693889390391E-16
  0.208166817117E-16
  0.312250225676E-16
 -0.693889390391E-17
 -0.277555756156E-16
 -0.138777878078E-16
  0.242861286637E-16
 -0.624500451352E-16
  0.000000000000E+00
 -0.416333634234E-16
  0.693889390391E-17
  0.208166817117E-16
  0.277555756156E-16
  0.104083408559E-15
 -0.832667268469E-16
  0.346944695195E-16
  0.000000000000E+00
  0.208166817117E-16
  0.555111512313E-16
  0.346944695195E-17
 -0.346944695195E-17
  0.208166817117E-16
  0.242861286637E-16
  0.173472347598E-16
  0.346944695195E-16
  0.555111512313E-16
  0.693889390391E-17
 -0.346944695195E-17
  0.763278329430E-16
 -0.277555756156E-16
  0.208166817117E-16
  0.138777878078E-16
 -0.138777878078E-16
  0.485722573274E-16
  0.693889390391E-17
  0.138777878078E-16
 -0.485722573274E-16
  0.485722573274E-16
 -0.346944695195E-16
  0.416333634234E-16
  0.000000000000E+00
 -0.208166817117E-16
  0.104083408559E-16
  0.242861286637E-16
 -0.277555756156E-16
  0.208166817117E-16
  0.312250225676E-16
 -0.173472347598E-16
  0.555111512313E-16
 -0.693889390391E-17
  0.624500451352E-16
 -0.416333634234E-16
 -0.832667268469E-16
  0.624500451352E-16
  0.346944695195E-16
 -0.117961196366E-15
  0.346944695195E-16
 -0.242861286637E-16
 -0.346944695195E-17
 -0.104083408559E-16
  0.138777878078E-16
  0.138777878078E-16
  0.138777878078E-16
 -0.277555756156E-16
 -0.346944695195E-16
  0.346944695195E-16
  0.693889390391E-17
  0.000000000000E+00
  0.485722573274E-16
  0.555111512313E-16
 -0.485722573274E-16
 -0.763278329430E-16
  0.277555756156E-16
 -0.277555756156E-16
 -0.693889390391E-17
 -0.242861286637E-16
 -0.485722573274E-16
  0.208166817117E-16
 -0.763278329430E-16
  0.485722573274E-16
 -0.346944695195E-17
 -0.208166817117E-16
 -0.555111512313E-16
 -0.104083408559E-16
  0.555111512313E-16
  0.104083408559E-16
 -0.693889390391E-17
 -0.485722573274E-16
 -0.111022302463E-15
 -0.416333634234E-16
  0.208166817117E-16
 -0.693889390391E-17
 -0.208166817117E-16
 -0.346944695195E-17
 -0.693889390391E-17
  0.693889390391E-17
 -0.173472347598E-16
  0.208166817117E-16
 -0.346944695195E-16
  0.693889390391E-17
 -0.346944695195E-16
 -0.693889390391E-17
  0.693889390391E-17
 -0.346944695195E-16
  0.416333634234E-16
  0.624500451352E-16
  0.416333634234E-16
  0.416333634234E-16
  0.902056207508E-16
  0.485722573274E-16
  0.416333634234E-16
 -0.416333634234E-16
  0.208166817117E-16
  0.902056207508E-16
  0.520417042793E-16
  0.277555756156E-16
  0.208166817117E-16
 -0.693889390391E-17
  0.104083408559E-16
 -0.693889390391E-17
 -0.693889390391E-17
  0.555111512313E-16
 -0.138777878078E-16
 -0.208166817117E-16
  0.208166817117E-16
 -0.485722573274E-16
 -0.312250225676E-16
 -0.555111512313E-16
 -0.416333634234E-16
  0.104083408559E-16
  0.000000000000E+00
  0.277555756156E-16
 -0.346944695195E-16
  0.346944695195E-16
  0.693889390391E-17
  0.624500451352E-16
 -0.104083408559E-15
 -0.693889390391E-17
 -0.208166817117E-16
  0.485722573274E-16
 -0.277555756156E-16
  0.173472347598E-16
  0.693889390391E-17
 -0.208166817117E-16
  0.832667268469E-16
 -0.138777878078E-16
 -0.693889390391E-17
  0.693889390391E-16
 -0.624500451352E-16
 -0.277555756156E-16
 -0.346944695195E-17
 -0.346944695195E-17
 -0.173472347598E-16
 -0.346944695195E-17
 -0.277555756156E-16
 -0.485722573274E-16
  0.346944695195E-16
 -0.138777878078E-16
 -0.763278329430E-16
 -0.485722573274E-16
 -0.693889390391E-16
  0.346944695195E-17
  0.693889390391E-17
  0.138777878078E-16
  0.208166817117E-16
  0.000000000000E+00
 -0.208166817117E-16
  0.693889390391E-16
 -0.277555756156E-16
 -0.277555756156E-16
  0.346944695195E-16
 -0.277555756156E-16
  0.242861286637E-16
 -0.555111512313E-16
  0.624500451352E-16
 -0.693889390391E-17
 -0.138777878078E-16
  0.485722573274E-16
 -0.971445146547E-16
  0.555111512313E-16
 -0.104083408559E-16
  0.346944695195E-16
  0.416333634234E-16
  0.693889390391E-17
 -0.555111512313E-16
 -0.138777878078E-16
 -0.555111512313E-16
  0.902056207508E-16
 -0.208166817117E-16
 -0.485722573274E-16
 -0.485722573274E-16
  0.346944695195E-16
 -0.520417042793E-16
 -0.693889390391E-17
 -0.485722573274E-16
 -0.277555756156E-16
 -0.208166817117E-16
  0.381639164715E-16
  0.173472347598E-16
  0.693889390391E-17
 -0.693889390391E-17
 -0.346944695195E-16
 -0.624500451352E-16
  0.277555756156E-16
  0.242861286637E-16