# vtk DataFile Version 3.0
MachLine results file. Generated by MachLine, USU AeroLab (c) 2022.
ASCII
DATASET POLYDATA
POINTS                3023 float
  0.112193543009E-08  0.367131312010E-25  0.734262624019E-25
  0.895597459391E-03  0.173641858609E-25 -0.199020404738E-03
  0.895597427232E-03  0.152595096754E-25  0.199020549453E-03
  0.201978043103E-02  0.168608085069E-25 -0.448838879209E-03
  0.201978043589E-02  0.114527785154E-25  0.448838857319E-03
  0.342194360843E-02 -0.323207667269E-25 -0.760430746940E-03
  0.342194362106E-02 -0.226495617899E-25  0.760430690091E-03
  0.515701338563E-02 -0.162454068443E-25 -0.114600180238E-02
  0.515701339509E-02 -0.393513747557E-25  0.114600175979E-02
  0.728308877085E-02 -0.318001419092E-25 -0.161846302403E-02
  0.728308878213E-02 -0.332761089391E-25  0.161846297329E-02
  0.827775202506E-02  0.832120762358E-02  0.415993190382E-25
  0.827775338539E-02 -0.832120627036E-02  0.000000000000E+00
  0.914115702706E-02  0.832120780424E-02 -0.191867563186E-03
  0.914115738842E-02 -0.832120744476E-02 -0.191865937048E-03
  0.914115703237E-02  0.832120779896E-02  0.191867539296E-03
  0.914115735847E-02 -0.832120747455E-02  0.191866071813E-03
  0.985721703288E-02 -0.527242513214E-26 -0.219049153272E-02
  0.102249315355E-01  0.832120780746E-02 -0.432706358129E-03
  0.102249318861E-01 -0.832120745873E-02 -0.432704780626E-03
  0.985721704653E-02  0.111402820747E-25  0.219049147131E-02
  0.102249315352E-01  0.832120780780E-02  0.432706359699E-03
  0.102249318718E-01 -0.832120747289E-02  0.432704844662E-03
  0.115766943306E-01  0.832120780641E-02 -0.733098085281E-03
  0.115766946532E-01 -0.832120748544E-02 -0.733096633345E-03
  0.115766943299E-01  0.832120780705E-02  0.733098088158E-03
  0.115766947147E-01 -0.832120742427E-02  0.733096356644E-03
  0.129289356871E-01  0.508491828874E-26 -0.287309571850E-02
  0.132493974662E-01  0.832120780973E-02 -0.110480990913E-02
  0.132493978088E-01 -0.832120746895E-02 -0.110480836758E-02
  0.132493974659E-01  0.832120781007E-02  0.110480991065E-02
  0.132493978495E-01 -0.832120742851E-02  0.110480818463E-02
  0.129289356979E-01  0.531987568107E-25  0.287309567003E-02
  0.152990516172E-01  0.832120781775E-02 -0.156028864730E-02
  0.152990520051E-01 -0.832120743190E-02 -0.156028690185E-02
  0.152990516317E-01  0.832120780327E-02  0.156028858180E-02
  0.152990520224E-01 -0.832120741465E-02  0.156028682384E-02
  0.165316101156E-01  0.861963396062E-26 -0.367369020399E-02
  0.172182432183E-01  0.173086339693E-01  0.532841347013E-25
  0.172182447084E-01 -0.173086324870E-01  0.000000000000E+00
  0.165316101482E-01  0.200884358654E-25  0.367369005706E-02
  0.177806535074E-01  0.832120781353E-02 -0.211175571393E-02
  0.177806538679E-01 -0.832120745488E-02 -0.211175409154E-02
  0.180468787696E-01  0.173086342097E-01 -0.184141001072E-03
  0.180468792787E-01 -0.173086337033E-01 -0.184138710316E-03
  0.180468787663E-01  0.173086342130E-01  0.184141016155E-03
  0.180468792413E-01 -0.173086337405E-01  0.184138878419E-03
  0.177806535146E-01  0.832120780643E-02  0.211175568182E-02
  0.177806539040E-01 -0.832120741902E-02  0.211175392932E-02
  0.190870096065E-01  0.173086342059E-01 -0.415281168761E-03
  0.190870101030E-01 -0.173086337120E-01 -0.415278934458E-03
  0.190870096132E-01  0.173086341992E-01  0.415281138480E-03
  0.190870101020E-01 -0.173086337129E-01  0.415278938862E-03
  0.206723339511E-01 -0.360106926244E-26 -0.459385120958E-02
  0.207419600232E-01  0.832120782366E-02 -0.276982387675E-02
  0.207419603957E-01 -0.832120745318E-02 -0.276982220082E-02
  0.203843367963E-01  0.173086342219E-01 -0.703576176030E-03
  0.203843372951E-01 -0.173086337258E-01 -0.703573931630E-03
  0.203843367885E-01  0.173086342298E-01  0.703576211440E-03
  0.203843373773E-01 -0.173086336440E-01  0.703573561727E-03
  0.207419600415E-01  0.832120780553E-02  0.276982379474E-02
  0.207419604157E-01 -0.832120743323E-02  0.276982211060E-02
  0.206723340219E-01  0.205877769914E-25  0.459385089071E-02
  0.219896800735E-01  0.173086342058E-01 -0.106031905016E-02
  0.219896805311E-01 -0.173086337507E-01 -0.106031699114E-02
  0.219896800588E-01  0.173086342205E-01  0.106031911656E-02
  0.219896806235E-01 -0.173086336588E-01  0.106031657538E-02
  0.242151372859E-01  0.832120781996E-02 -0.354164102873E-02
  0.242151376006E-01 -0.832120750697E-02 -0.354163961287E-02
  0.239567944776E-01  0.173086342356E-01 -0.149745572564E-02
  0.239567949975E-01 -0.173086337184E-01 -0.149745338603E-02
  0.239567945055E-01  0.173086342078E-01  0.149745560004E-02
  0.239567950459E-01 -0.173086336703E-01  0.149745316846E-02
  0.253221654751E-01  0.000000000000E+00 -0.562714695250E-02
  0.242151372998E-01  0.832120780618E-02  0.354164096639E-02
  0.242151376521E-01 -0.832120745570E-02  0.354163938094E-02
  0.263384620954E-01  0.173086342129E-01 -0.202671508885E-02
  0.263384626313E-01 -0.173086336798E-01 -0.202671267717E-02
  0.253221655138E-01  0.000000000000E+00  0.562714677834E-02
  0.263384621005E-01  0.173086342078E-01  0.202671506555E-02
  0.263384625864E-01 -0.173086337245E-01  0.202671287930E-02
  0.267917397967E-01  0.269323891265E-01  0.000000000000E+00
  0.267917413087E-01 -0.269323876223E-01  0.000000000000E+00
  0.282070238998E-01  0.832120782110E-02 -0.442872694826E-02
  0.282070242001E-01 -0.832120752233E-02 -0.442872559674E-02
  0.275831443512E-01  0.269323892284E-01 -0.175867187465E-03
  0.275831448359E-01 -0.269323887462E-01 -0.175865006544E-03
  0.275831443492E-01  0.269323892304E-01  0.175867196510E-03
  0.275831447991E-01 -0.269323887828E-01  0.175865171908E-03
  0.285765414063E-01  0.269323892612E-01 -0.396622244438E-03
  0.285765418772E-01 -0.269323887927E-01 -0.396620125328E-03
  0.285765414069E-01  0.269323892605E-01  0.396622241703E-03
  0.285765418948E-01 -0.269323887752E-01  0.396620046167E-03
  0.291805165797E-01  0.173086342236E-01 -0.265828280229E-02
  0.291805171441E-01 -0.173086336621E-01 -0.265828026245E-02
  0.282070239092E-01  0.832120781177E-02  0.442872690607E-02
  0.282070242859E-01 -0.832120743703E-02  0.442872521089E-02
  0.304094177173E-01 -0.506764321942E-26 -0.675764728466E-02
  0.291805166337E-01  0.173086341698E-01  0.265828255925E-02
  0.291805170933E-01 -0.173086337126E-01  0.265828049091E-02
  0.298155789057E-01  0.269323892270E-01 -0.671963748611E-03
  0.298155792898E-01 -0.269323888448E-01 -0.671962020058E-03
  0.298155788870E-01  0.269323892456E-01  0.671963832757E-03
  0.298155794133E-01 -0.269323887220E-01  0.671961464226E-03
  0.313487930235E-01  0.269323892709E-01 -0.101267820539E-02
  0.313487934013E-01 -0.269323888950E-01 -0.101267650503E-02
  0.313487930366E-01  0.269323892578E-01  0.101267814621E-02
  0.313487935527E-01 -0.269323887445E-01  0.101267582404E-02
  0.326897184059E-01  0.832120781304E-02 -0.542488124461E-02
  0.326897187140E-01 -0.832120750659E-02 -0.542487985833E-02
  0.304094177226E-01 -0.103650431725E-25  0.675764726097E-02
  0.325138287528E-01  0.173086342056E-01 -0.339901875536E-02
  0.325138292530E-01 -0.173086337079E-01 -0.339901650416E-02
  0.332275237702E-01  0.269323892483E-01 -0.143017381967E-02
  0.332275242281E-01 -0.269323887928E-01 -0.143017175914E-02
  0.325138287583E-01  0.173086342001E-01  0.339901873034E-02
  0.325138292177E-01 -0.173086337431E-01  0.339901666311E-02
  0.332275237668E-01  0.269323892516E-01  0.143017383493E-02
  0.332275242769E-01 -0.269323887442E-01  0.143017153957E-02
  0.326897184093E-01  0.832120780965E-02  0.542488122929E-02
  0.326897187758E-01 -0.832120744506E-02  0.542487957999E-02
  0.358190161747E-01  0.527343042632E-26 -0.795978023071E-02
  0.355021814971E-01  0.269323892683E-01 -0.193565340931E-02
  0.355021820170E-01 -0.269323887511E-01 -0.193565106993E-02
  0.363449617900E-01  0.173086342143E-01 -0.425038169380E-02
  0.363449622725E-01 -0.173086337343E-01 -0.425037952258E-02
  0.355021815055E-01  0.269323892599E-01  0.193565337165E-02
  0.355021820033E-01 -0.269323887648E-01  0.193565113172E-02
  0.375941106544E-01  0.832120780064E-02 -0.651474612990E-02
  0.375941109858E-01 -0.832120747095E-02 -0.651474463853E-02
  0.369489977176E-01  0.371429697952E-01  0.000000000000E+00
  0.369489992490E-01 -0.371429682718E-01  0.163529774198E-24
  0.363449618341E-01  0.173086341704E-01  0.425038149560E-02
  0.363449623034E-01 -0.173086337035E-01  0.425037938351E-02
  0.358190161696E-01  0.154864316206E-25  0.795978025367E-02
  0.377009007937E-01  0.371429700040E-01 -0.167089021822E-03
  0.377009012356E-01 -0.371429695644E-01 -0.167087033124E-03
  0.377009007956E-01  0.371429700021E-01  0.167089013364E-03
  0.377009011978E-01 -0.371429696020E-01  0.167087203316E-03
  0.382165406796E-01  0.269323892539E-01 -0.253884427045E-02
  0.382165411792E-01 -0.269323887569E-01 -0.253884202230E-02
  0.386447144267E-01  0.371429700418E-01 -0.376825564136E-03
  0.386447148600E-01 -0.371429696108E-01 -0.376823614386E-03
  0.382165407031E-01  0.269323892304E-01  0.253884416446E-02
  0.382165411143E-01 -0.269323888214E-01  0.253884231428E-02
  0.386447144274E-01  0.371429700411E-01  0.376825561309E-03
  0.386447148182E-01 -0.371429696523E-01  0.376823802504E-03
  0.375941106572E-01  0.832120779783E-02  0.651474611718E-02
  0.375941110206E-01 -0.832120743633E-02  0.651474448192E-02
  0.414000000803E-01  0.000000000000E+00 -0.919999904000E-02
  0.406471378552E-01  0.173086342092E-01 -0.520642079522E-02
  0.406471382799E-01 -0.173086337866E-01 -0.520641888378E-02
  0.398219078768E-01  0.371429699939E-01 -0.638423881554E-03
  0.398219082526E-01 -0.371429696201E-01 -0.638422190575E-03
  0.398219078776E-01  0.371429699932E-01  0.638423878151E-03
  0.398219083101E-01 -0.371429695629E-01  0.638421931843E-03
  0.414000849614E-01  0.269323892799E-01 -0.324629867890E-02
  0.414000854757E-01 -0.269323887683E-01 -0.324629636470E-02
  0.412785946833E-01  0.371429700482E-01 -0.962132318234E-03
  0.412785950802E-01 -0.371429696534E-01 -0.962130532172E-03
  0.428092624950E-01  0.832120778606E-02 -0.767366869195E-02
[...]
POINT_DATA                3023
SCALARS phi float 1
LOOKUP_TABLE default
 -0.129246970711E-25
  0.000000000000E+00
  0.135525271561E-19
  0.000000000000E+00
  0.000000000000E+00
 -0.542101086243E-19
  0.000000000000E+00
  0.108420217249E-18
  0.000000000000E+00
 -0.108420217249E-18
 -0.108420217249E-18
  0.129246970711E-25
  0.000000000000E+00
  0.271050543121E-19
  0.271050543121E-19
  0.542101086243E-19
 -0.542101086243E-19
  0.867361737988E-18
  0.542101086243E-19
  0.000000000000E+00
  0.433680868994E-18
  0.542101086243E-19
 -0.108420217249E-18
 -0.216840434497E-18
 -0.108420217249E-18
  0.108420217249E-18
 -0.108420217249E-18
 -0.216840434497E-18
 -0.216840434497E-18
  0.000000000000E+00
 -0.216840434497E-18
  0.216840434497E-18
  0.325260651746E-18
  0.000000000000E+00
  0.216840434497E-18
  0.000000000000E+00
 -0.216840434497E-18
  0.216840434497E-18
  0.516987882846E-25
  0.103397576569E-24
  0.000000000000E+00
  0.433680868994E-18
 -0.216840434497E-18
 -0.271050543121E-19
  0.271050543121E-19
  0.108420217249E-18
  0.000000000000E+00
 -0.216840434497E-18
 -0.433680868994E-18
 -0.108420217249E-18
 -0.542101086243E-19
  0.000000000000E+00
 -0.542101086243E-19
  0.130104260698E-17
  0.867361737988E-18
  0.867361737988E-18
  0.108420217249E-18
  0.108420217249E-18
 -0.108420217249E-18
  0.108420217249E-18
 -0.216840434497E-18
  0.433680868994E-18
 -0.433680868994E-18
  0.108420217249E-17
 -0.130104260698E-17
  0.433680868994E-18
 -0.108420217249E-17
 -0.433680868994E-18
 -0.130104260698E-17
 -0.130104260698E-17
  0.867361737988E-18
 -0.216840434497E-18
 -0.216840434497E-18
  0.000000000000E+00
 -0.151788304148E-17
 -0.433680868994E-18
 -0.130104260698E-17
  0.000000000000E+00
 -0.216840434497E-18
 -0.151788304148E-17
 -0.867361737988E-18
  0.000000000000E+00
  0.000000000000E+00
 -0.433680868994E-18
  0.173472347598E-17
  0.000000000000E+00
  0.000000000000E+00
 -0.162630325873E-18
 -0.542101086243E-19
  0.542101086243E-19
  0.000000000000E+00
 -0.108420217249E-18
  0.000000000000E+00
 -0.867361737988E-18
  0.867361737988E-18
 -0.433680868994E-18
 -0.130104260698E-17
  0.433680868994E-18
 -0.130104260698E-17
 -0.433680868994E-18
  0.108420217249E-18
 -0.216840434497E-18
 -0.108420217249E-18
  0.000000000000E+00
 -0.216840434497E-18
 -0.216840434497E-18
 -0.216840434497E-18
 -0.867361737988E-18
  0.000000000000E+00
  0.173472347598E-17
  0.433680868994E-18
  0.216840434497E-17
  0.867361737988E-18
  0.433680868994E-18
 -0.650521303491E-18
 -0.433680868994E-18
 -0.433680868994E-18
  0.108420217249E-17
 -0.867361737988E-18
 -0.173472347598E-17
  0.867361737988E-18
 -0.303576608296E-17
  0.867361737988E-18
 -0.433680868994E-18
  0.130104260698E-17
 -0.216840434497E-17
 -0.433680868994E-18
 -0.650521303491E-18
  0.173472347598E-17
  0.867361737988E-18
  0.000000000000E+00
  0.413590306277E-24
  0.000000000000E+00
  0.000000000000E+00
  0.000000000000E+00
  0.000000000000E+00
  0.000000000000E+00
  0.000000000000E+00
  0.542101086243E-19
  0.433680868994E-18
 -0.130104260698E-17
  0.542101086243E-19
  0.000000000000E+00
 -0.867361737988E-18
 -0.130104260698E-17
 -0.542101086243E-19
 -0.108420217249E-18
  0.000000000000E+00
 -0.433680868994E-18
 -0.867361737988E-18
  0.260208521397E-17
  0.260208521397E-17
  0.000000000000E+00
  0.108420217249E-18
 -0.325260651746E-18
 -0.108420217249E-18
  0.346944695195E-17
  0.216840434497E-17
  0.216840434497E-18
  0.433680868994E-18
  0.260208521397E-17
 -0.433680868994E-17
  0.650521303491E-18
 -0.216840434497E-18
 -0.173472347598E-17
  0.867361737988E-18
  0.000000000000E+00
 -0.303576608296E-17
  0.000000000000E+00
 -0.216840434497E-18
  0.000000000000E+00
 -0.433680868994E-18
  0.216840434497E-18
 -0.346944695195E-17
 -0.520417042793E-17
  0.260208521397E-17
  0.130104260698E-17
 -0.173472347598E-17
 -0.173472347598E-17
 -0.867361737988E-18
  0.173472347598E-17
  0.650521303491E-18
  0.216840434497E-18
  0.260208521397E-17
  0.433680868994E-18
  0.173472347598E-17
  0.867361737988E-18
 -0.216840434497E-17
  0.260208521397E-17
  0.867361737988E-18
  0.173472347598E-17
 -0.775481824268E-25
  0.206795153138E-24
  0.433680868994E-17
 -0.260208521397E-17
 -0.433680868994E-18
 -0.130104260698E-17
  0.000000000000E+00
 -0.271050543121E-19
 -0.271050543121E-19
  0.189735380185E-18
  0.693889390391E-17
 -0.173472347598E-17
  0.108420217249E-18
 -0.542101086243E-19
 -0.162630325873E-18
  0.000000000000E+00
 -0.867361737988E-18
 -0.173472347598E-17
  0.303576608296E-17
 -0.867361737988E-18
  0.216840434497E-18
  0.325260651746E-18
  0.000000000000E+00
  0.867361737988E-18
 -0.108420217249E-18
  0.216840434497E-18
 -0.433680868994E-18
 -0.867361737988E-18
  0.000000000000E+00
  0.000000000000E+00
  0.173472347598E-17
 -0.173472347598E-17
  0.108420217249E-18
 -0.216840434497E-18
 -0.346944695195E-17
  0.260208521397E-17
  0.216840434497E-18
  0.216840434497E-18
  0.260208521397E-17
 -0.954097911787E-17
 -0.216840434497E-18
  0.000000000000E+00
  0.346944695195E-17
  0.607153216592E-17
  0.000000000000E+00
 -0.173472347598E-17
  0.303576608296E-17
 -0.433680868994E-18
  0.216840434497E-18
 -0.433680868994E-18
  0.650521303491E-18
  0.433680868994E-18
  0.260208521397E-17
 -0.867361737988E-18
  0.520417042793E-17
 -0.173472347598E-17
  0.607153216592E-17
  0.173472347598E-17
 -0.433680868994E-18
  0.433680868994E-18
  0.216840434497E-17
  0.173472347598E-17
 -0.258493941423E-25
  0.000000000000E+00
  0.433680868994E-18
  0.867361737988E-18
  0.000000000000E+00
  0.271050543121E-19
 -0.271050543121E-19
  0.271050543121E-19
  0.000000000000E+00
 -0.260208521397E-17
  0.000000000000E+00
 -0.542101086243E-19
 -0.173472347598E-17
 -0.433680868994E-18
  0.542101086243E-19
  0.000000000000E+00
 -0.108420217249E-18
  0.000000000000E+00
  0.130104260698E-17
  0.867361737988E-18
  0.000000000000E+00
 -0.108420217249E-18
 -0.346944695195E-17
  0.000000000000E+00
 -0.173472347598E-17
 -0.867361737988E-18
  0.000000000000E+00
  0.108420217249E-18
  0.000000000000E+00
  0.000000000000E+00
  0.000000000000E+00
  0.000000000000E+00
 -0.520417042793E-17
 -0.346944695195E-17
  0.216840434497E-18
  0.000000000000E+00
  0.000000000000E+00
  0.216840434497E-18
  0.867361737988E-18
 -0.433680868994E-18
 -0.104083408559E-16
 -0.867361737988E-18
 -0.520417042793E-17
 -0.173472347598E-17
  0.173472347598E-17
  0.650521303491E-18
  0.433680868994E-18
 -0.867361737988E-18
 -0.130104260698E-17
  0.867361737988E-18
  0.867361737988E-18
  0.433680868994E-18
 -0.433680868994E-18
 -0.867361737988E-18
  0.867361737988E-18
  0.173472347598E-17
 -0.173472347598E-17
 -0.867361737988E-18
  0.000000000000E+00
  0.433680868994E-18
  0.516987882846E-25
 -0.103397576569E-24
  0.520417042793E-17
 -0.260208521397E-17
  0.433680868994E-18
  0.867361737988E-18
 -0.173472347598E-17
 -0.260208521397E-17
  0.542101086243E-19
 -0.271050543121E-19
 -0.325260651746E-18
  0.325260651746E-18
 -0.607153216592E-17
 -0.346944695195E-17
  0.000000000000E+00
 -0.108420217249E-18
 -0.216840434497E-17
  0.216840434497E-17
  0.162630325873E-18
  0.000000000000E+00
  0.108420217249E-18
 -0.108420217249E-18
  0.000000000000E+00
 -0.216840434497E-18
 -0.867361737988E-18
  0.260208521397E-17
  0.520417042793E-17
 -0.867361737988E-18
  0.867361737988E-18
  0.260208521397E-17
 -0.108420217249E-18
  0.000000000000E+00
  0.108420217249E-18
 -0.325260651746E-18
 -0.173472347598E-17
 -0.867361737988E-18
  0.130104260698E-17
  0.000000000000E+00
  0.693889390391E-17
 -0.520417042793E-17
  0.000000000000E+00
 -0.433680868994E-18
  0.216840434497E-18
  0.433680868994E-18
  0.650521303491E-18
 -0.216840434497E-18
 -0.260208521397E-17
  0.000000000000E+00
 -0.867361737988E-18
  0.433680868994E-17
 -0.433680868994E-18
  0.000000000000E+00
 -0.433680868994E-17
  0.607153216592E-17
 -0.173472347598E-17
  0.433680868994E-17
 -0.433680868994E-18
  0.867361737988E-18
  0.520417042793E-17
  0.173472347598E-17
  0.433680868994E-18
  0.216840434497E-18
 -0.867361737988E-18
 -0.173472347598E-17
  0.000000000000E+00
 -0.867361737988E-18
 -0.867361737988E-18
  0.000000000000E+00
  0.516987882846E-25
  0.000000000000E+00
 -0.433680868994E-17
 -0.173472347598E-17
  0.130104260698E-17
 -0.867361737988E-18
  0.000000000000E+00
  0.542101086243E-19
  0.346944695195E-17
  0.346944695195E-17
  0.000000000000E+00
 -0.352365706058E-18
  0.000000000000E+00
  0.108420217249E-18
  0.108420217249E-18
  0.542101086243E-19
  0.000000000000E+00
  0.108420217249E-18
  0.173472347598E-17
  0.000000000000E+00
  0.000000000000E+00
  0.108420217249E-18
  0.867361737988E-18
  0.867361737988E-18
 -0.173472347598E-17
  0.173472347598E-17
  0.108420217249E-18
 -0.108420217249E-18
  0.000000000000E+00
 -0.867361737988E-18
  0.000000000000E+00
  0.542101086243E-18
  0.108420217249E-17
  0.216840434497E-18
  0.867361737988E-18
 -0.433680868994E-17
  0.000000000000E+00
 -0.650521303491E-18
 -0.867361737988E-18
  0.346944695195E-17
 -0.433680868994E-18
  0.303576608296E-17
  0.433680868994E-18
 -0.108420217249E-17
  0.693889390391E-17
  0.000000000000E+00
  0.000000000000E+00
 -0.650521303491E-18
  0.433680868994E-17
 -0.260208521397E-17
  0.433680868994E-18
  0.000000000000E+00
 -0.260208521397E-17
  0.433680868994E-17
 -0.867361737988E-18
  0.433680868994E-18
 -0.216840434497E-18
 -0.693889390391E-17
  0.260208521397E-17
  0.433680868994E-17
  0.173472347598E-17
 -0.867361737988E-18
  0.433680868994E-18
 -0.346944695195E-17
 -0.346944695195E-17
  0.000000000000E+00
 -0.216840434497E-17
 -0.173472347598E-17
  0.000000000000E+00
  0.000000000000E+00
  0.000000000000E+00
 -0.542101086243E-19
 -0.867361737988E-18
 -0.867361737988E-18
 -0.203287907341E-18
 -0.149077798717E-18
  0.173472347598E-17
  0.260208521397E-17
  0.433680868994E-18
  0.173472347598E-17
  0.000000000000E+00
  0.000000000000E+00
  0.000000000000E+00
  0.000000000000E+00
  0.433680868994E-17
 -0.260208521397E-17
  0.000000000000E+00
 -0.108420217249E-18
  0.162630325873E-18
 -0.542101086243E-19
  0.433680868994E-18
  0.433680868994E-18
 -0.346944695195E-17
  0.173472347598E-17
  0.108420217249E-18
  0.108420217249E-18
  0.325260651746E-18
  0.216840434497E-18
  0.173472347598E-17
 -0.867361737988E-18
 -0.216840434497E-18
  0.000000000000E+00
  0.173472347598E-17
  0.260208521397E-17
 -0.607153216592E-17
  0.000000000000E+00
  0.000000000000E+00
 -0.108420217249E-18
 -0.173472347598E-17
  0.130104260698E-17
  0.433680868994E-18
 -0.216840434497E-18
  0.346944695195E-17
 -0.260208521397E-17
 -0.867361737988E-18
  0.216840434497E-18
  0.260208521397E-17
  0.173472347598E-17
 -0.260208521397E-17
  0.346944695195E-17
  0.867361737988E-18
 -0.954097911787E-17
 -0.433680868994E-18
  0.216840434497E-18
  0.650521303491E-18
 -0.130104260698E-17
  0.346944695195E-17
  0.260208521397E-17
 -0.260208521397E-17
  0.867361737988E-18
 -0.173472347598E-17
 -0.433680868994E-18
 -0.433680868994E-18
 -0.563785129692E-17
  0.867361737988E-18
  0.433680868994E-18
 -0.867361737988E-18
 -0.346944695195E-17
  0.103397576569E-24
 -0.206795153138E-24
 -0.867361737988E-18
  0.433680868994E-18
 -0.135525271561E-19
  0.000000000000E+00
  0.813151629364E-19
 -0.149077798717E-18
 -0.173472347598E-17
 -0.260208521397E-17
 -0.108420217249E-18
  0.000000000000E+00
 -0.813151629364E-19
 -0.542101086243E-19
  0.433680868994E-18
  0.867361737988E-18
  0.260208521397E-17
 -0.433680868994E-17
 -0.108420217249E-18
  0.542101086243E-19
  0.000000000000E+00
 -0.108420217249E-18
  0.173472347598E-17
  0.867361737988E-18
 -0.173472347598E-17
 -0.520417042793E-17
  0.216840434497E-18
 -0.108420217249E-18
  0.173472347598E-17
 -0.433680868994E-18
 -0.325260651746E-18
 -0.108420217249E-18
  0.433680868994E-18
  0.130104260698E-17
 -0.130104260698E-17
 -0.867361737988E-18
  0.433680868994E-18
  0.867361737988E-18
 -0.325260651746E-18
  0.108420217249E-18
 -0.867361737988E-18
  0.780625564190E-17
  0.000000000000E+00
 -0.173472347598E-17
 -0.867361737988E-18
 -0.216840434497E-18
 -0.216840434497E-18
  0.216840434497E-18
 -0.346944695195E-17
 -0.867361737988E-18
  0.216840434497E-18
  0.433680868994E-18
  0.173472347598E-17
  0.346944695195E-17
  0.000000000000E+00
 -0.650521303491E-18
  0.346944695195E-17
  0.607153216592E-17
 -0.346944695195E-17
  0.173472347598E-17
  0.867361737988E-18
  0.000000000000E+00
 -0.433680868994E-17
  0.433680868994E-18
  0.867361737988E-18
  0.173472347598E-17
  0.216840434497E-17
  0.000000000000E+00
  0.000000000000E+00
 -0.173472347598E-17
  0.260208521397E-17
  0.000000000000E+00
  0.260208521397E-17
 -0.130104260698E-17
  0.000000000000E+00
  0.103397576569E-24
 -0.867361737988E-18
  0.867361737988E-18
  0.135525271561E-19
  0.000000000000E+00
 -0.149077798717E-18
 -0.813151629364E-19
  0.260208521397E-17
 -0.260208521397E-17
  0.542101086243E-19
  0.000000000000E+00
 -0.542101086243E-19
 -0.271050543121E-19
 -0.954097911787E-17
  0.346944695195E-17
  0.607153216592E-17
  0.260208521397E-17
 -0.216840434497E-18
 -0.542101086243E-19
  0.216840434497E-17
 -0.433680868994E-18
  0.108420217249E-18
  0.542101086243E-19
  0.000000000000E+00
 -0.108420217249E-18
 -0.346944695195E-17
  0.173472347598E-17
  0.260208521397E-17
  0.138777878078E-16
 -0.108420217249E-18
  0.108420217249E-18
 -0.130104260698E-17
 -0.130104260698E-17
 -0.173472347598E-17
 -0.693889390391E-17
  0.216840434497E-18
 -0.325260651746E-18
  0.000000000000E+00
  0.108420217249E-18
  0.346944695195E-17
  0.867361737988E-18
  0.390312782095E-17
 -0.130104260698E-17
  0.216840434497E-18
  0.867361737988E-18
 -0.130104260698E-17
  0.216840434497E-18
  0.780625564190E-17
  0.346944695195E-17
 -0.433680868994E-18
 -0.130104260698E-17
  0.000000000000E+00
  0.216840434497E-18
 -0.216840434497E-18
 -0.216840434497E-18
  0.000000000000E+00
  0.173472347598E-17
  0.867361737988E-17
  0.000000000000E+00
  0.000000000000E+00
  0.216840434497E-17
 -0.173472347598E-17
  0.000000000000E+00
  0.000000000000E+00
  0.216840434497E-18
  0.000000000000E+00
  0.346944695195E-17
  0.000000000000E+00
  0.000000000000E+00
 -0.346944695195E-17
 -0.260208521397E-17
  0.867361737988E-18
 -0.130104260698E-17
  0.260208521397E-17
  0.346944695195E-17
  0.433680868994E-17
  0.867361737988E-17
  0.216840434497E-17
 -0.867361737988E-18
 -0.103397576569E-24
  0.000000000000E+00
  0.693889390391E-17
 -0.260208521397E-17
  0.135525271561E-19
  0.000000000000E+00
  0.352365706058E-18
 -0.271050543121E-18
  0.173472347598E-17
 -0.433680868994E-18
  0.000000000000E+00
 -0.271050543121E-19
  0.867361737988E-18
  0.000000000000E+00
 -0.542101086243E-19
  0.000000000000E+00
 -0.498732999343E-17
  0.260208521397E-17
 -0.542101086243E-19
  0.108420217249E-18
 -0.108420217249E-18
  0.162630325873E-18
  0.000000000000E+00
 -0.303576608296E-17
  0.325260651746E-18
 -0.216840434497E-18
 -0.216840434497E-18
  0.108420217249E-18
  0.000000000000E+00
  0.000000000000E+00
 -0.130104260698E-17
  0.867361737988E-18
 -0.108420217249E-18
  0.325260651746E-18
  0.195156391047E-17
 -0.151788304148E-17
 -0.433680868994E-18
 -0.867361737988E-18
  0.216840434497E-18
  0.000000000000E+00
 -0.260208521397E-17
 -0.260208521397E-17
 -0.390312782095E-17
  0.260208521397E-17
 -0.867361737988E-18
  0.260208521397E-17
  0.108420217249E-17
  0.000000000000E+00
  0.000000000000E+00
  0.433680868994E-17
 -0.433680868994E-18
 -0.216840434497E-18
 -0.260208521397E-17
 -0.173472347598E-17
  0.867361737988E-18
  0.216840434497E-18
  0.000000000000E+00
 -0.563785129692E-17
 -0.216840434497E-18
 -0.216840434497E-18
  0.433680868994E-18
 -0.216840434497E-17
 -0.433680868994E-18
  0.650521303491E-18
  0.195156391047E-17
 -0.867361737988E-18
  0.000000000000E+00
 -0.867361737988E-18
 -0.130104260698E-17
  0.542101086243E-17
 -0.867361737988E-18
  0.000000000000E+00
 -0.433680868994E-18
 -0.104083408559E-16
  0.867361737988E-18
 -0.173472347598E-17
  0.173472347598E-17
  0.867361737988E-18
 -0.516987882846E-25
 -0.103397576569E-24
 -0.433680868994E-18
 -0.433680868994E-18
 -0.135525271561E-19
  0.000000000000E+00
  0.162630325873E-18
  0.135525271561E-18
 -0.271050543121E-19
  0.000000000000E+00
 -0.271050543121E-19
  0.000000000000E+00
 -0.411996825544E-17
 -0.108420217249E-17
  0.867361737988E-18
  0.000000000000E+00
  0.000000000000E+00
  0.542101086243E-19
 -0.162630325873E-18
  0.162630325873E-18
  0.867361737988E-17
  0.173472347598E-17
 -0.195156391047E-17
  0.238524477947E-17
  0.216840434497E-18
 -0.325260651746E-18
 -0.162630325873E-18
  0.216840434497E-18
 -0.173472347598E-17
 -0.346944695195E-17
  0.000000000000E+00
  0.000000000000E+00
  0.325260651746E-18
 -0.433680868994E-18
 -0.216840434497E-18
  0.325260651746E-18
  0.390312782095E-17
  0.433680868994E-18
 -0.260208521397E-17
  0.303576608296E-17
 -0.433680868994E-18
  0.346944695195E-17
  0.227682456222E-17
  0.867361737988E-18
  0.867361737988E-18
  0.260208521397E-17
  0.108420217249E-18
 -0.325260651746E-18
  0.173472347598E-17
  0.173472347598E-17
  0.303576608296E-17
 -0.260208521397E-17
  0.216840434497E-18
  0.130104260698E-17
 -0.151788304148E-17
  0.650521303491E-18
  0.867361737988E-18
  0.000000000000E+00
  0.303576608296E-17
  0.520417042793E-17
  0.650521303491E-18
  0.216840434497E-18
  0.303576608296E-17
  0.325260651746E-17
 -0.650521303491E-18
 -0.216840434497E-18
  0.000000000000E+00
 -0.520417042793E-17
 -0.130104260698E-17
 -0.520417042793E-17
  0.000000000000E+00
  0.867361737988E-18
 -0.433680868994E-17
  0.000000000000E+00
  0.433680868994E-18
  0.433680868994E-18
 -0.693889390391E-17
  0.867361737988E-18
 -0.216840434497E-18
  0.433680868994E-17
 -0.433680868994E-18
  0.303576608296E-17
 -0.867361737988E-18
  0.867361737988E-17
  0.103397576569E-24
  0.103397576569E-24
  0.346944695195E-17
  0.693889390391E-17
 -0.135525271561E-19
  0.000000000000E+00
 -0.433680868994E-18
 -0.173472347598E-17
 -0.121972744405E-18
 -0.243945488809E-18
 -0.693889390391E-17
  0.433680868994E-17
  0.271050543121E-19
 -0.271050543121E-19
 -0.271050543121E-19
 -0.271050543121E-19
  0.216840434497E-18
  0.108420217249E-18
  0.000000000000E+00
  0.162630325873E-18
 -0.433680868994E-18
  0.130104260698E-17
  0.867361737988E-17
  0.390312782095E-17
 -0.346944695195E-17
 -0.260208521397E-17
  0.542101086243E-19
  0.108420217249E-18
  0.000000000000E+00
  0.000000000000E+00
  0.433680868994E-17
 -0.520417042793E-17
 -0.433680868994E-18
  0.000000000000E+00
 -0.108420217249E-18
 -0.108420217249E-18
  0.000000000000E+00
  0.216840434497E-18
 -0.281892564846E-17
  0.108420217249E-17
 -0.325260651746E-18
 -0.108420217249E-18
  0.216840434497E-17
 -0.260208521397E-17
  0.130104260698E-17
 -0.108420217249E-18
  0.433680868994E-18
  0.000000000000E+00
  0.433680868994E-18
  0.433680868994E-18
  0.455364912444E-17
  0.173472347598E-17
  0.650521303491E-17
  0.260208521397E-17
  0.433680868994E-17
 -0.173472347598E-17
 -0.433680868994E-17
 -0.216840434497E-18
  0.000000000000E+00
 -0.390312782095E-17
 -0.607153216592E-17
  0.216840434497E-18
 -0.650521303491E-18
  0.000000000000E+00
 -0.104083408559E-16
  0.314418630021E-17
  0.121430643318E-16
  0.433680868994E-17
  0.000000000000E+00
 -0.130104260698E-17
  0.216840434497E-18
  0.000000000000E+00
  0.325260651746E-17
  0.216840434497E-18
 -0.867361737988E-18
 -0.867361737988E-18
 -0.867361737988E-18
  0.433680868994E-17
  0.303576608296E-17
  0.867361737988E-18
 -0.433680868994E-17
 -0.867361737988E-18
 -0.433680868994E-18
 -0.260208521397E-17
 -0.433680868994E-18
  0.433680868994E-18
 -0.542101086243E-18
  0.357786716920E-17
  0.693889390391E-17
 -0.433680868994E-17
  0.000000000000E+00
 -0.206795153138E-24
  0.135525271561E-19
 -0.271050543121E-19
 -0.108420217249E-18
  0.135525271561E-19
  0.271050543121E-19
 -0.271050543121E-19
  0.271050543121E-19
  0.000000000000E+00
 -0.433680868994E-18
 -0.173472347598E-17
  0.346944695195E-17
 -0.650521303491E-17
  0.000000000000E+00
  0.000000000000E+00
  0.542101086243E-19
  0.542101086243E-19
  0.867361737988E-18
  0.867361737988E-18
 -0.108420217249E-18
 -0.108420217249E-18
  0.867361737988E-18