# vtk DataFile Version 3.0
MachLine results file. Generated by MachLine, USU AeroLab (c) 2022.
ASCII
DATASET POLYDATA
POINTS                4925 float
  0.999999999839E+00  0.987023629819E-11  0.108452372171E-29
  0.999999999839E+00  0.200796117573E-11  0.108452372171E-29
  0.997227726666E+00  0.135232673748E-03 -0.387639610062E-30
  0.988948396928E+00  0.539102391954E-03 -0.444259977700E-30
  0.975273974511E+00  0.120614735998E-02 -0.253616586618E-30
  0.956389382521E+00  0.212734694051E-02  0.286090612735E-30
  0.932550002665E+00  0.329024349056E-02 -0.635876320530E-30
  0.904078221664E+00  0.467911082979E-02  0.000000000000E+00
  0.871359071510E+00  0.627516691035E-02 -0.375718233783E-30
  0.834835022581E+00  0.805682781189E-02  0.000000000000E+00
  0.794999999982E+00  0.999999962725E-02 -0.842941924114E-30
  0.752392704057E+00  0.120784042912E-01  0.131621806139E-29
  0.707589325393E+00  0.142639349462E-01  0.000000000000E+00
  0.661195752823E+00  0.165270360395E-01 -0.460453561972E-30
  0.613839379833E+00  0.188371030110E-01  0.000000000000E+00
  0.566160620127E+00  0.211628961681E-01  0.000000000000E+00
  0.518804247137E+00  0.234729631480E-01  0.458308382572E-30
  0.472410674569E+00  0.257360642578E-01  0.896538557597E-30
  0.427607295905E+00  0.279215949371E-01  0.000000000000E+00
  0.384999999982E+00  0.299999996326E-01  0.415440086325E-30
  0.345164977385E+00  0.319431714861E-01  0.000000000000E+00
  0.308640928458E+00  0.337248324311E-01  0.368897970516E-30
  0.275921778306E+00  0.353208885595E-01  0.000000000000E+00
  0.247449997307E+00  0.367097559491E-01  0.315659804601E-30
  0.223610617454E+00  0.378726525439E-01  0.445346864905E-30
  0.204726025467E+00  0.387938521950E-01 -0.561541147436E-30
  0.191051603053E+00  0.394608972341E-01  0.000000000000E+00
  0.182772273318E+00  0.398647669878E-01  0.000000000000E+00
  0.180000000039E+00  0.399999997790E-01 -0.531636880806E-27
  0.179083929805E+00  0.397964286778E-01 -0.774784233303E-27
  0.176354367655E+00  0.391898593390E-01 -0.968992657596E-27
  0.171866879621E+00  0.381926397330E-01 -0.844179057840E-27
  0.165712817989E+00  0.368250705057E-01  0.000000000000E+00
  0.158017461733E+00  0.351149913006E-01 -0.180852149371E-26
  0.148937466098E+00  0.330972144875E-01  0.278348273635E-26
  0.138657673615E+00  0.308128161531E-01 -0.950358174719E-27
  0.127387351214E+00  0.283083000601E-01 -0.193849259625E-26
  0.115355930161E+00  0.256346509341E-01 -0.982645274260E-27
  0.102808335490E+00  0.228462965614E-01  0.000000000000E+00
  0.900000000454E-01  0.199999997958E-01 -0.197963525340E-26
  0.771916646005E-01  0.171537030315E-01  0.984181835585E-27
  0.646440699290E-01  0.143653486622E-01  0.000000000000E+00
  0.526126488739E-01  0.116916995415E-01 -0.962285745323E-27
  0.413423264751E-01  0.918718344329E-02  0.226443227455E-26
  0.310625339866E-01  0.690278513349E-02 -0.909472804794E-27
  0.219825383528E-01  0.488500831183E-02 -0.233948123292E-26
  0.142871820795E-01  0.317492918892E-02  0.000000000000E+00
  0.813312045324E-02  0.180735993473E-02  0.000000000000E+00
  0.364563241078E-02  0.810140365365E-03  0.000000000000E+00
  0.916070266751E-03  0.203571000222E-03  0.117918836250E-26
  0.164514707776E-09 -0.000000000000E+00 -0.538342037272E-26
  0.916070266751E-03 -0.203571000222E-03  0.000000000000E+00
  0.364563241078E-02 -0.810140365365E-03  0.000000000000E+00
  0.813312045324E-02 -0.180735993473E-02 -0.115022184493E-26
  0.142871820795E-01 -0.317492918892E-02  0.112317675506E-26
  0.219825383528E-01 -0.488500831183E-02  0.000000000000E+00
  0.310625339866E-01 -0.690278513349E-02 -0.272841841438E-26
  0.413423264751E-01 -0.918718344329E-02 -0.377405379092E-26
  0.526126488739E-01 -0.116916995415E-01 -0.962285745323E-27
  0.646440699290E-01 -0.143653486622E-01 -0.974220489580E-27
  0.771916646005E-01 -0.171537030315E-01 -0.984181835585E-27
  0.900000000454E-01 -0.199999997958E-01 -0.989817626700E-27
  0.102808335490E+00 -0.228462965614E-01 -0.989548853640E-27
  0.115355930161E+00 -0.256346509341E-01  0.294793582278E-26
  0.127387351214E+00 -0.283083000601E-01  0.969246298125E-27
  0.138657673615E+00 -0.308128161531E-01 -0.190071634944E-26
  0.148937466098E+00 -0.330972144875E-01  0.927827578782E-27
  0.158017461733E+00 -0.351149913006E-01  0.000000000000E+00
  0.165712817989E+00 -0.368250705057E-01  0.000000000000E+00
  0.171866879621E+00 -0.381926397330E-01 -0.844179057840E-27
  0.176354367655E+00 -0.391898593390E-01 -0.968992657596E-27
  0.179083929805E+00 -0.397964286778E-01 -0.774784233303E-27
  0.180000000039E+00 -0.399999997790E-01  0.205970353064E-26
  0.182772273318E+00 -0.398647669878E-01  0.283182001978E-30
  0.191051603053E+00 -0.394608972341E-01  0.000000000000E+00
  0.204726025467E+00 -0.387938521950E-01  0.000000000000E+00
  0.223610617454E+00 -0.378726525439E-01  0.222673432453E-30
  0.247449997307E+00 -0.367097559491E-01 -0.315659804601E-30
  0.275921778306E+00 -0.353208885595E-01  0.684989974532E-30
  0.308640928458E+00 -0.337248324311E-01  0.368897970516E-30
  0.345164977385E+00 -0.319431714861E-01  0.393543944615E-30
  0.384999999982E+00 -0.299999996326E-01  0.830880172649E-30
  0.427607295905E+00 -0.279215949371E-01  0.433857540414E-30
  0.472410674569E+00 -0.257360642578E-01  0.448269278799E-30
  0.518804247137E+00 -0.234729631480E-01  0.458308382572E-30
  0.566160620127E+00 -0.211628961681E-01  0.000000000000E+00
  0.613839379833E+00 -0.188371030110E-01  0.139337785999E-29
  0.661195752823E+00 -0.165270360395E-01 -0.920907123943E-30
  0.707589325393E+00 -0.142639349462E-01  0.451819564856E-30
  0.752392704057E+00 -0.120784042912E-01 -0.438739353797E-30
  0.794999999982E+00 -0.999999962725E-02  0.421470962057E-30
  0.834835022581E+00 -0.805682781189E-02  0.400336833497E-30
  0.871359071510E+00 -0.627516691035E-02  0.751436467566E-30
  0.904078221664E+00 -0.467911082979E-02 -0.104419656412E-29
  0.932550002665E+00 -0.329024349056E-02 -0.317938160265E-30
  0.956389382521E+00 -0.212734694051E-02  0.000000000000E+00
  0.975273974511E+00 -0.120614735998E-02  0.000000000000E+00
  0.988948396928E+00 -0.539102391954E-03  0.000000000000E+00
  0.997227726667E+00 -0.135232701926E-03  0.000000000000E+00
  0.100002538203E+01  0.394554329496E-11  0.205408163267E-01
  0.100002538203E+01 -0.394554329128E-11  0.205408163267E-01
  0.997097027939E+00  0.142846373185E-03  0.205408163265E-01
  0.988354667218E+00  0.569302965665E-03  0.205408163265E-01
  0.973925783321E+00  0.127315093058E-02  0.205408163265E-01
  0.954020781866E+00  0.224412658109E-02  0.205408163265E-01
  0.928929922598E+00  0.346807090660E-02  0.205408163265E-01
  0.899019086743E+00  0.492713604319E-02  0.205408163265E-01
  0.864724441644E+00  0.660004553586E-02  0.205408163265E-01
  0.826546080449E+00  0.846240459723E-02  0.205408163265E-01
  0.785040729635E+00  0.104870558386E-01  0.205408163265E-01
  0.740813630679E+00  0.126444752857E-01  0.205408163265E-01
  0.694509714274E+00  0.149032029052E-01  0.205408163265E-01
  0.646804195789E+00  0.172303013620E-01  0.205408163265E-01
  0.598392729107E+00  0.195918363206E-01  0.205408163265E-01
  0.549981262424E+00  0.219533712837E-01  0.205408163265E-01
  0.502275743940E+00  0.242804697537E-01  0.205408163265E-01
  0.455971827536E+00  0.265391973947E-01  0.205408163265E-01
  0.411744728582E+00  0.286966168713E-01  0.205408163265E-01
  0.370239377769E+00  0.307212681494E-01  0.205408163265E-01
  0.332061016576E+00  0.325836272539E-01  0.205408163265E-01
  0.297766371479E+00  0.342565367950E-01  0.205408163265E-01
  0.267855535627E+00  0.357156019837E-01  0.205408163265E-01
  0.242764676361E+00  0.369395463586E-01  0.205408163265E-01
  0.222859674912E+00  0.379105220922E-01  0.205408163265E-01
  0.208430791016E+00  0.386143700939E-01  0.205408163265E-01
  0.199688430297E+00  0.390408267629E-01  0.205408163265E-01
  0.196760076086E+00  0.391836732526E-01  0.205408163009E-01
  0.195862701180E+00  0.389842566686E-01  0.205408162929E-01
  0.193188844382E+00  0.383900662833E-01  0.205408162959E-01
  0.188792937733E+00  0.374131981162E-01  0.205408162911E-01
  0.182764469200E+00  0.360735384403E-01  0.205408162907E-01
  0.175226161029E+00  0.343983588215E-01  0.205408162853E-01
  0.166331471428E+00  0.324217611257E-01  0.205408162840E-01
  0.156261470626E+00  0.301839831726E-01  0.205408162845E-01
  0.145221154806E+00  0.277305796532E-01  0.205408162838E-01
  0.133435272957E+00  0.251114947949E-01  0.205408162831E-01
  0.121143751647E+00  0.223800456130E-01  0.205408162827E-01
  0.108596810803E+00  0.195918365360E-01  0.205408162826E-01
  0.960498699596E-01  0.168036274603E-01  0.205408162827E-01
  0.837583486487E-01  0.140721782818E-01  0.205408162831E-01
  0.719724667990E-01  0.114530934288E-01  0.205408162836E-01
  0.609321509785E-01  0.899968990954E-02  0.205408162829E-01
  0.508621501751E-01  0.676191196610E-02  0.205408162856E-01
  0.419674605715E-01  0.478531427734E-02  0.205408162858E-01
  0.344291523916E-01  0.311013470048E-02  0.205408162897E-01
  0.284006838582E-01  0.177047502961E-02  0.205408162904E-01
  0.240047771991E-01  0.793606903564E-03  0.205408162947E-01
  0.213309204040E-01  0.199416509562E-03  0.205408162957E-01
  0.204335456221E-01 -0.694896352590E-25  0.205408161585E-01
  0.213309204040E-01 -0.199416509562E-03  0.205408162957E-01
  0.240047771991E-01 -0.793606903564E-03  0.205408162947E-01
  0.284006838582E-01 -0.177047502961E-02  0.205408162904E-01
  0.344291523916E-01 -0.311013470048E-02  0.205408162897E-01
  0.419674605715E-01 -0.478531427734E-02  0.205408162858E-01
  0.508621501751E-01 -0.676191196610E-02  0.205408162856E-01
  0.609321509785E-01 -0.899968990954E-02  0.205408162829E-01
  0.719724667990E-01 -0.114530934288E-01  0.205408162836E-01
  0.837583486487E-01 -0.140721782818E-01  0.205408162831E-01
  0.960498699596E-01 -0.168036274603E-01  0.205408162827E-01
  0.108596810803E+00 -0.195918365360E-01  0.205408162826E-01
  0.121143751647E+00 -0.223800456130E-01  0.205408162827E-01
[...]
POINT_DATA                4925
SCALARS phi float 1
LOOKUP_TABLE default
  0.555111512313E-16
  0.607153216592E-17
  0.182145964978E-16
 -0.104083408559E-16
 -0.433680868994E-17
  0.693889390391E-17
 -0.303576608296E-16
 -0.303576608296E-17
 -0.108420217249E-17
 -0.216840434497E-17
  0.184314369323E-17
  0.433680868994E-18
 -0.104083408559E-16
 -0.121430643318E-16
 -0.780625564190E-17
 -0.156125112838E-16
  0.173472347598E-16
  0.121430643318E-16
 -0.277555756156E-16
  0.346944695195E-17
 -0.138777878078E-16
  0.485722573274E-16
 -0.173472347598E-16
  0.693889390391E-17
  0.173472347598E-16
 -0.173472347598E-16
  0.000000000000E+00
 -0.173472347598E-17
 -0.693889390391E-17
  0.520417042793E-17
 -0.277555756156E-16
  0.156125112838E-16
 -0.693889390391E-17
  0.173472347598E-17
 -0.173472347598E-17
 -0.121430643318E-16
  0.693889390391E-17
 -0.104083408559E-16
 -0.173472347598E-17
 -0.173472347598E-17
  0.867361737988E-18
 -0.173472347598E-17
  0.000000000000E+00
 -0.303576608296E-17
 -0.433680868994E-18
 -0.715573433840E-17
 -0.201661604082E-16
  0.590131242484E-15
  0.799832205675E-14
  0.177404504932E-12
 -0.883821045672E-19
 -0.128373142195E-12
 -0.649068472580E-14
 -0.556629395354E-15
 -0.205998412772E-16
 -0.229850860567E-16
 -0.216840434497E-17
  0.000000000000E+00
  0.433680868994E-17
 -0.173472347598E-17
 -0.346944695195E-17
 -0.520417042793E-17
 -0.138777878078E-16
 -0.867361737988E-17
  0.104083408559E-16
  0.173472347598E-17
  0.000000000000E+00
  0.000000000000E+00
 -0.138777878078E-16
  0.173472347598E-17
 -0.346944695195E-16
  0.104083408559E-16
 -0.225514051877E-16
 -0.693889390391E-17
 -0.138777878078E-16
  0.693889390391E-17
 -0.277555756156E-16
 -0.624500451352E-16
 -0.277555756156E-16
  0.693889390391E-17
  0.416333634234E-16
 -0.346944695195E-17
  0.225514051877E-16
  0.520417042793E-17
  0.329597460436E-16
 -0.138777878078E-16
 -0.190819582357E-16
 -0.693889390391E-17
 -0.693889390391E-17
  0.390312782095E-17
  0.433680868994E-17
 -0.227682456222E-17
  0.216840434497E-17
 -0.433680868994E-17
 -0.156125112838E-16
  0.867361737988E-17
 -0.320923843056E-16
 -0.433680868994E-17
  0.303576608296E-16
 -0.147451495458E-16
 -0.260208521397E-16
 -0.693889390391E-17
  0.000000000000E+00
 -0.112757025938E-16
 -0.216840434497E-16
 -0.607153216592E-17
  0.563785129692E-17
  0.607153216592E-17
  0.433680868994E-17
  0.151788304148E-17
 -0.520417042793E-17
  0.433680868994E-17
 -0.251534904017E-16
 -0.121430643318E-16
 -0.173472347598E-16
  0.208166817117E-16
 -0.433680868994E-16
  0.867361737988E-17
 -0.173472347598E-16
  0.104083408559E-16
  0.346944695195E-17
 -0.693889390391E-17
 -0.693889390391E-17
  0.173472347598E-16
  0.346944695195E-17
  0.138777878078E-16
  0.277555756156E-16
  0.000000000000E+00
 -0.346944695195E-17
  0.693889390391E-17
 -0.208166817117E-16
  0.208166817117E-16
 -0.156125112838E-16
 -0.520417042793E-17
  0.346944695195E-17
 -0.173472347598E-17
  0.104083408559E-16
 -0.693889390391E-17
  0.520417042793E-17
 -0.260208521397E-17
  0.867361737988E-18
 -0.173472347598E-17
 -0.173472347598E-17
 -0.867361737988E-17
 -0.867361737988E-17
  0.427175655959E-15
  0.152655665886E-14
  0.570561393270E-15
  0.268910587789E-14
 -0.384674930798E-15
 -0.116324051086E-14
 -0.381639164715E-15
 -0.780625564190E-17
 -0.108420217249E-16
 -0.112757025938E-16
  0.867361737988E-18
  0.260208521397E-17
 -0.173472347598E-17
 -0.520417042793E-17
 -0.104083408559E-16
  0.520417042793E-17
  0.173472347598E-17
  0.173472347598E-17
  0.867361737988E-17
  0.104083408559E-16
 -0.693889390391E-17
 -0.693889390391E-17
  0.242861286637E-16
  0.000000000000E+00
 -0.104083408559E-16
  0.104083408559E-16
 -0.104083408559E-16
  0.138777878078E-16
  0.104083408559E-16
 -0.208166817117E-16
  0.138777878078E-16
 -0.693889390391E-17
 -0.346944695195E-17
 -0.104083408559E-16
 -0.225514051877E-16
 -0.173472347598E-17
  0.138777878078E-16
  0.346944695195E-17
  0.364291929955E-16
  0.867361737988E-17
  0.156125112838E-16
 -0.867361737988E-18
  0.433680868994E-18
 -0.650521303491E-18
 -0.758941520740E-17
 -0.867361737988E-18
 -0.867361737988E-18
 -0.433680868994E-17
  0.433680868994E-17
  0.954097911787E-17
  0.225514051877E-16
  0.867361737988E-17
  0.216840434497E-16
  0.433680868994E-17
  0.173472347598E-17
 -0.867361737988E-17
 -0.234187669257E-16
 -0.138777878078E-16
  0.125767452008E-16
 -0.823993651089E-17
 -0.388957529379E-17
  0.346944695195E-17
 -0.164798730218E-16
  0.607153216592E-17
  0.607153216592E-17
 -0.121430643318E-16
 -0.225514051877E-16
 -0.364291929955E-16
  0.520417042793E-17
  0.346944695195E-17
  0.242861286637E-16
 -0.346944695195E-17
  0.208166817117E-16
  0.346944695195E-16
 -0.138777878078E-16
  0.416333634234E-16
  0.138777878078E-16
  0.138777878078E-16
 -0.346944695195E-17
 -0.277555756156E-16
  0.104083408559E-16
  0.138777878078E-16
 -0.208166817117E-16
 -0.346944695195E-17
 -0.121430643318E-16
 -0.693889390391E-17
  0.000000000000E+00
  0.520417042793E-17
  0.000000000000E+00
 -0.173472347598E-17
 -0.520417042793E-17
 -0.693889390391E-17
  0.346944695195E-17
 -0.433680868994E-17
 -0.433680868994E-17
 -0.173472347598E-17
  0.264762170521E-15
  0.227682456222E-17
  0.514996031931E-18
  0.431897172910E-17
  0.433680868994E-18
  0.205998412772E-17
 -0.224863530573E-15
  0.260208521397E-17
 -0.260208521397E-17
 -0.780625564190E-17
  0.867361737988E-18
 -0.867361737988E-18
 -0.867361737988E-17
 -0.520417042793E-17
 -0.520417042793E-17
  0.693889390391E-17
  0.173472347598E-17
  0.173472347598E-16
  0.867361737988E-17
 -0.138777878078E-16
 -0.346944695195E-17
  0.173472347598E-16
  0.104083408559E-16
 -0.346944695195E-17
  0.138777878078E-16
 -0.693889390391E-17
  0.242861286637E-16
  0.138777878078E-16
 -0.138777878078E-16
 -0.138777878078E-16
  0.000000000000E+00
 -0.277555756156E-16
  0.346944695195E-17
  0.277555756156E-16
 -0.364291929955E-16
  0.520417042793E-17
  0.520417042793E-17
  0.000000000000E+00
 -0.164798730218E-16
  0.520417042793E-17
 -0.117093834628E-16
 -0.737257477290E-17
  0.178893358460E-17
 -0.151788304148E-17
  0.303576608296E-17
 -0.650521303491E-17
 -0.867361737988E-18
  0.164798730218E-16
  0.346944695195E-17
  0.303576608296E-16
 -0.398986399475E-16
 -0.364291929955E-16
 -0.693889390391E-17
  0.208166817117E-16
 -0.303576608296E-16
  0.130104260698E-16
 -0.520417042793E-17
 -0.216840434497E-17
 -0.281892564846E-17
 -0.211927643403E-17
  0.520417042793E-17
  0.780625564190E-17
 -0.867361737988E-18
 -0.520417042793E-17
  0.190819582357E-16
 -0.329597460436E-16
 -0.173472347598E-16
  0.138777878078E-16
 -0.485722573274E-16
  0.451028103754E-16
 -0.693889390391E-17
 -0.138777878078E-16
  0.138777878078E-16
  0.346944695195E-17
 -0.138777878078E-16
  0.104083408559E-16
  0.000000000000E+00
 -0.346944695195E-17
  0.104083408559E-16
 -0.381639164715E-16
 -0.346944695195E-17
 -0.346944695195E-17
 -0.104083408559E-16
 -0.346944695195E-17
  0.104083408559E-16
 -0.693889390391E-17
 -0.693889390391E-17
  0.173472347598E-17
  0.867361737988E-17
  0.693889390391E-17
 -0.346944695195E-17
  0.867361737988E-18
  0.867361737988E-18
  0.910729824888E-17
  0.780625564190E-17
  0.325260651746E-17
  0.677626357803E-18
  0.252071476150E-15
  0.813151629364E-18
  0.314418630021E-17
  0.563785129692E-17
  0.117093834628E-16
  0.607153216592E-17
 -0.260208521397E-17
  0.000000000000E+00
  0.000000000000E+00
  0.346944695195E-17
 -0.104083408559E-16
  0.173472347598E-17
 -0.173472347598E-16
 -0.867361737988E-17
  0.208166817117E-16
  0.346944695195E-17
  0.693889390391E-17
 -0.104083408559E-16
 -0.242861286637E-16
  0.381639164715E-16
  0.104083408559E-16
  0.173472347598E-16
 -0.242861286637E-16
  0.104083408559E-16
  0.208166817117E-16
  0.346944695195E-17
  0.693889390391E-17
 -0.346944695195E-17
  0.173472347598E-16
 -0.346944695195E-17
 -0.156125112838E-16
 -0.260208521397E-16
 -0.104083408559E-16
 -0.693889390391E-17
  0.277555756156E-16
 -0.260208521397E-17
 -0.693889390391E-17
 -0.303576608296E-17
  0.162969139052E-17
  0.498732999343E-17
  0.737257477290E-17
 -0.433680868994E-18
  0.104083408559E-16
 -0.173472347598E-16
  0.346944695195E-17
  0.104083408559E-16
  0.147451495458E-16
  0.182145964978E-16
 -0.199493199737E-16
 -0.520417042793E-17
 -0.156125112838E-16
 -0.867361737988E-17
 -0.169135538908E-16
  0.433680868994E-18
 -0.390312782095E-17
 -0.184314369323E-17
  0.173472347598E-17
 -0.650521303491E-17
 -0.173472347598E-17
 -0.346944695195E-17
  0.104083408559E-16
  0.416333634234E-16
 -0.867361737988E-17
  0.104083408559E-16
 -0.208166817117E-16
  0.104083408559E-16
  0.104083408559E-16
 -0.208166817117E-16
  0.346944695195E-16
  0.000000000000E+00
  0.277555756156E-16
  0.138777878078E-16
  0.208166817117E-16
  0.693889390391E-17
  0.000000000000E+00
  0.208166817117E-16
  0.693889390391E-17
  0.346944695195E-17
 -0.277555756156E-16
  0.000000000000E+00
  0.173472347598E-17
 -0.225514051877E-16
 -0.173472347598E-17
 -0.173472347598E-17
 -0.520417042793E-17
  0.346944695195E-17
  0.173472347598E-17
  0.693889390391E-17
  0.121430643318E-16
  0.780625564190E-17
  0.346944695195E-17
  0.867361737988E-18
  0.336899564836E-15
  0.921571846613E-18
  0.357786716920E-17
  0.823993651089E-17
  0.138777878078E-16
  0.190819582357E-16
  0.173472347598E-17
  0.693889390391E-17
  0.000000000000E+00
  0.867361737988E-17
 -0.346944695195E-17
 -0.693889390391E-17
  0.693889390391E-17
 -0.346944695195E-17
 -0.346944695195E-17
 -0.173472347598E-16
  0.693889390391E-17
  0.208166817117E-16
  0.346944695195E-17
  0.346944695195E-17
  0.312250225676E-16
  0.138777878078E-16
  0.208166817117E-16
 -0.381639164715E-16
  0.138777878078E-16
 -0.173472347598E-16
  0.589805981832E-16
  0.312250225676E-16
 -0.381639164715E-16
 -0.346944695195E-17
 -0.138777878078E-16
  0.173472347598E-17
 -0.173472347598E-16
  0.173472347598E-16
  0.780625564190E-17
  0.867361737988E-18
 -0.650521303491E-17
  0.254787510534E-17
 -0.520417042793E-17
  0.390312782095E-17
  0.108420217249E-16
 -0.260208521397E-17
  0.867361737988E-17
  0.182145964978E-16
  0.867361737988E-18
  0.104083408559E-16
 -0.607153216592E-17
  0.164798730218E-16
 -0.112757025938E-16
  0.433680868994E-17
 -0.867361737988E-17
  0.737257477290E-17
 -0.737257477290E-17
  0.411996825544E-17
 -0.276471553984E-17
 -0.520417042793E-17
  0.346944695195E-17
  0.867361737988E-18
  0.164798730218E-16
 -0.225514051877E-16
 -0.294902990916E-16
  0.173472347598E-16
  0.208166817117E-16
 -0.277555756156E-16
  0.346944695195E-17
  0.693889390391E-17
  0.312250225676E-16
  0.312250225676E-16
  0.693889390391E-17
  0.693889390391E-17
  0.346944695195E-16
 -0.242861286637E-16
  0.000000000000E+00
 -0.104083408559E-16
 -0.104083408559E-16
  0.173472347598E-16
 -0.208166817117E-16
  0.173472347598E-16
  0.104083408559E-16
  0.000000000000E+00
  0.173472347598E-17
  0.520417042793E-17
 -0.173472347598E-17
 -0.173472347598E-17
  0.867361737988E-18
 -0.173472347598E-17
  0.433680868994E-17
 -0.867361737988E-18
  0.108420217249E-18
  0.000000000000E+00
  0.441876371599E-15
  0.813151629364E-19
  0.000000000000E+00
 -0.867361737988E-18
  0.867361737988E-18
  0.173472347598E-17
  0.000000000000E+00
 -0.104083408559E-16
 -0.346944695195E-17
 -0.121430643318E-16
 -0.693889390391E-17
  0.520417042793E-17
  0.138777878078E-16
  0.346944695195E-16
 -0.242861286637E-16
  0.104083408559E-16
  0.104083408559E-16
 -0.173472347598E-16
  0.138777878078E-16
 -0.693889390391E-17
  0.138777878078E-16
  0.138777878078E-16
 -0.242861286637E-16
  0.208166817117E-16
 -0.138777878078E-16
  0.138777878078E-16
 -0.138777878078E-16
  0.104083408559E-16
  0.242861286637E-16
  0.173472347598E-17
  0.398986399475E-16
 -0.173472347598E-17
  0.164798730218E-16
 -0.867361737988E-18
 -0.563785129692E-17
 -0.173472347598E-17
  0.108420217249E-17
  0.867361737988E-18
 -0.173472347598E-17
 -0.303576608296E-17
  0.173472347598E-17
 -0.520417042793E-17
 -0.954097911787E-17
  0.954097911787E-17
 -0.104083408559E-16
 -0.242861286637E-16
  0.260208521397E-17
  0.607153216592E-17
  0.346944695195E-17
 -0.286229373536E-16
  0.607153216592E-17
 -0.216840434497E-17
 -0.390312782095E-17
 -0.227682456222E-17
  0.910729824888E-17
 -0.520417042793E-17
  0.173472347598E-17
 -0.173472347598E-16
 -0.173472347598E-17
  0.277555756156E-16
 -0.294902990916E-16
 -0.104083408559E-16
 -0.242861286637E-16
 -0.104083408559E-16
 -0.346944695195E-17
  0.693889390391E-17
  0.346944695195E-17
 -0.277555756156E-16
  0.138777878078E-16
 -0.693889390391E-17
  0.138777878078E-16
 -0.693889390391E-17
 -0.242861286637E-16
  0.173472347598E-16
 -0.173472347598E-16
 -0.104083408559E-16
 -0.104083408559E-16
  0.693889390391E-17
  0.346944695195E-17
  0.693889390391E-17
 -0.520417042793E-17
 -0.693889390391E-17
 -0.173472347598E-17
 -0.173472347598E-17
  0.216840434497E-17
 -0.867361737988E-18
 -0.108420217249E-17
 -0.108420217249E-18
  0.155444823734E-16
 -0.108420217249E-18
 -0.542101086243E-18
 -0.433680868994E-18
  0.433680868994E-18
  0.867361737988E-18
 -0.260208521397E-17
 -0.346944695195E-17
  0.173472347598E-17
 -0.346944695195E-17
 -0.173472347598E-17
  0.000000000000E+00
  0.346944695195E-17
  0.000000000000E+00
 -0.173472347598E-16
  0.277555756156E-16
  0.138777878078E-16
  0.173472347598E-16
  0.346944695195E-17
 -0.346944695195E-17
 -0.173472347598E-16
 -0.312250225676E-16
 -0.104083408559E-16
  0.000000000000E+00
  0.693889390391E-17
  0.208166817117E-16
 -0.312250225676E-16
  0.346944695195E-17
 -0.208166817117E-16
  0.693889390391E-17
  0.156125112838E-16
 -0.121430643318E-16
 -0.346944695195E-17
  0.173472347598E-17
  0.130104260698E-17
  0.303576608296E-17
 -0.238524477947E-17
 -0.563785129692E-17
  0.997465998687E-17
 -0.693889390391E-17
 -0.164798730218E-16
  0.433680868994E-17
 -0.520417042793E-17
  0.520417042793E-17
 -0.260208521397E-16
  0.954097911787E-17
 -0.294902990916E-16
 -0.173472347598E-16
 -0.147451495458E-16
  0.867361737988E-18
  0.216840434497E-17
  0.542101086243E-18
  0.650521303491E-18
 -0.607153216592E-17
  0.112757025938E-16
 -0.867361737988E-18
 -0.156125112838E-16
 -0.329597460436E-16
  0.173472347598E-17
 -0.173472347598E-17
  0.485722573274E-16
  0.589805981832E-16
  0.138777878078E-16
  0.277555756156E-16
  0.555111512313E-16
 -0.312250225676E-16
  0.104083408559E-16
 -0.451028103754E-16
 -0.693889390391E-17
  0.277555756156E-16
  0.138777878078E-16
 -0.346944695195E-16
 -0.346944695195E-17
 -0.277555756156E-16
 -0.138777878078E-16
 -0.693889390391E-17
 -0.346944695195E-17
 -0.190819582357E-16
  0.000000000000E+00
  0.520417042793E-17
  0.693889390391E-17
 -0.867361737988E-18
  0.433680868994E-18
 -0.867361737988E-18
 -0.433680868994E-18
  0.542101086243E-19
 -0.198215157611E-18
 -0.542101086243E-19
  0.000000000000E+00
 -0.433680868994E-18
 -0.867361737988E-18
  0.867361737988E-18
  0.693889390391E-17
  0.346944695195E-17
  0.693889390391E-17
 -0.346944695195E-17
 -0.104083408559E-16
  0.104083408559E-16
 -0.138777878078E-16
  0.693889390391E-17
  0.000000000000E+00
  0.104083408559E-16
  0.104083408559E-16
  0.346944695195E-16
 -0.693889390391E-17
  0.346944695195E-17
 -0.104083408559E-16
 -0.312250225676E-16
  0.277555756156E-16
 -0.138777878078E-16
  0.277555756156E-16
  0.346944695195E-16
  0.277555756156E-16
  0.693889390391E-17
  0.225514051877E-16
 -0.190819582357E-16
 -0.104083408559E-16
 -0.693889390391E-17
  0.251534904017E-16
  0.000000000000E+00
 -0.162630325873E-17
  0.119262238973E-17
  0.867361737988E-18
 -0.477048955894E-17
 -0.346944695195E-17
 -0.156125112838E-16
 -0.164798730218E-16
  0.251534904017E-16
  0.138777878078E-16
  0.216840434497E-16
 -0.433680868994E-17
 -0.138777878078E-16
  0.000000000000E+00
  0.121430643318E-16
 -0.477048955894E-17
  0.216840434497E-17
 -0.558364118830E-17
 -0.758941520740E-17
  0.260208521397E-17
 -0.260208521397E-17
 -0.260208521397E-17
  0.346944695195E-17
  0.242861286637E-16
  0.416333634234E-16
  0.832667268469E-16
 -0.312250225676E-16
  0.451028103754E-16
  0.693889390391E-17
 -0.242861286637E-16
  0.312250225676E-16
 -0.208166817117E-16
  0.346944695195E-17
  0.208166817117E-16
  0.346944695195E-17
  0.346944695195E-16
  0.693889390391E-16
 -0.346944695195E-17
 -0.693889390391E-17
 -0.242861286637E-16
 -0.173472347598E-16
  0.693889390391E-17
  0.104083408559E-16
  0.346944695195E-17
  0.520417042793E-17
 -0.104083408559E-16
  0.260208521397E-17
  0.260208521397E-17
 -0.867361737988E-18
 -0.108420217249E-18
 -0.108420217249E-18
  0.258212519069E-18
  0.000000000000E+00
 -0.216840434497E-18
  0.000000000000E+00
 -0.173472347598E-17
 -0.433680868994E-17
  0.346944695195E-17
  0.173472347598E-17
  0.000000000000E+00
  0.173472347598E-17
 -0.346944695195E-17
 -0.346944695195E-17
 -0.242861286637E-16
  0.693889390391E-17
  0.346944695195E-17
  0.208166817117E-16
 -0.277555756156E-16
  0.208166817117E-16
  0.173472347598E-16
  0.346944695195E-17
  0.000000000000E+00
 -0.173472347598E-16
 -0.346944695195E-16
  0.555111512313E-16
  0.381639164715E-16
 -0.416333634234E-16
  0.138777878078E-16
  0.867361737988E-17
  0.208166817117E-16
  0.173472347598E-16
  0.780625564190E-17
  0.000000000000E+00
  0.823993651089E-17
  0.650521303491E-18
 -0.214129929066E-17
 -0.433680868994E-18
 -0.173472347598E-17
 -0.190819582357E-16
  0.121430643318E-16
  0.173472347598E-17
 -0.199493199737E-16
 -0.520417042793E-17
 -0.104083408559E-16
 -0.693889390391E-17
  0.867361737988E-18
 -0.780625564190E-17
 -0.173472347598E-17
 -0.650521303491E-17
 -0.455364912444E-17
 -0.130104260698E-17
  0.216840434497E-17
 -0.112757025938E-16
 -0.112757025938E-16
 -0.433680868994E-17
  0.104083408559E-16
  0.156125112838E-16
 -0.173472347598E-17
  0.242861286637E-16
  0.242861286637E-16
  0.104083408559E-16
 -0.277555756156E-16
  0.381639164715E-16
 -0.312250225676E-16
 -0.693889390391E-17
  0.208166817117E-16
  0.589805981832E-16
  0.624500451352E-16
  0.277555756156E-16
  0.000000000000E+00
  0.138777878078E-16
 -0.346944695195E-17
  0.693889390391E-17
  0.346944695195E-17
 -0.208166817117E-16
  0.173472347598E-17
  0.520417042793E-17
  0.693889390391E-17
  0.520417042793E-17
  0.000000000000E+00
 -0.433680868994E-18
 -0.216840434497E-18
 -0.271050543121E-18
 -0.327206477814E-18
 -0.108420217249E-18
 -0.433680868994E-18
  0.000000000000E+00
  0.867361737988E-18
  0.000000000000E+00
 -0.346944695195E-17
  0.104083408559E-16
 -0.520417042793E-17
  0.104083408559E-16
  0.208166817117E-16
  0.693889390391E-17
 -0.104083408559E-16
  0.000000000000E+00
  0.346944695195E-17
  0.173472347598E-16
 -0.346944695195E-17
  0.693889390391E-17
  0.000000000000E+00
  0.277555756156E-16
  0.000000000000E+00
 -0.693889390391E-17
  0.173472347598E-16
  0.346944695195E-17
  0.346944695195E-17
 -0.555111512313E-16
 -0.312250225676E-16
 -0.173472347598E-16
  0.138777878078E-16
  0.173472347598E-17
  0.260208521397E-17
  0.520417042793E-17
  0.585469173142E-17
 -0.116551733542E-17
 -0.368628738645E-17
  0.108420217249E-16
  0.607153216592E-17
  0.147451495458E-16
 -0.260208521397E-17
 -0.693889390391E-17
 -0.164798730218E-16
 -0.346944695195E-17
  0.520417042793E-17
 -0.268882138776E-16
 -0.182145964978E-16
 -0.242861286637E-16
  0.867361737988E-18
 -0.520417042793E-17
 -0.113841228111E-17
  0.477048955894E-17
  0.182145964978E-16
  0.607153216592E-17
  0.138777878078E-16
 -0.190819582357E-16
 -0.173472347598E-17
  0.867361737988E-17
 -0.346944695195E-16
 -0.104083408559E-16
  0.277555756156E-16
 -0.242861286637E-16
 -0.138777878078E-16
  0.693889390391E-17
 -0.346944695195E-17
 -0.104083408559E-16
  0.208166817117E-16
 -0.173472347598E-16
  0.138777878078E-16
 -0.104083408559E-16
  0.138777878078E-16
  0.173472347598E-16
  0.312250225676E-16
 -0.693889390391E-17
  0.000000000000E+00
  0.000000000000E+00
 -0.693889390391E-17
  0.000000000000E+00
  0.260208521397E-17
  0.173472347598E-17
  0.650521303491E-18
  0.108420217249E-18
  0.205716070180E-19
  0.542101086243E-19
  0.000000000000E+00
  0.130104260698E-17
  0.867361737988E-18
 -0.867361737988E-18
  0.693889390391E-17
  0.104083408559E-16