# vtk DataFile Version 3.0
MachLine results file. Generated by MachLine, USU AeroLab (c) 2022.
ASCII
DATASET POLYDATA
POINTS                4925 float
  0.999999984036E+00  0.388900772603E-09 -0.166715517427E-26
  0.997896421841E+00  0.102598160305E-03  0.347625375860E-28
  0.991607275073E+00  0.409383944309E-03  0.389660658814E-28
  0.981197094187E+00  0.917195665298E-03 -0.434348071153E-28
  0.966772701729E+00  0.162082254499E-02  0.000000000000E+00
  0.948482111487E+00  0.251304446430E-02  0.524943906987E-28
  0.926513009669E+00  0.358470605143E-02 -0.113634752215E-27
  0.901090828991E+00  0.482481063082E-02  0.121734773611E-27
  0.872476435428E+00  0.622063306661E-02  0.645683735533E-28
  0.840963451381E+00  0.775785034190E-02  0.000000000000E+00
  0.806875242709E+00  0.942068853391E-02  0.000000000000E+00
  0.770561600564E+00  0.111920846767E-01  0.146053211166E-27
  0.732395152052E+00  0.130538618514E-01 -0.748349114928E-28
  0.692767536585E+00  0.149869157057E-01  0.760954372642E-28
  0.652085387120E+00  0.169714104914E-01 -0.767950719267E-28
  0.610766157565E+00  0.189869826057E-01 -0.153857257804E-27
  0.569233839126E+00  0.210129495492E-01  0.000000000000E+00
  0.527914609594E+00  0.230285221564E-01  0.755179292323E-28
  0.487232460178E+00  0.250130179199E-01  0.740063007757E-28
  0.447604844781E+00  0.269460732205E-01  0.719960137943E-28
  0.409438396361E+00  0.288078522846E-01  0.139063393434E-27
  0.373124754328E+00  0.305792507237E-01 -0.133347410001E-27
  0.339036545785E+00  0.322420915705E-01  0.127004532701E-27
  0.307523561882E+00  0.337793117955E-01  0.601226726246E-28
  0.278909168474E+00  0.351751373947E-01  0.000000000000E+00
  0.253486987955E+00  0.364152452520E-01 -0.106613947796E-27
  0.231517886298E+00  0.374869101211E-01  0.100416119397E-27
  0.213227296198E+00  0.383791349455E-01  0.000000000000E+00
  0.198802903962E+00  0.390827663831E-01  0.000000000000E+00
  0.188392723342E+00  0.395905835714E-01  0.517428216565E-28
  0.182103576692E+00  0.398973717624E-01  0.498830072231E-28
  0.180000003222E+00  0.399999805892E-01  0.000000000000E+00
  0.178632701100E+00  0.396961400815E-01 -0.217844287741E-24
  0.174572338753E+00  0.387938394476E-01 -0.943014823208E-25
  0.167942290091E+00  0.373204912006E-01  0.818082711166E-25
  0.158944003911E+00  0.353208707253E-01  0.879260136542E-25
  0.147850888484E+00  0.328557359406E-01  0.118189075597E-24
  0.135000004299E+00  0.299999806552E-01  0.000000000000E+00
  0.120781817275E+00  0.268403831763E-01  0.000000000000E+00
  0.105628340411E+00  0.234729436586E-01  0.964465709513E-25
  0.900000044261E-01  0.199999800828E-01 -0.965558777192E-25
  0.743716683974E-01  0.165270167033E-01  0.957130173537E-25
  0.592181914106E-01  0.131595777390E-01  0.000000000000E+00
  0.450000042082E-01  0.999998106296E-02  0.918040644903E-25
  0.321491194087E-01  0.714422854400E-02 -0.700355466715E-25
  0.210560041253E-01  0.467909311055E-02  0.131088965975E-24
  0.120577169513E-01  0.267947711093E-02 -0.107719724022E-24
  0.542766748551E-02  0.120613248121E-02 -0.109826285604E-24
  0.136730557051E-02  0.303829902508E-03  0.109347640566E-24
  0.151873150561E-07 -0.000000000000E+00  0.000000000000E+00
  0.136730557051E-02 -0.303829902508E-03  0.109347640566E-24
  0.542766748551E-02 -0.120613248121E-02 -0.109826285604E-24
  0.120577169513E-01 -0.267947711093E-02 -0.107719724022E-24
  0.210560041253E-01 -0.467909311055E-02  0.131088965975E-24
  0.321491194087E-01 -0.714422854400E-02  0.000000000000E+00
  0.450000042082E-01 -0.999998106296E-02 -0.183608128981E-24
  0.592181914106E-01 -0.131595777390E-01 -0.188043339417E-24
  0.743716683974E-01 -0.165270167033E-01  0.957130173537E-25
  0.900000044261E-01 -0.199999800828E-01 -0.965558777192E-25
  0.105628340411E+00 -0.234729436586E-01 -0.289339712854E-24
  0.120781817275E+00 -0.268403831763E-01  0.000000000000E+00
  0.135000004299E+00 -0.299999806552E-01 -0.937806959355E-25
  0.147850888484E+00 -0.328557359406E-01  0.118189075597E-24
  0.158944003911E+00 -0.353208707253E-01  0.175852027308E-24
  0.167942290091E+00 -0.373204912006E-01  0.818082711166E-25
  0.174572338753E+00 -0.387938394476E-01 -0.943014823208E-25
  0.178632701100E+00 -0.396961400815E-01  0.726147625803E-25
  0.180000003222E+00 -0.399999805892E-01  0.458318572122E-25
  0.182103576692E+00 -0.398973717624E-01  0.000000000000E+00
  0.188392723342E+00 -0.395905835714E-01  0.000000000000E+00
  0.198802903962E+00 -0.390827663831E-01 -0.317928378017E-28
  0.213227296198E+00 -0.383791349455E-01  0.000000000000E+00
  0.231517886298E+00 -0.374869101211E-01 -0.150624179095E-27
  0.253486987955E+00 -0.364152452520E-01  0.000000000000E+00
  0.278909168474E+00 -0.351751373947E-01  0.113339695142E-27
  0.307523561882E+00 -0.337793117955E-01  0.120245345249E-27
  0.339036545785E+00 -0.322420915705E-01  0.635022663504E-28
  0.373124754328E+00 -0.305792507237E-01 -0.666737050007E-28
  0.409438396361E+00 -0.288078522846E-01  0.000000000000E+00
  0.447604844781E+00 -0.269460732205E-01  0.000000000000E+00
  0.487232460178E+00 -0.250130179199E-01  0.000000000000E+00
  0.527914609594E+00 -0.230285221564E-01  0.000000000000E+00
  0.569233839126E+00 -0.210129495492E-01  0.000000000000E+00
  0.610766157565E+00 -0.189869826057E-01 -0.769286289021E-28
  0.652085387120E+00 -0.169714104914E-01  0.767950719267E-28
  0.692767536585E+00 -0.149869157057E-01  0.000000000000E+00
  0.732395152052E+00 -0.130538618514E-01 -0.748349114928E-28
  0.770561600564E+00 -0.111920846767E-01 -0.730266055831E-28
  0.806875242709E+00 -0.942068853391E-02  0.000000000000E+00
  0.840963451381E+00 -0.775785034190E-02 -0.135718745658E-27
  0.872476435428E+00 -0.622063306661E-02  0.129136747107E-27
  0.901090828991E+00 -0.482481063082E-02  0.000000000000E+00
  0.926513009669E+00 -0.358470605143E-02  0.000000000000E+00
  0.948482111487E+00 -0.251304446430E-02  0.000000000000E+00
  0.966772701729E+00 -0.162082254499E-02  0.000000000000E+00
  0.981197094187E+00 -0.917195665298E-03  0.000000000000E+00
  0.991607275073E+00 -0.409383944309E-03 -0.389660658814E-28
  0.997896421841E+00 -0.102598160305E-03  0.000000000000E+00
  0.100002581224E+01  0.275008916786E-09  0.205412599965E-01
  0.997965175533E+00  0.100504295843E-03  0.205412599832E-01
  0.991804378709E+00  0.401029348797E-03  0.205412599833E-01
  0.981606650501E+00  0.898477706970E-03  0.205412599834E-01
  0.967476633404E+00  0.158774494173E-02  0.205412599835E-01
  0.949559320516E+00  0.246175829457E-02  0.205412599837E-01
  0.928038567715E+00  0.351154924754E-02  0.205412599838E-01
  0.903135207050E+00  0.472634555357E-02  0.205412599839E-01
  0.875104780700E+00  0.609368177763E-02  0.205412599840E-01
  0.844234918774E+00  0.759952721210E-02  0.205412599841E-01
  0.810842387826E+00  0.922842985328E-02  0.205412599842E-01
  0.775269840414E+00  0.109636749614E-01  0.205412599842E-01
  0.737882299010E+00  0.127874565774E-01  0.205412599843E-01
  0.699063410383E+00  0.146810602368E-01  0.205412599843E-01
  0.659211508861E+00  0.166250550055E-01  0.205412599844E-01
  0.618735528881E+00  0.185994928677E-01  0.205412599844E-01
  0.578050808772E+00  0.205841134188E-01  0.205412599844E-01
  0.537574828816E+00  0.225585517654E-01  0.205412599843E-01
  0.497722927341E+00  0.245025474952E-01  0.205412599843E-01
  0.458904038784E+00  0.263961525767E-01  0.205412599843E-01
  0.421516497471E+00  0.282199360516E-01  0.205412599842E-01
  0.385943950168E+00  0.299551834224E-01  0.205412599841E-01
  0.352551419349E+00  0.315840886867E-01  0.205412599840E-01
  0.321681557565E+00  0.330899370489E-01  0.205412599840E-01
  0.293651131370E+00  0.344572764353E-01  0.205412599839E-01
  0.268747770866E+00  0.356720760507E-01  0.205412599838E-01
  0.247227018211E+00  0.367218699880E-01  0.205412599837E-01
  0.229309705547E+00  0.375958879294E-01  0.205412599835E-01
  0.215179688652E+00  0.382851593180E-01  0.205412599834E-01
  0.204981960606E+00  0.387826109964E-01  0.205412599833E-01
  0.198821164004E+00  0.390831405965E-01  0.205412599831E-01
  0.196760519019E+00  0.391836541551E-01  0.205412578968E-01
  0.195259373450E+00  0.388500709268E-01  0.205412568230E-01
  0.190807051636E+00  0.378606669755E-01  0.205412570118E-01
  0.183555174671E+00  0.362491355396E-01  0.205412563332E-01
  0.173750695311E+00  0.340703608777E-01  0.205412560234E-01
  0.161727493505E+00  0.313985377948E-01  0.205412559266E-01
  0.147895005432E+00  0.283246499544E-01  0.205412555891E-01
  0.132724279272E+00  0.249533776663E-01  0.205412556295E-01
  0.116731936360E+00  0.213995235358E-01  0.205412555979E-01
  0.100462576625E+00  0.177841103817E-01  0.205412556233E-01
  0.844702336026E-01  0.142302567507E-01  0.205412557021E-01
  0.692995073644E-01  0.108589848153E-01  0.205412558205E-01
  0.554670188180E-01  0.778509910428E-02  0.205412559537E-01
  0.434438169413E-01  0.511327634248E-02  0.205412559279E-01
  0.336393363985E-01  0.293450699785E-02  0.205412567936E-01
  0.263874589714E-01  0.132297764469E-02  0.205412565753E-01
  0.219351368403E-01  0.333575118491E-03  0.205412570792E-01
  0.204340018489E-01  0.328470803654E-23  0.205412450041E-01
  0.219351368403E-01 -0.333575118491E-03  0.205412570792E-01
  0.263874589714E-01 -0.132297764469E-02  0.205412565753E-01
  0.336393363985E-01 -0.293450699785E-02  0.205412567936E-01
  0.434438169413E-01 -0.511327634248E-02  0.205412559279E-01
  0.554670188180E-01 -0.778509910428E-02  0.205412559537E-01
  0.692995073644E-01 -0.108589848153E-01  0.205412558205E-01
  0.844702336026E-01 -0.142302567507E-01  0.205412557021E-01
  0.100462576625E+00 -0.177841103817E-01  0.205412556233E-01
  0.116731936360E+00 -0.213995235358E-01  0.205412555979E-01
  0.132724279272E+00 -0.249533776663E-01  0.205412556295E-01
  0.147895005432E+00 -0.283246499544E-01  0.205412555891E-01
  0.161727493505E+00 -0.313985377948E-01  0.205412559266E-01
  0.173750695311E+00 -0.340703608777E-01  0.205412560234E-01
  0.183555174671E+00 -0.362491355396E-01  0.205412563332E-01
[...]
POINT_DATA                4925
SCALARS phi float 1
LOOKUP_TABLE default
 -0.215105711021E-15
 -0.363424568217E-15
 -0.147451495458E-15
 -0.146584133720E-15
 -0.312250225676E-15
 -0.217707796235E-15
 -0.173472347598E-15
  0.355618312575E-16
  0.103216046821E-15
  0.303576608296E-16
  0.631005664387E-16
  0.287381338344E-16
  0.253703308362E-16
 -0.624500451352E-16
 -0.797972798949E-16
 -0.520417042793E-16
  0.615826833972E-16
 -0.737257477290E-16
  0.867361737988E-17
 -0.208166817117E-16
  0.156125112838E-16
  0.867361737988E-17
  0.346944695195E-17
  0.346944695195E-17
  0.138777878078E-16
  0.104083408559E-16
  0.173472347598E-16
  0.693889390391E-17
  0.242861286637E-16
  0.797972798949E-16
  0.138777878078E-16
 -0.867361737988E-17
 -0.693889390391E-17
 -0.173472347598E-17
 -0.173472347598E-16
  0.867361737988E-17
  0.000000000000E+00
  0.346944695195E-17
  0.173472347598E-17
 -0.433680868994E-17
  0.867361737988E-18
  0.867361737988E-18
  0.867361737988E-18
 -0.433680868994E-18
 -0.173472347598E-17
 -0.129952472394E-14
 -0.242210765333E-14
  0.533281318410E-12
  0.151480162642E-10
 -0.445167937121E-15
 -0.870976457189E-11
 -0.228923867709E-12
 -0.148709169978E-14
 -0.270530126079E-14
 -0.433680868994E-18
  0.173472347598E-17
 -0.173472347598E-17
  0.520417042793E-17
  0.693889390391E-17
 -0.520417042793E-17
  0.000000000000E+00
  0.000000000000E+00
 -0.173472347598E-17
 -0.693889390391E-17
 -0.173472347598E-16
 -0.242861286637E-16
 -0.138777878078E-16
  0.104083408559E-16
  0.173472347598E-16
  0.104083408559E-15
  0.520417042793E-16
  0.242861286637E-16
 -0.346944695195E-17
  0.000000000000E+00
  0.242861286637E-16
  0.000000000000E+00
  0.208166817117E-16
 -0.416333634234E-16
 -0.693889390391E-17
 -0.346944695195E-16
 -0.104083408559E-16
 -0.225514051877E-16
 -0.173472347598E-17
 -0.520417042793E-16
  0.117961196366E-15
 -0.633174068732E-16
 -0.338271077815E-16
  0.164798730218E-15
 -0.876035355368E-16
 -0.596311194867E-16
  0.814235831537E-16
  0.897719398818E-16
 -0.650521303491E-17
  0.187350135405E-15
  0.659194920871E-16
  0.120563281580E-15
  0.142247325030E-15
  0.693889390391E-17
 -0.222911966663E-15
 -0.366026653431E-15
 -0.175207071074E-15
 -0.290566182226E-15
 -0.156992474576E-15
  0.954097911787E-17
 -0.158727198052E-15
 -0.160461921528E-15
 -0.158293517183E-15
 -0.472712147204E-16
  0.186482773668E-16
 -0.177538105745E-16
 -0.175640751943E-16
 -0.156125112838E-16
  0.381639164715E-16
  0.416333634234E-16
  0.303576608296E-16
  0.650521303491E-16
  0.000000000000E+00
 -0.138777878078E-16
  0.260208521397E-16
 -0.173472347598E-17
  0.520417042793E-17
  0.346944695195E-17
  0.138777878078E-16
  0.000000000000E+00
  0.104083408559E-16
  0.277555756156E-16
  0.173472347598E-17
  0.797972798949E-16
  0.381639164715E-16
 -0.104083408559E-16
 -0.398986399475E-16
  0.104083408559E-16
  0.000000000000E+00
  0.867361737988E-17
  0.173472347598E-17
  0.693889390391E-17
  0.346944695195E-17
  0.000000000000E+00
 -0.433680868994E-17
 -0.867361737988E-18
  0.260208521397E-17
  0.867361737988E-18
 -0.255871712707E-15
 -0.403323208165E-15
  0.181843906252E-12
  0.930031876165E-13
  0.347677916635E-12
 -0.694162067237E-13
 -0.157247478927E-12
 -0.195590071916E-15
 -0.516080234103E-15
  0.346944695195E-17
 -0.173472347598E-17
 -0.346944695195E-17
 -0.520417042793E-17
  0.693889390391E-17
 -0.346944695195E-17
  0.000000000000E+00
 -0.693889390391E-17
  0.000000000000E+00
 -0.242861286637E-16
  0.693889390391E-17
 -0.624500451352E-16
 -0.555111512313E-16
  0.346944695195E-17
  0.100613961607E-15
  0.312250225676E-16
  0.277555756156E-16
 -0.277555756156E-16
  0.000000000000E+00
 -0.346944695195E-17
 -0.208166817117E-16
 -0.346944695195E-16
 -0.381639164715E-16
 -0.693889390391E-16
  0.485722573274E-16
 -0.208166817117E-16
  0.329597460436E-16
 -0.624500451352E-16
  0.381639164715E-16
  0.208166817117E-16
  0.520417042793E-16
 -0.494396190653E-16
 -0.537764277553E-16
  0.516080234103E-16
 -0.150270421106E-15
 -0.284060969191E-16
 -0.100613961607E-15
  0.116660153759E-15
  0.910729824888E-16
  0.641847686111E-16
  0.867361737988E-17
  0.135308431126E-15
 -0.693889390391E-17
 -0.425874613352E-15
 -0.494396190653E-16
 -0.313984949152E-15
 -0.468375338514E-16
 -0.719910242530E-16
 -0.216840434497E-15
 -0.728583859910E-16
 -0.251534904017E-15
  0.533427468863E-16
 -0.641847686111E-16
 -0.234838190560E-15
  0.867361737988E-18
  0.375133951680E-16
  0.242861286637E-16
  0.290566182226E-16
  0.208166817117E-16
  0.997465998687E-16
  0.650521303491E-16
  0.867361737988E-17
  0.242861286637E-16
 -0.520417042793E-17
 -0.138777878078E-16
 -0.346944695195E-17
 -0.156125112838E-16
  0.208166817117E-16
 -0.312250225676E-16
  0.190819582357E-16
  0.000000000000E+00
  0.346944695195E-17
  0.000000000000E+00
  0.000000000000E+00
 -0.381639164715E-16
 -0.485722573274E-16
  0.346944695195E-17
  0.693889390391E-17
 -0.173472347598E-17
 -0.138777878078E-16
 -0.346944695195E-17
  0.693889390391E-17
 -0.173472347598E-17
  0.173472347598E-17
 -0.260208521397E-17
  0.520417042793E-17
  0.398986399475E-16
  0.812717948495E-15
  0.974914593499E-15
  0.245951262828E-15
  0.277973167400E-13
  0.191632733987E-15
  0.759158361174E-15
  0.136913050341E-14
  0.220309881449E-15
  0.113945311520E-13
  0.173472347598E-17
 -0.693889390391E-17
 -0.346944695195E-17
  0.346944695195E-17
  0.104083408559E-16
  0.346944695195E-17
  0.693889390391E-17
  0.277555756156E-16
  0.346944695195E-17
 -0.763278329430E-16
 -0.520417042793E-16
 -0.277555756156E-16
  0.173472347598E-16
  0.381639164715E-16
  0.173472347598E-16
  0.000000000000E+00
 -0.693889390391E-17
 -0.104083408559E-16
  0.000000000000E+00
 -0.416333634234E-16
  0.693889390391E-17
  0.693889390391E-17
 -0.555111512313E-16
 -0.555111512313E-16
  0.346944695195E-16
 -0.312250225676E-16
 -0.190819582357E-16
 -0.520417042793E-17
 -0.416333634234E-16
  0.867361737988E-18
 -0.503069808033E-16
  0.127935856353E-15
  0.895550994473E-16
  0.395733792957E-16
  0.111455983332E-15
 -0.529090660173E-16
  0.711236625150E-16
  0.223779328401E-15
  0.285362011798E-15
  0.416333634234E-16
  0.246330733589E-15
 -0.187350135405E-15
 -0.197758476261E-15
 -0.203830008427E-15
 -0.980118763927E-16
 -0.162196645004E-15
 -0.398986399475E-16
 -0.301841884820E-15
 -0.550774703623E-16
  0.390312782095E-16
  0.446691295064E-16
 -0.148752538065E-15
  0.805020113070E-17
 -0.487890977618E-16
 -0.108420217249E-16
 -0.732920668600E-16
 -0.121430643318E-16
  0.780625564190E-17
 -0.260208521397E-17
 -0.520417042793E-17
  0.190819582357E-16
  0.156125112838E-16
  0.156125112838E-16
 -0.520417042793E-17
  0.520417042793E-17
  0.190819582357E-16
  0.104083408559E-16
 -0.277555756156E-16
 -0.104083408559E-16
  0.104083408559E-16
 -0.277555756156E-16
 -0.693889390391E-17
 -0.138777878078E-16
  0.346944695195E-17
  0.104083408559E-16
  0.000000000000E+00
  0.173472347598E-17
  0.346944695195E-17
 -0.121430643318E-16
  0.693889390391E-17
 -0.867361737988E-17
 -0.173472347598E-17
  0.173472347598E-17
  0.297505076130E-15
  0.593622373479E-14
  0.621031004400E-15
  0.156341953272E-15
  0.616844406944E-13
  0.122081164622E-15
  0.484421530667E-15
  0.106902334207E-14
  0.951495826573E-15
  0.346944695195E-17
 -0.173472347598E-17
  0.173472347598E-17
 -0.104083408559E-16
  0.000000000000E+00
 -0.277555756156E-16
  0.277555756156E-16
 -0.242861286637E-16
  0.104083408559E-16
 -0.277555756156E-16
 -0.589805981832E-16
  0.173472347598E-16
  0.520417042793E-16
  0.346944695195E-16
 -0.173472347598E-16
 -0.346944695195E-16
 -0.346944695195E-17
 -0.346944695195E-16
 -0.416333634234E-16
  0.277555756156E-16
  0.520417042793E-16
  0.312250225676E-16
  0.416333634234E-16
  0.555111512313E-16
 -0.520417042793E-16
  0.277555756156E-16
  0.607153216592E-16
 -0.346944695195E-16
 -0.485722573274E-16
  0.182145964978E-16
  0.121430643318E-16
  0.607153216592E-17
  0.141922064378E-15
  0.436933475512E-16
  0.546437894933E-16
  0.377302356025E-16
  0.104950770297E-15
 -0.867361737988E-18
  0.184748050192E-15
  0.141379963292E-15
  0.182145964978E-16
 -0.248932818803E-15
 -0.239391839685E-15
 -0.234187669257E-15
 -0.245463371851E-15
 -0.336536354340E-15
 -0.217707796235E-15
 -0.945424294407E-16
  0.268882138776E-16
 -0.438017677684E-16
 -0.737257477290E-16
 -0.464038529824E-16
 -0.191903784530E-16
 -0.494396190653E-16
  0.611490025282E-16
 -0.425007251614E-16
 -0.338271077815E-16
  0.277555756156E-16
 -0.555111512313E-16
  0.520417042793E-17
  0.867361737988E-17
 -0.156125112838E-16
  0.867361737988E-17
 -0.121430643318E-16
 -0.173472347598E-16
  0.138777878078E-16
  0.173472347598E-16
  0.138777878078E-16
  0.346944695195E-16
 -0.693889390391E-17
  0.000000000000E+00
 -0.277555756156E-16
 -0.346944695195E-17
  0.000000000000E+00
  0.000000000000E+00
 -0.346944695195E-17
  0.693889390391E-17
  0.346944695195E-17
  0.000000000000E+00
 -0.346944695195E-17
 -0.346944695195E-17
  0.173472347598E-17
  0.157599627792E-14
  0.215452655716E-14
  0.974480912630E-15
  0.245788632502E-15
  0.356182630682E-13
  0.191307473335E-15
  0.757640478133E-15
  0.167834496301E-14
  0.267928040865E-14
 -0.693889390391E-17
 -0.173472347598E-17
  0.693889390391E-17
  0.173472347598E-16
 -0.346944695195E-17
  0.104083408559E-16
 -0.242861286637E-16
 -0.208166817117E-16
 -0.693889390391E-17
 -0.104083408559E-16
 -0.138777878078E-16
 -0.312250225676E-16
  0.728583859910E-16
  0.346944695195E-16
  0.242861286637E-16
 -0.173472347598E-16
  0.346944695195E-17
  0.693889390391E-17
  0.277555756156E-16
  0.451028103754E-16
  0.693889390391E-17
  0.728583859910E-16
 -0.173472347598E-16
  0.659194920871E-16
  0.138777878078E-16
  0.312250225676E-16
  0.104083408559E-16
  0.173472347598E-16
  0.867361737988E-17
  0.286229373536E-16
  0.659194920871E-16
  0.411996825544E-17
  0.236952384797E-15
  0.748099499015E-16
  0.880372164058E-16
  0.754604712050E-16
  0.138777878078E-16
  0.103216046821E-15
  0.980118763927E-16
  0.141379963292E-15
 -0.164798730218E-15
 -0.367761376907E-15
 -0.147451495458E-15
 -0.323525928270E-15
 -0.572458747072E-16
 -0.156125112838E-15
 -0.211636264069E-15
 -0.150920942410E-15
  0.107119174642E-15
  0.125767452008E-16
 -0.365376132128E-16
  0.000000000000E+00
  0.229850860567E-16
  0.420670442924E-16
  0.372965547335E-16
 -0.451028103754E-16
  0.164798730218E-16
 -0.468375338514E-16
  0.000000000000E+00
  0.346944695195E-17
  0.398986399475E-16
  0.173472347598E-16
  0.451028103754E-16
 -0.346944695195E-17
  0.173472347598E-16
 -0.346944695195E-17
  0.346944695195E-16
  0.555111512313E-16
  0.346944695195E-17
  0.138777878078E-16
 -0.693889390391E-17
  0.208166817117E-16
 -0.104083408559E-16
  0.693889390391E-17
  0.346944695195E-17
  0.346944695195E-17
  0.000000000000E+00
  0.346944695195E-17
 -0.520417042793E-17
  0.000000000000E+00
  0.173472347598E-17
  0.130104260698E-17
  0.650521303491E-18
 -0.108420217249E-18
  0.570438071684E-13
 -0.108420217249E-18
  0.216840434497E-18
  0.173472347598E-17
 -0.780625564190E-17
  0.107032438468E-14
  0.000000000000E+00
  0.693889390391E-17
 -0.346944695195E-17
  0.693889390391E-17
 -0.138777878078E-16
 -0.208166817117E-16
 -0.104083408559E-16
 -0.208166817117E-16
  0.451028103754E-16
 -0.346944695195E-17
  0.693889390391E-17
 -0.693889390391E-17
  0.138777878078E-16
 -0.312250225676E-16
 -0.242861286637E-16
  0.138777878078E-16
  0.242861286637E-16
 -0.277555756156E-16
  0.867361737988E-16
 -0.346944695195E-16
  0.555111512313E-16
  0.000000000000E+00
  0.520417042793E-17
  0.121430643318E-16
  0.277555756156E-16
  0.156125112838E-16
 -0.242861286637E-16
  0.381639164715E-16
 -0.251534904017E-16
 -0.307913416986E-16
  0.855164463548E-16
  0.758941520740E-16
  0.780625564190E-16
  0.146584133720E-15
  0.218575157973E-15
  0.797972798949E-16
  0.174339709336E-15
  0.520417042793E-17
 -0.236789754471E-15
 -0.169135538908E-15
 -0.196023752785E-15
 -0.342607886505E-15
 -0.858688120609E-16
 -0.113624387676E-15
  0.286229373536E-16
 -0.104083408559E-15
 -0.407660016855E-16
  0.255871712707E-16
 -0.113515967459E-15
 -0.498732999343E-17
 -0.138777878078E-16
  0.108420217249E-16
  0.398986399475E-16
 -0.260208521397E-16
 -0.867361737988E-17
 -0.190819582357E-16
 -0.416333634234E-16
  0.156125112838E-16
  0.693889390391E-17
  0.277555756156E-16
 -0.346944695195E-17
  0.693889390391E-17
 -0.138777878078E-16
  0.346944695195E-17
  0.208166817117E-16
  0.277555756156E-16
  0.346944695195E-17
 -0.104083408559E-16
 -0.138777878078E-16
 -0.242861286637E-16
 -0.104083408559E-16
 -0.346944695195E-17
  0.000000000000E+00
 -0.520417042793E-17
 -0.693889390391E-17
 -0.520417042793E-17
 -0.520417042793E-17
  0.260208521397E-17
 -0.388148714559E-13
  0.288397777881E-16
  0.720994444703E-17
  0.154898668687E-18
  0.574627151417E-17
  0.223345647532E-16
  0.477048955894E-16
 -0.346944695195E-17
 -0.173472347598E-17
 -0.346944695195E-17
 -0.693889390391E-17
  0.104083408559E-16
  0.104083408559E-16
  0.346944695195E-17
  0.346944695195E-17
  0.173472347598E-16
 -0.346944695195E-16
 -0.416333634234E-16
 -0.104083408559E-16
 -0.208166817117E-16
 -0.208166817117E-16
  0.104083408559E-16
  0.381639164715E-16
  0.208166817117E-16
  0.346944695195E-17
 -0.104083408559E-16
 -0.138777878078E-16
 -0.346944695195E-17
 -0.138777878078E-16
 -0.346944695195E-17
  0.589805981832E-16
 -0.607153216592E-16
  0.173472347598E-16
 -0.346944695195E-16
 -0.147451495458E-16
  0.407660016855E-16
  0.411996825544E-16
  0.446691295064E-16
  0.782387392720E-16
  0.858688120609E-16
  0.134007388519E-15
  0.121430643318E-15
  0.529090660173E-16
 -0.867361737988E-17
  0.163064006742E-15
  0.102348685083E-15
 -0.200360561475E-15
 -0.170002900646E-15
 -0.401588484689E-15
 -0.276688394418E-15
 -0.910729824888E-16
 -0.962771529167E-16
 -0.581132364452E-16
 -0.157426155445E-15
 -0.563785129692E-17
 -0.160895602397E-15
  0.273083422195E-16
  0.173472347598E-17
  0.416333634234E-16
  0.433680868994E-16
  0.303576608296E-16
  0.607153216592E-17
 -0.190819582357E-16
  0.138777878078E-16
  0.242861286637E-16
  0.173472347598E-16
  0.867361737988E-17
 -0.346944695195E-17
 -0.555111512313E-16
  0.000000000000E+00
 -0.693889390391E-17
  0.242861286637E-16
  0.520417042793E-16
  0.693889390391E-17
 -0.173472347598E-16
  0.104083408559E-16
  0.104083408559E-16
  0.104083408559E-16
  0.104083408559E-16
 -0.312250225676E-16
  0.000000000000E+00
 -0.520417042793E-17
 -0.346944695195E-17
  0.000000000000E+00
  0.000000000000E+00
 -0.433680868994E-18
  0.216840434497E-18
  0.108420217249E-18
  0.158530355288E-14
  0.542101086243E-19
 -0.216840434497E-18
 -0.173472347598E-17
  0.173472347598E-17
 -0.867361737988E-17
  0.346944695195E-17
 -0.346944695195E-17
 -0.104083408559E-16
 -0.208166817117E-16
  0.242861286637E-16
 -0.104083408559E-16
 -0.346944695195E-17
  0.693889390391E-17
  0.346944695195E-17
  0.000000000000E+00
  0.555111512313E-16
 -0.173472347598E-16
  0.346944695195E-17
  0.346944695195E-17
 -0.242861286637E-16
 -0.138777878078E-16
  0.277555756156E-16
  0.381639164715E-16
 -0.416333634234E-16
  0.208166817117E-16
 -0.346944695195E-16
 -0.138777878078E-16
  0.624500451352E-16
  0.156125112838E-16
  0.407660016855E-16
  0.407660016855E-16
  0.390312782095E-16
  0.124466409401E-15
 -0.677626357803E-16
  0.455364912444E-17
  0.641847686111E-16
  0.150487261541E-15
  0.191686944095E-15
  0.728583859910E-16
  0.520417042793E-16
  0.209034178855E-15
 -0.176941794550E-15
 -0.187350135405E-15
 -0.255004350969E-15
 -0.219442519711E-15
 -0.306178693510E-15
 -0.138777878078E-15
 -0.301408203951E-15
 -0.218575157973E-15
 -0.479217360239E-16
 -0.724247051220E-16
 -0.265629532259E-16
  0.325260651746E-17
 -0.229850860567E-16
  0.268882138776E-16
  0.190819582357E-16
  0.355618312575E-16
 -0.138777878078E-16
  0.121430643318E-16
  0.173472347598E-16
  0.346944695195E-17
  0.693889390391E-17
  0.104083408559E-16
  0.138777878078E-16
  0.346944695195E-17
  0.173472347598E-16
  0.312250225676E-16
  0.000000000000E+00
 -0.208166817117E-16
 -0.312250225676E-16
 -0.346944695195E-17
 -0.138777878078E-16
 -0.104083408559E-16
  0.104083408559E-16
  0.000000000000E+00
  0.000000000000E+00
  0.000000000000E+00
  0.520417042793E-17
  0.173472347598E-17
 -0.867361737988E-18
  0.000000000000E+00
 -0.162630325873E-18
  0.754554154771E-20
 -0.542101086243E-19
 -0.650521303491E-18
 -0.867361737988E-18
 -0.867361737988E-18
  0.693889390391E-17
  0.693889390391E-17
 -0.346944695195E-17
 -0.173472347598E-16
 -0.693889390391E-17
  0.693889390391E-17
 -0.208166817117E-16
 -0.242861286637E-16
 -0.555111512313E-16
  0.104083408559E-16
  0.173472347598E-16
  0.693889390391E-16
  0.346944695195E-16
  0.346944695195E-17
 -0.104083408559E-16
  0.138777878078E-16
  0.242861286637E-16
 -0.277555756156E-16
 -0.346944695195E-16
  0.173472347598E-16
 -0.138777878078E-16
  0.208166817117E-16
  0.312250225676E-16
 -0.693889390391E-17
  0.156125112838E-16
  0.867361737988E-16
 -0.199493199737E-16
  0.585469173142E-16
  0.871698546678E-16
  0.809899022847E-16
  0.550774703623E-16
  0.132706345912E-15
  0.823993651089E-16
  0.119695919842E-15
  0.106685493773E-15
  0.219442519711E-15
 -0.242861286637E-15
 -0.170002900646E-15
 -0.250667542279E-15
 -0.117093834628E-15
 -0.338271077815E-16
 -0.589805981832E-16
  0.542101086243E-16
 -0.425007251614E-16
 -0.433680868994E-16
  0.352365706058E-16
 -0.402239005992E-16
  0.494396190653E-16
 -0.225514051877E-16
  0.277555756156E-16
  0.320923843056E-16
 -0.156125112838E-16
  0.104083408559E-16
  0.242861286637E-16
 -0.104083408559E-16
  0.190819582357E-16
  0.173472347598E-16
  0.000000000000E+00
  0.485722573274E-16
 -0.693889390391E-17
 -0.346944695195E-17
  0.485722573274E-16
  0.693889390391E-17
 -0.381639164715E-16
 -0.485722573274E-16
 -0.242861286637E-16
 -0.242861286637E-16
  0.208166817117E-16
 -0.346944695195E-17
 -0.346944695195E-17
  0.693889390391E-17
  0.346944695195E-17
  0.000000000000E+00
  0.867361737988E-18
  0.216840434497E-18
  0.000000000000E+00
 -0.235159176343E-19
  0.000000000000E+00
  0.216840434497E-18
 -0.260208521397E-17
  0.000000000000E+00
 -0.867361737988E-17
 -0.173472347598E-17
 -0.208166817117E-16
 -0.693889390391E-17
  0.000000000000E+00
 -0.346944695195E-17
  0.693889390391E-17
 -0.797972798949E-16
  0.000000000000E+00
 -0.312250225676E-16
  0.104083408559E-15
  0.173472347598E-16
  0.104083408559E-16
  0.416333634234E-16
  0.520417042793E-16
 -0.346944695195E-17
  0.693889390391E-17
 -0.242861286637E-16
  0.000000000000E+00
  0.589805981832E-16
  0.294902990916E-16
  0.451028103754E-16
 -0.225514051877E-16
 -0.104083408559E-16
 -0.797972798949E-16
  0.268882138776E-16
 -0.524753851483E-16
  0.186591193885E-15
  0.127827436136E-15
  0.589805981832E-16
  0.197758476261E-15
  0.176074432812E-15
  0.176941794550E-15
  0.143982048506E-15
  0.106685493773E-15
 -0.241993924899E-15
 -0.365159291693E-15
 -0.633174068732E-16
 -0.283627288322E-15
 -0.177809156288E-15
 -0.191686944095E-15
 -0.568121938382E-16
 -0.702563007771E-16
 -0.455364912444E-17
 -0.135620139251E-15
  0.490059381963E-16
 -0.351281503885E-16
  0.503069808033E-16
 -0.260208521397E-16
  0.693889390391E-17
  0.815320033709E-16
  0.104083408559E-16
 -0.208166817117E-16
  0.000000000000E+00
  0.104083408559E-16
 -0.346944695195E-17
  0.693889390391E-17
  0.173472347598E-16
  0.173472347598E-16
  0.138777878078E-16
 -0.208166817117E-16
  0.693889390391E-17
 -0.138777878078E-16
 -0.242861286637E-16
 -0.104083408559E-16
  0.104083408559E-16
 -0.138777878078E-16
 -0.121430643318E-16
  0.000000000000E+00
 -0.693889390391E-17
  0.867361737988E-18
  0.000000000000E+00
  0.000000000000E+00
  0.162630325873E-18
  0.173650853174E-18
 -0.542101086243E-18
  0.650521303491E-18
 -0.130104260698E-17
 -0.346944695195E-17
 -0.173472347598E-17
 -0.693889390391E-17
 -0.208166817117E-16
  0.000000000000E+00
  0.173472347598E-16
  0.346944695195E-16
 -0.659194920871E-16
 -0.902056207508E-16
 -0.381639164715E-16
 -0.277555756156E-16
  0.142247325030E-15
  0.589805981832E-16
  0.451028103754E-16
 -0.346944695195E-16