# vtk DataFile Version 3.0
TriPan results file. Generated by TriPan, USU AeroLab (c) 2021.
ASCII
DATASET POLYDATA
POINTS                 144 float
  0.000000000000E+00  0.000000000000E+00  0.000000000000E+00
  0.113538098335E+01  0.000000000000E+00 -0.658124566078E+00
  0.113538098335E+01  0.000000000000E+00  0.658124566078E+00
  0.192375373840E+01  0.192375373840E+01  0.000000000000E+00
  0.305913543701E+01  0.192375373840E+01 -0.658124983311E+00
  0.305913543701E+01  0.192375373840E+01  0.658124983311E+00
  0.423028087616E+01  0.000000000000E+00 -0.108747220039E+01
  0.423028087616E+01  0.000000000000E+00  0.108747220039E+01
  0.547033166885E+01  0.547033166885E+01  0.000000000000E+00
  0.615403699875E+01  0.192375373840E+01 -0.108747279644E+01
  0.615403699875E+01  0.192375373840E+01  0.108747279644E+01
  0.660571479797E+01  0.547033166885E+01 -0.658125698566E+00
  0.660571479797E+01  0.547033166885E+01  0.658125698566E+00
  0.939508819580E+01  0.000000000000E+00 -0.980745851994E+00
  0.939508819580E+01  0.000000000000E+00  0.980745851994E+00
  0.970061969757E+01  0.547033166885E+01 -0.108747410774E+01
  0.970061969757E+01  0.547033166885E+01  0.108747410774E+01
  0.113188476562E+02  0.192375373840E+01 -0.980746448040E+00
  0.113188476562E+02  0.192375373840E+01  0.980746448040E+00
  0.113820018768E+02  0.113820018768E+02  0.000000000000E+00
  0.125173873901E+02  0.113820018768E+02 -0.658127009869E+00
  0.125173873901E+02  0.113820018768E+02  0.658127009869E+00
  0.145402030945E+02  0.000000000000E+00 -0.479613035917E+00
  0.145402030945E+02  0.000000000000E+00  0.479613035917E+00
  0.148654365540E+02  0.547033166885E+01 -0.980747580528E+00
  0.148654365540E+02  0.547033166885E+01  0.980747580528E+00
  0.156122989655E+02  0.113820018768E+02 -0.108747613430E+01
  0.156122989655E+02  0.113820018768E+02  0.108747613430E+01
  0.164639663696E+02  0.192375373840E+01 -0.479613333941E+00
  0.164639663696E+02  0.192375373840E+01  0.479613333941E+00
  0.176505107880E+02  0.000000000000E+00 -0.144198849797E+00
  0.176505107880E+02  0.000000000000E+00  0.144198849797E+00
  0.190000000000E+02  0.000000000000E+00  0.000000000000E+00
  0.195742740631E+02  0.192375373840E+01 -0.144198939204E+00
  0.195742740631E+02  0.192375373840E+01  0.144198939204E+00
  0.197561950684E+02  0.197561950684E+02  0.000000000000E+00
  0.200105609894E+02  0.547033166885E+01 -0.479613870382E+00
  0.200105609894E+02  0.547033166885E+01  0.479613870382E+00
  0.207771244049E+02  0.113820018768E+02 -0.980749428272E+00
  0.207771244049E+02  0.113820018768E+02  0.980749428272E+00
  0.208915824890E+02  0.197561950684E+02 -0.658128738403E+00
  0.208915824890E+02  0.197561950684E+02  0.658128738403E+00
  0.209237651825E+02  0.192375373840E+01  0.000000000000E+00
  0.231208724976E+02  0.547033166885E+01 -0.144199103117E+00
  0.231208724976E+02  0.547033166885E+01  0.144199103117E+00
  0.239865016937E+02  0.197561950684E+02 -0.108747911453E+01
  0.239865016937E+02  0.197561950684E+02  0.108747911453E+01
  0.244703655243E+02  0.547033166885E+01  0.000000000000E+00
  0.259222583771E+02  0.113820018768E+02 -0.479614794254E+00
  0.259222583771E+02  0.113820018768E+02  0.479614794254E+00
  0.290325775146E+02  0.113820018768E+02 -0.144199386239E+00
  0.290325775146E+02  0.113820018768E+02  0.144199386239E+00
  0.291513423920E+02  0.197561950684E+02 -0.980752110481E+00
  0.291513423920E+02  0.197561950684E+02  0.980752110481E+00
  0.292438049316E+02  0.292438049316E+02  0.000000000000E+00
  0.303791980743E+02  0.292438049316E+02 -0.658130764961E+00
  0.303791980743E+02  0.292438049316E+02  0.658130764961E+00
  0.303820724487E+02  0.113820018768E+02  0.000000000000E+00
  0.334741249084E+02  0.292438049316E+02 -0.108748245239E+01
  0.334741249084E+02  0.292438049316E+02  0.108748245239E+01
  0.342964897156E+02  0.197561950684E+02 -0.479616105556E+00
  0.342964897156E+02  0.197561950684E+02  0.479616105556E+00
  0.374068183899E+02  0.197561950684E+02 -0.144199773669E+00
  0.374068183899E+02  0.197561950684E+02  0.144199773669E+00
  0.376179962158E+02  0.376179962158E+02  0.000000000000E+00
  0.386389808655E+02  0.292438049316E+02 -0.980755090714E+00
  0.386389808655E+02  0.292438049316E+02  0.980755090714E+00
  0.387533912659E+02  0.376179962158E+02 -0.658132553101E+00
  0.387533912659E+02  0.376179962158E+02  0.658132553101E+00
  0.387563171387E+02  0.197561950684E+02  0.000000000000E+00
  0.418483314514E+02  0.376179962158E+02 -0.108748543262E+01
  0.418483314514E+02  0.376179962158E+02  0.108748543262E+01
  0.435296669006E+02  0.435296669006E+02  0.000000000000E+00
  0.437841453552E+02  0.292438049316E+02 -0.479617565870E+00
  0.437841453552E+02  0.292438049316E+02  0.479617565870E+00
  0.446650657654E+02  0.435296669006E+02 -0.658133804798E+00
  0.446650657654E+02  0.435296669006E+02  0.658133804798E+00
  0.468944816589E+02  0.292438049316E+02 -0.144200220704E+00
  0.468944816589E+02  0.292438049316E+02  0.144200220704E+00
  0.470131988525E+02  0.376179962158E+02 -0.980757772923E+00
  0.470131988525E+02  0.376179962158E+02  0.980757772923E+00
  0.470762481689E+02  0.470762481689E+02  0.000000000000E+00
  0.477600097656E+02  0.435296669006E+02 -0.108748745918E+01
  0.477600097656E+02  0.435296669006E+02  0.108748745918E+01
  0.482116432190E+02  0.470762481689E+02 -0.658134579659E+00
  0.482116432190E+02  0.470762481689E+02  0.658134579659E+00
  0.482439842224E+02  0.292438049316E+02  0.000000000000E+00
  0.490000000000E+02  0.490000000000E+02  0.000000000000E+00
  0.501353988647E+02  0.490000000000E+02 -0.658134996891E+00
  0.501353988647E+02  0.490000000000E+02  0.658134996891E+00
  0.506007728577E+02  0.494653701782E+02 -0.465371757746E+00
  0.506007728577E+02  0.494653701782E+02  0.465371757746E+00
  0.507935333252E+02  0.496581344604E+02 -0.771266485397E-15
  0.513065910339E+02  0.470762481689E+02 -0.108748877048E+01
  0.513065910339E+02  0.470762481689E+02  0.108748877048E+01
  0.521583786011E+02  0.376179962158E+02 -0.479618877172E+00
  0.521583786011E+02  0.376179962158E+02  0.479618877172E+00
  0.529248886108E+02  0.435296669006E+02 -0.980759620667E+00
  0.529248886108E+02  0.435296669006E+02  0.980759620667E+00
  0.532303466797E+02  0.490000000000E+02 -0.108748936653E+01
  0.532303466797E+02  0.490000000000E+02  0.108748936653E+01
  0.539993209839E+02  0.497689704895E+02 -0.768971264362E+00
  0.539993209839E+02  0.497689704895E+02  0.768971264362E+00
  0.543178405762E+02  0.500874900818E+02 -0.157378642191E-15
  0.552687225342E+02  0.376179962158E+02 -0.144200608134E+00
  0.552687225342E+02  0.376179962158E+02  0.144200608134E+00
  0.564714775085E+02  0.470762481689E+02 -0.980760753155E+00
  0.564714775085E+02  0.470762481689E+02  0.980760753155E+00
  0.566182289124E+02  0.376179962158E+02  0.000000000000E+00
  0.580700759888E+02  0.435296669006E+02 -0.479619771242E+00
  0.580700759888E+02  0.435296669006E+02  0.479619771242E+00
  0.583952369690E+02  0.490000000000E+02 -0.980761349201E+00
  0.583952369690E+02  0.490000000000E+02  0.980761349201E+00
  0.590887413025E+02  0.496935043335E+02 -0.693503141403E+00
  0.590887413025E+02  0.496935043335E+02  0.693503141403E+00
  0.593759994507E+02  0.499807624817E+02  0.000000000000E+00
  0.611804275513E+02  0.435296669006E+02 -0.144200876355E+00
  0.611804275513E+02  0.435296669006E+02  0.144200876355E+00
  0.616166725159E+02  0.470762481689E+02 -0.479620337486E+00
  0.616166725159E+02  0.470762481689E+02  0.479620337486E+00
  0.625299339294E+02  0.435296669006E+02  0.000000000000E+00
  0.635404319763E+02  0.490000000000E+02 -0.479620635509E+00
  0.635404319763E+02  0.490000000000E+02  0.479620635509E+00
  0.638795776367E+02  0.493391418457E+02 -0.339143037796E+00
  0.638795776367E+02  0.493391418457E+02  0.339143037796E+00
  0.640200576782E+02  0.494796218872E+02  0.296956834055E-15
  0.647270278931E+02  0.470762481689E+02 -0.144201040268E+00
  0.647270278931E+02  0.470762481689E+02  0.144201040268E+00
  0.660765380859E+02  0.470762481689E+02  0.000000000000E+00
  0.666507873535E+02  0.490000000000E+02 -0.144201144576E+00
  0.666507873535E+02  0.490000000000E+02  0.144201144576E+00
  0.667527542114E+02  0.491019668579E+02 -0.101965606213E+00
  0.667527542114E+02  0.491019668579E+02  0.101965606213E+00
  0.667949905396E+02  0.491441993713E+02 -0.260488604752E-16
  0.680002975464E+02  0.490000000000E+02  0.000000000000E+00
  0.209237651825E+02  0.192375373840E+01  0.000000000000E+00
  0.190000000000E+02  0.000000000000E+00  0.000000000000E+00
  0.244703655243E+02  0.547033166885E+01  0.000000000000E+00
  0.303820724487E+02  0.113820018768E+02  0.000000000000E+00
  0.387563171387E+02  0.197561950684E+02  0.000000000000E+00
  0.482439842224E+02  0.292438049316E+02  0.000000000000E+00
  0.566182289124E+02  0.376179962158E+02  0.000000000000E+00
  0.625299339294E+02  0.435296669006E+02  0.000000000000E+00
  0.660765380859E+02  0.470762481689E+02  0.000000000000E+00
POLYGONS                 256                1024
3                  32                  33                  42
3                  32                  30                  33
3                  30                  28                  33
3                  30                  22                  28
3                  22                  17                  28
3                  22                  13                  17
3                  13                   6                  17
3                  17                   6                   9
3                   6                   1                   9
3                   9                   1                   4
3                   1                   0                   4
3                   4                   0                   3
3                   0                   5                   3
3                   0                   2                   5
3                   2                  10                   5
3                   2                   7                  10
[...]
CELL_DATA                 256
SCALARS sigma float 1
LOOKUP_TABLE default
  0.522126978855E-02
  0.522118642470E-02
  0.425221241017E-02
  0.425227831457E-02
  0.145389372660E-01
  0.145389232104E-01
  0.908947586616E-01
  0.908947720437E-01
  0.244667601269E+00
  0.244667586669E+00
  0.531692439293E+00
  0.531692439967E+00
  0.359280647767E+00
  0.359280646733E+00
  0.259002102300E-01
  0.259002266256E-01
 -0.131947955838E+00
 -0.131947968932E+00
 -0.206313609873E+00
 -0.206313595614E+00
 -0.216137310242E+00
 -0.216137375549E+00
 -0.215213973554E+00
 -0.215213892725E+00
  0.522129884465E-02
  0.522126977311E-02
  0.425222465194E-02
  0.425221237537E-02
  0.145389298744E-01
  0.145389372900E-01
  0.908947719541E-01
  0.908947621363E-01
  0.244667587255E+00
  0.244667625125E+00
  0.531692434045E+00
  0.531692399837E+00
  0.359280595640E+00
  0.359280643765E+00
  0.259002517695E-01
  0.259002102919E-01
 -0.131947965369E+00
 -0.131947955708E+00
 -0.206313595954E+00
 -0.206313603282E+00
 -0.216137373781E+00
 -0.216137361830E+00
 -0.215213892088E+00
 -0.215213864119E+00
  0.522124103996E-02
  0.522129884364E-02
  0.425228218108E-02
  0.425222465982E-02
  0.145389308434E-01
  0.145389298833E-01
  0.908947621801E-01
  0.908947618985E-01
  0.244667624617E+00
  0.244667563797E+00
  0.531692397633E+00
  0.531692374940E+00
  0.359280563300E+00
  0.359280594150E+00
  0.259001858707E-01
  0.259002517158E-01
 -0.131947965711E+00
 -0.131947965433E+00
 -0.206313603407E+00
 -0.206313602470E+00
 -0.216137362230E+00
 -0.216137306712E+00
 -0.215213864078E+00
 -0.215213919484E+00
  0.522125575880E-02
  0.522124104484E-02
  0.425231525083E-02
  0.425228219678E-02
  0.145389173241E-01
  0.145389308370E-01
  0.908947618853E-01
  0.908947652273E-01
  0.244667564844E+00
  0.244667620914E+00
  0.531692388653E+00
  0.531692594350E+00
  0.359280848302E+00
  0.359280572566E+00
  0.259002463772E-01
  0.259001859815E-01
 -0.131947962390E+00
 -0.131947965691E+00
 -0.206313602380E+00
 -0.206313615492E+00
 -0.216137307510E+00
 -0.216137275728E+00
 -0.215213919685E+00
 -0.215213905604E+00
  0.522122703259E-02
  0.522125576345E-02
  0.425225501980E-02
  0.425231524460E-02
  0.145389464675E-01
  0.145389173136E-01
  0.908947652329E-01
  0.908947570551E-01
  0.244667620319E+00
  0.244667693790E+00
  0.531692569282E+00
  0.531692139919E+00
  0.359280258020E+00
  0.359280831363E+00
  0.259003253407E-01
  0.259002463141E-01
 -0.131947970480E+00
 -0.131947962398E+00
 -0.206313615343E+00
 -0.206313587098E+00
 -0.216137275411E+00
 -0.216137333257E+00
 -0.215213905796E+00
 -0.215213933277E+00
  0.522124172764E-02
  0.522122701372E-02
  0.425222303769E-02
  0.425225500062E-02
  0.145389685633E-01
  0.145389464578E-01
  0.908947570451E-01
  0.908947451507E-01
  0.244667692913E+00
  0.244667501437E+00
  0.531692154942E+00
  0.531692380300E+00
  0.359280570263E+00
  0.359280268171E+00
  0.259001190017E-01
  0.259003252479E-01
 -0.131947982216E+00
 -0.131947970465E+00
 -0.206313586960E+00
 -0.206313565510E+00
 -0.216137332282E+00
 -0.216137363015E+00
 -0.215213932499E+00
 -0.215213918419E+00
  0.522104623733E-02
  0.522124173610E-02
  0.425228529228E-02
  0.425222305854E-02
  0.145389282332E-01
  0.145389685881E-01
  0.908947451776E-01
  0.908947563286E-01
  0.244667500844E+00
  0.244667571701E+00
  0.531692350383E+00
  0.531692042367E+00
  0.359280131305E+00
  0.359280550046E+00
  0.259001956501E-01
  0.259001189389E-01
 -0.131947971252E+00
 -0.131947982255E+00
 -0.206313565862E+00
 -0.206313605241E+00
 -0.216137364075E+00
 -0.216137304008E+00
 -0.215213918768E+00
 -0.215214106157E+00
  0.522122384432E-02
  0.522104623715E-02
  0.425228817198E-02
  0.425228531380E-02
  0.145389621856E-01
  0.145389283198E-01
  0.908947563394E-01
  0.908947522437E-01
  0.244667579791E+00
  0.244667581851E+00
  0.531692197563E+00
  0.531693094051E+00
  0.359281497388E+00
  0.359280236176E+00
  0.259001987631E-01
  0.259001965065E-01
 -0.131947975298E+00
 -0.131947971267E+00
 -0.206313606470E+00
 -0.206313573003E+00
 -0.216137305102E+00
 -0.216137302320E+00
 -0.215214106150E+00
 -0.215213935278E+00
  0.522114796355E-02
  0.522122395975E-02
  0.425222699575E-02
  0.425228819151E-02
  0.145389050517E-01
  0.145389620225E-01
  0.908947522024E-01
  0.908947674964E-01
  0.244667570969E+00
  0.244667620494E+00
  0.531692922163E+00
  0.531692462241E+00
  0.359280676699E+00
  0.359281381238E+00
  0.259002532286E-01
  0.259001976111E-01
 -0.131947960273E+00
 -0.131947975238E+00
 -0.206313570688E+00
 -0.206313628483E+00
 -0.216137303313E+00
 -0.216137363954E+00
 -0.215213940035E+00
 -0.215214013720E+00
  0.502127612075E-02
  0.409155201871E-02
  0.409101352993E-02
  0.139307552696E-01
  0.139309144383E-01
  0.846009972055E-01
  0.846010908468E-01
  0.216606501697E+00
  0.216606656531E+00
  0.451004073448E+00
  0.304757092135E+00
  0.229300588154E-01
  0.229297331358E-01
 -0.122811394083E+00
 -0.122811569090E+00
 -0.197685967108E+00
 -0.197686059605E+00
 -0.207943009897E+00
 -0.207942753866E+00
 -0.206975361642E+00
 -0.606067304449E-01
 -0.616460958634E-01
 -0.616404330406E-01
 -0.507277624747E-01
 -0.507292583993E-01
  0.241054532851E-01
  0.241053723556E-01
  0.150893360167E+00
  0.150893273473E+00
  0.359061896582E+00
  0.305771716839E+00
  0.751786268253E-01
  0.751789905924E-01
 -0.627225395438E-01
 -0.627220775595E-01
 -0.143270113375E+00
 -0.143269955931E+00
 -0.154963514979E+00
 -0.154963184778E+00
 -0.153850016893E+00
SCALARS C_p_inc float 1
LOOKUP_TABLE default
  0.122556517699E+00
  0.926216954690E-01
  0.490972799667E-01
  0.234059754214E-01
 -0.208159553237E-01
 -0.394443668205E-01
 -0.165398375497E-01
 -0.365251542600E-01
  0.167758936678E+00
  0.885128837222E-01
  0.552002584203E+00
  0.549330783532E+00
 -0.310031067120E+00
  0.111172195569E+00
 -0.548968079806E+00
 -0.370877118677E+00
 -0.412573437428E+00
 -0.418121357951E+00
 -0.302340584774E+00
 -0.247156718988E+00
 -0.133799660939E+00
 -0.624242031606E-01
  0.170596616540E-01
  0.960111005932E-01
  0.121121740976E+00
  0.121040898964E+00
  0.570517064198E-01
  0.490113382052E-01
 -0.738863103201E-02
 -0.206944092350E-01
 -0.363142490652E-01
 -0.403159664536E-01
  0.878966842472E-01
  0.810179875840E-01
  0.481476836718E+00
  0.485113023280E+00
 -0.525372182014E+00
 -0.303455066164E+00
 -0.659061787868E+00
 -0.541641603351E+00
 -0.423057077773E+00
 -0.426314165184E+00
 -0.247646187629E+00
 -0.198992429493E+00
 -0.622281406519E-01
 -0.212292153839E-01
  0.931203955710E-01
  0.107874524317E+00
  0.120938186022E+00
  0.120392994787E+00
  0.573016152651E-01
  0.568293855868E-01
 -0.218198191055E-02
 -0.719561206569E-02
 -0.403721421282E-01
 -0.296528691444E-01
  0.804993511239E-01
  0.980328134426E-01
  0.485097554757E+00
  0.488432961025E+00
 -0.657197668276E+00
 -0.523467227820E+00
 -0.717279781986E+00
 -0.661726830409E+00
 -0.421993887262E+00
 -0.435261513990E+00
 -0.199965597842E+00
 -0.176840095064E+00
 -0.212389261743E-01
 -0.807467057675E-02
  0.107803768449E+00
  0.114230363032E+00
  0.119097771609E+00
  0.120206615936E+00
  0.553672916911E-01
  0.570357923363E-01
 -0.190740677294E-02
 -0.206925301019E-02
 -0.296746892633E-01
 -0.238495303409E-01
  0.984631071198E-01
  0.114194430633E+00
  0.496301889923E+00
  0.497494132972E+00
 -0.721121227432E+00
 -0.657425330606E+00
 -0.742658534325E+00
 -0.722568616034E+00
 -0.424780643320E+00
 -0.428701939279E+00
 -0.177797872126E+00
 -0.170568748529E+00
 -0.800506149413E-02
 -0.150756019520E-02
  0.115041717670E+00
  0.120109082966E+00
  0.111403445270E+00
  0.117969405610E+00
  0.465962454034E-01
  0.549422537019E-01
 -0.866921877808E-02
 -0.186888412329E-02
 -0.236967450189E-01
 -0.273129460737E-01
  0.114191858566E+00
  0.116378799872E+00
  0.500643849015E+00
  0.500741664269E+00
 -0.737283218968E+00
 -0.721476163961E+00
 -0.745821935782E+00
 -0.745525532905E+00
 -0.419623424549E+00
 -0.428046411079E+00
 -0.171501872137E+00
 -0.160942505139E+00
 -0.147757205182E-02
  0.108364110932E-01
  0.121298847967E+00
  0.132365235623E+00
  0.960075531416E-01
  0.109021785788E+00
  0.268702515627E-01
  0.456537495679E-01
 -0.280949228157E-01
 -0.871816176334E-02
 -0.270287459119E-01
 -0.455067266203E-01
  0.115592893612E+00
  0.101913787440E+00
  0.499031790163E+00
  0.499017195162E+00
 -0.708132316328E+00
 -0.737609113338E+00
 -0.722549613589E+00
 -0.748705749784E+00
 -0.396282075592E+00
 -0.423686003558E+00
 -0.162017572889E+00
 -0.134167807262E+00
  0.107371025322E-01
  0.420444467319E-01
  0.134366769429E+00
  0.162617916366E+00
  0.728018174833E-01
  0.907695237928E-01
  0.255505185908E-02
  0.245009356974E-01
 -0.526832147125E-01
 -0.285411471657E-01
 -0.451509221285E-01
 -0.807492374791E-01
  0.995023483873E-01
  0.665254608521E-01
  0.490652135132E+00
  0.490756156815E+00
 -0.642670100291E+00
 -0.708578913305E+00
 -0.674333937133E+00
 -0.727424722106E+00
 -0.346203497068E+00
 -0.404927774868E+00
 -0.135731789507E+00
 -0.770773351079E-01
  0.412548940473E-01
  0.101213394488E+00
  0.166019513173E+00
  0.221803381952E+00
 -0.450285768319E-02
  0.617802061664E-01
 -0.309861357571E-01
 -0.273513141505E-02
 -0.688257597974E-01
 -0.550501947013E-01
 -0.814109594817E-01
 -0.103781957433E+00
  0.588229287849E-01
  0.475322315470E-03
  0.465551262239E+00
  0.467362873558E+00
 -0.556706402372E+00
 -0.642785661926E+00
 -0.601298559688E+00
 -0.682940649948E+00
 -0.251499662845E+00
 -0.370750104765E+00
 -0.812305473706E-01
 -0.955433466829E-02
  0.960218701871E-01
  0.174112269621E+00
  0.221892020766E+00
  0.296820047946E+00
 -0.195961931550E+03
 -0.297243054807E+00
 -0.658006817846E+00
 -0.450389874340E-01
 -0.905839263106E-01
 -0.787939137355E-01
 -0.112180828187E+00
 -0.104949496287E+00
 -0.255464499442E-01
 -0.411262669702E-01
  0.348258130098E+00
  0.370328777602E+00
 -0.440199078035E+00
 -0.554814991919E+00
 -0.401597450690E+00
 -0.642546695869E+00
 -0.154028209764E+00
 -0.331674229655E+00
 -0.318402435499E-01
  0.130413053666E-01
  0.137868951321E+00
 -0.189583879446E+00
  0.272480262779E+00
 -0.200815912792E+03
 -0.456027199677E+03
 -0.582862262115E+01
 -0.590387215469E+00
 -0.227433287124E+00
 -0.149126938685E+00
 -0.172615449398E+00
 -0.172622843093E+00
 -0.155104982545E+00
 -0.181971908809E+00
 -0.662015467173E-02
 -0.443588505080E+00
 -0.323315241934E+00
 -0.497074306032E+00
 -0.184358872790E+00
 -0.372300734701E+00
 -0.101283986438E+00
 -0.272204118313E+00
 -0.846781553833E+00
 -0.113731545223E+01
 -0.420375795942E+03
 -0.305527051668E+03
 -0.849823223755E+01
 -0.973727373679E+00
 -0.463519192585E+00
 -0.248915411358E+00
 -0.306825090965E+00
 -0.277790642150E+00
 -0.300081512122E+00
 -0.323435317265E+00
 -0.215438115221E+00
 -0.366710451125E+00
 -0.369838954053E+00
 -0.407215349024E+00
 -0.266766540499E+00
 -0.396926442613E+00
 -0.248267626717E+00
 -0.491969227801E+00
 -0.132153062204E+01
 -0.134677918028E+01
 -0.275697141092E+03
SCALARS inclination float 1
LOOKUP_TABLE default
  0.100000000000E+01
  0.100000000000E+01
  0.100000000000E+01
  0.100000000000E+01
  0.100000000000E+01
  0.100000000000E+01
  0.100000000000E+01
  0.100000000000E+01
  0.100000000000E+01
  0.100000000000E+01
  0.100000000000E+01
  0.100000000000E+01
  0.100000000000E+01
  0.100000000000E+01
  0.100000000000E+01
  0.100000000000E+01
  0.100000000000E+01
  0.100000000000E+01
  0.100000000000E+01
  0.100000000000E+01
  0.100000000000E+01
  0.100000000000E+01
  0.100000000000E+01
  0.100000000000E+01
  0.100000000000E+01
  0.100000000000E+01
  0.100000000000E+01
  0.100000000000E+01
  0.100000000000E+01
  0.100000000000E+01
  0.100000000000E+01
  0.100000000000E+01
  0.100000000000E+01
  0.100000000000E+01
  0.100000000000E+01
  0.100000000000E+01
  0.100000000000E+01
  0.100000000000E+01
  0.100000000000E+01
  0.100000000000E+01
  0.100000000000E+01
  0.100000000000E+01
  0.100000000000E+01
  0.100000000000E+01
  0.100000000000E+01
  0.100000000000E+01
  0.100000000000E+01
  0.100000000000E+01
  0.100000000000E+01
  0.100000000000E+01
  0.100000000000E+01
  0.100000000000E+01
  0.100000000000E+01
  0.100000000000E+01
  0.100000000000E+01
  0.100000000000E+01
  0.100000000000E+01
  0.100000000000E+01
  0.100000000000E+01
  0.100000000000E+01
  0.100000000000E+01
  0.100000000000E+01
  0.100000000000E+01
  0.100000000000E+01
  0.100000000000E+01
  0.100000000000E+01
  0.100000000000E+01
  0.100000000000E+01
  0.100000000000E+01
  0.100000000000E+01
  0.100000000000E+01
  0.100000000000E+01
  0.100000000000E+01
  0.100000000000E+01
  0.100000000000E+01
  0.100000000000E+01
  0.100000000000E+01
  0.100000000000E+01
  0.100000000000E+01
  0.100000000000E+01
  0.100000000000E+01
  0.100000000000E+01
  0.100000000000E+01
  0.100000000000E+01
  0.100000000000E+01
  0.100000000000E+01
  0.100000000000E+01
  0.100000000000E+01
  0.100000000000E+01
  0.100000000000E+01
  0.100000000000E+01
  0.100000000000E+01
  0.100000000000E+01
  0.100000000000E+01
  0.100000000000E+01
  0.100000000000E+01
  0.100000000000E+01
  0.100000000000E+01
  0.100000000000E+01
  0.100000000000E+01
  0.100000000000E+01
  0.100000000000E+01
  0.100000000000E+01
  0.100000000000E+01
  0.100000000000E+01
  0.100000000000E+01
  0.100000000000E+01
  0.100000000000E+01
  0.100000000000E+01
  0.100000000000E+01
  0.100000000000E+01
  0.100000000000E+01
  0.100000000000E+01
  0.100000000000E+01
  0.100000000000E+01
  0.100000000000E+01
  0.100000000000E+01
  0.100000000000E+01
  0.100000000000E+01
  0.100000000000E+01
  0.100000000000E+01
  0.100000000000E+01
  0.100000000000E+01
  0.100000000000E+01
  0.100000000000E+01
  0.100000000000E+01
  0.100000000000E+01
  0.100000000000E+01
  0.100000000000E+01
  0.100000000000E+01
  0.100000000000E+01
  0.100000000000E+01
  0.100000000000E+01
  0.100000000000E+01
  0.100000000000E+01
  0.100000000000E+01
  0.100000000000E+01
  0.100000000000E+01
  0.100000000000E+01
  0.100000000000E+01
  0.100000000000E+01
  0.100000000000E+01
  0.100000000000E+01
  0.100000000000E+01
  0.100000000000E+01
  0.100000000000E+01
  0.100000000000E+01
  0.100000000000E+01
  0.100000000000E+01
  0.100000000000E+01
  0.100000000000E+01
  0.100000000000E+01
  0.100000000000E+01
  0.100000000000E+01
  0.100000000000E+01
  0.100000000000E+01
  0.100000000000E+01
  0.100000000000E+01
  0.100000000000E+01
  0.100000000000E+01
  0.100000000000E+01
  0.100000000000E+01
  0.100000000000E+01
  0.100000000000E+01
  0.100000000000E+01
  0.100000000000E+01
  0.100000000000E+01
  0.100000000000E+01
  0.100000000000E+01
  0.100000000000E+01
  0.100000000000E+01
  0.100000000000E+01
  0.100000000000E+01
  0.100000000000E+01
  0.100000000000E+01
  0.100000000000E+01
  0.100000000000E+01
  0.100000000000E+01
  0.100000000000E+01
  0.100000000000E+01
  0.100000000000E+01
  0.100000000000E+01
  0.100000000000E+01
  0.100000000000E+01
  0.100000000000E+01
  0.100000000000E+01
  0.100000000000E+01
  0.100000000000E+01
  0.100000000000E+01
  0.100000000000E+01
  0.100000000000E+01
  0.100000000000E+01
  0.100000000000E+01
  0.100000000000E+01
  0.100000000000E+01
  0.100000000000E+01
  0.100000000000E+01
  0.100000000000E+01
  0.100000000000E+01
  0.100000000000E+01
  0.100000000000E+01
  0.100000000000E+01
  0.100000000000E+01
  0.100000000000E+01
  0.100000000000E+01
  0.100000000000E+01
  0.100000000000E+01
  0.100000000000E+01
  0.100000000000E+01
  0.100000000000E+01
  0.100000000000E+01
  0.100000000000E+01
  0.100000000000E+01
  0.100000000000E+01
  0.100000000000E+01
  0.100000000000E+01
  0.100000000000E+01
  0.100000000000E+01
  0.100000000000E+01
  0.100000000000E+01
  0.100000000000E+01
  0.100000000000E+01
  0.100000000000E+01
  0.100000000000E+01
  0.100000000000E+01
  0.100000000000E+01
  0.100000000000E+01
  0.100000000000E+01
  0.100000000000E+01
  0.100000000000E+01
  0.100000000000E+01
  0.100000000000E+01
  0.100000000000E+01
  0.100000000000E+01
  0.100000000000E+01
  0.100000000000E+01
  0.100000000000E+01
  0.100000000000E+01
  0.100000000000E+01
  0.100000000000E+01
  0.100000000000E+01
  0.100000000000E+01
  0.100000000000E+01
  0.100000000000E+01
  0.100000000000E+01
  0.100000000000E+01
  0.100000000000E+01
  0.100000000000E+01
  0.100000000000E+01
  0.100000000000E+01
  0.100000000000E+01
  0.100000000000E+01
  0.100000000000E+01
  0.100000000000E+01
  0.100000000000E+01
  0.100000000000E+01
VECTORS v float
  0.151818732782E+03  0.361880447215E+01  0.158357984287E+02
  0.154394726361E+03  0.287640506595E+01  0.161903965019E+02
  0.158021553439E+03 -0.750439947746E+00  0.171219116136E+02
  0.160158210641E+03  0.582529507236E+00  0.172085694527E+02
  0.163853301097E+03 -0.311257941286E+01  0.162624317382E+02
  0.165394748395E+03 -0.557129525059E+00  0.161636688920E+02
  0.164306761027E+03  0.530857119700E+00  0.338428949611E+01
  0.165833958073E+03 -0.510470564482E+01  0.353230145943E+01
  0.146900584555E+03  0.138286845237E+02 -0.184607300245E+02
  0.153948012208E+03 -0.536911649043E+01 -0.221016587085E+02
  0.903727569338E+02  0.582061631711E+02 -0.186453938925E+02
  0.936312479424E+02  0.509368679917E+02 -0.247478342543E+02
  0.157628118494E+03 -0.130600025603E+02  0.989395169554E+02
  0.137345346611E+03  0.321883825984E+02  0.609543249147E+02
  0.198325173151E+03 -0.287914602274E+02  0.315073074834E+02
  0.188948095214E+03 -0.324749101909E+01  0.266628071169E+02
  0.193525509587E+03 -0.782490151500E+01 -0.416073484737E+01
  0.193852784323E+03 -0.903258955967E+01 -0.419245696481E+01
  0.185136472288E+03 -0.316247301216E+00 -0.180630455145E+02
  0.180962245965E+03 -0.723638316430E+01 -0.183304981058E+02
  0.172571365086E+03  0.115453933514E+01 -0.184855127808E+02
  0.166999248491E+03 -0.232166977735E+01 -0.182595045602E+02
  0.160684359433E+03  0.399325051523E+01 -0.167431309368E+02
  0.154053949620E+03  0.590413110734E+01 -0.158304425283E+02
  0.151852842925E+03  0.727863210608E+01  0.154483680087E+02
  0.151859999173E+03  0.727424911644E+01  0.154496053841E+02
  0.157379984728E+03  0.175423170992E+01  0.167826186983E+02
  0.158049487026E+03  0.167946290834E+01  0.168628826219E+02
  0.162773451912E+03 -0.304452431490E+01  0.161506273031E+02
  0.163858613156E+03 -0.254732379264E+01  0.162078929885E+02
  0.165834206390E+03 -0.452292718742E+01  0.352028466260E+01
  0.166132433358E+03 -0.525609847911E+01  0.354159965528E+01
  0.154175908182E+03  0.670043389800E+01 -0.204588982591E+02
  0.154780828224E+03  0.553794977371E+01 -0.207040917312E+02
  0.967964307568E+02  0.635223709148E+02 -0.192873355172E+02
  0.934847437551E+02  0.688203299498E+02 -0.142967463132E+02
  0.171599837660E+03 -0.929476395555E+01  0.104855694084E+03
  0.162311908901E+03  0.556384219969E+01  0.908591522176E+02
  0.204098154175E+03 -0.362224083286E+02  0.333390647578E+02
  0.198391917115E+03 -0.252566508025E+02  0.310261917246E+02
  0.193342679270E+03 -0.202073930653E+02 -0.441283780779E+01
  0.193520038224E+03 -0.206434182288E+02 -0.442551064163E+01
  0.180954339828E+03 -0.807767650861E+01 -0.184116701823E+02
  0.177281909413E+03 -0.976031561430E+01 -0.182178674144E+02
  0.167031571578E+03  0.490070417696E+00 -0.179597716081E+02
  0.163779152949E+03  0.853295328547E+00 -0.175698597049E+02
  0.154106130219E+03  0.105263738788E+02 -0.153421084628E+02
  0.152794037971E+03  0.113300237219E+02 -0.151160274639E+02
  0.151817677819E+03  0.853009804890E+01  0.153108936513E+02
  0.151866547525E+03  0.849260872234E+01  0.153201129735E+02
  0.157354595924E+03  0.300452807209E+01  0.166450394045E+02
  0.157394146462E+03  0.298614112064E+01  0.166512964963E+02
  0.162378126151E+03 -0.199786158260E+01  0.160101772099E+02
  0.162782830063E+03 -0.204659545970E+01  0.160543421141E+02
  0.166132373581E+03 -0.539615288386E+01  0.354449245463E+01
  0.165316873612E+03 -0.386730246590E+01  0.349604793356E+01
  0.154801784232E+03  0.664779478512E+01 -0.205530329441E+02
  0.153238714371E+03  0.906931983235E+01 -0.200002508836E+02
  0.934853440648E+02  0.688227155023E+02 -0.142957106729E+02
  0.896301321466E+02  0.740013102733E+02 -0.905925757088E+01