# vtk DataFile Version 3.0
TriPan results file. Generated by TriPan, USU AeroLab (c) 2021.
ASCII
DATASET POLYDATA
POINTS                 144 float
  0.000000000000E+00  0.000000000000E+00  0.000000000000E+00
  0.113538098335E+01  0.000000000000E+00 -0.658124566078E+00
  0.113538098335E+01  0.000000000000E+00  0.658124566078E+00
  0.192375373840E+01  0.192375373840E+01  0.000000000000E+00
  0.305913543701E+01  0.192375373840E+01 -0.658124983311E+00
  0.305913543701E+01  0.192375373840E+01  0.658124983311E+00
  0.423028087616E+01  0.000000000000E+00 -0.108747220039E+01
  0.423028087616E+01  0.000000000000E+00  0.108747220039E+01
  0.547033166885E+01  0.547033166885E+01  0.000000000000E+00
  0.615403699875E+01  0.192375373840E+01 -0.108747279644E+01
  0.615403699875E+01  0.192375373840E+01  0.108747279644E+01
  0.660571479797E+01  0.547033166885E+01 -0.658125698566E+00
  0.660571479797E+01  0.547033166885E+01  0.658125698566E+00
  0.939508819580E+01  0.000000000000E+00 -0.980745851994E+00
  0.939508819580E+01  0.000000000000E+00  0.980745851994E+00
  0.970061969757E+01  0.547033166885E+01 -0.108747410774E+01
  0.970061969757E+01  0.547033166885E+01  0.108747410774E+01
  0.113188476562E+02  0.192375373840E+01 -0.980746448040E+00
  0.113188476562E+02  0.192375373840E+01  0.980746448040E+00
  0.113820018768E+02  0.113820018768E+02  0.000000000000E+00
  0.125173873901E+02  0.113820018768E+02 -0.658127009869E+00
  0.125173873901E+02  0.113820018768E+02  0.658127009869E+00
  0.145402030945E+02  0.000000000000E+00 -0.479613035917E+00
  0.145402030945E+02  0.000000000000E+00  0.479613035917E+00
  0.148654365540E+02  0.547033166885E+01 -0.980747580528E+00
  0.148654365540E+02  0.547033166885E+01  0.980747580528E+00
  0.156122989655E+02  0.113820018768E+02 -0.108747613430E+01
  0.156122989655E+02  0.113820018768E+02  0.108747613430E+01
  0.164639663696E+02  0.192375373840E+01 -0.479613333941E+00
  0.164639663696E+02  0.192375373840E+01  0.479613333941E+00
  0.176505107880E+02  0.000000000000E+00 -0.144198849797E+00
  0.176505107880E+02  0.000000000000E+00  0.144198849797E+00
  0.190000000000E+02  0.000000000000E+00  0.000000000000E+00
  0.195742740631E+02  0.192375373840E+01 -0.144198939204E+00
  0.195742740631E+02  0.192375373840E+01  0.144198939204E+00
  0.197561950684E+02  0.197561950684E+02  0.000000000000E+00
  0.200105609894E+02  0.547033166885E+01 -0.479613870382E+00
  0.200105609894E+02  0.547033166885E+01  0.479613870382E+00
  0.207771244049E+02  0.113820018768E+02 -0.980749428272E+00
  0.207771244049E+02  0.113820018768E+02  0.980749428272E+00
  0.208915824890E+02  0.197561950684E+02 -0.658128738403E+00
  0.208915824890E+02  0.197561950684E+02  0.658128738403E+00
  0.209237651825E+02  0.192375373840E+01  0.000000000000E+00
  0.231208724976E+02  0.547033166885E+01 -0.144199103117E+00
  0.231208724976E+02  0.547033166885E+01  0.144199103117E+00
  0.239865016937E+02  0.197561950684E+02 -0.108747911453E+01
  0.239865016937E+02  0.197561950684E+02  0.108747911453E+01
  0.244703655243E+02  0.547033166885E+01  0.000000000000E+00
  0.259222583771E+02  0.113820018768E+02 -0.479614794254E+00
  0.259222583771E+02  0.113820018768E+02  0.479614794254E+00
  0.290325775146E+02  0.113820018768E+02 -0.144199386239E+00
  0.290325775146E+02  0.113820018768E+02  0.144199386239E+00
  0.291513423920E+02  0.197561950684E+02 -0.980752110481E+00
  0.291513423920E+02  0.197561950684E+02  0.980752110481E+00
  0.292438049316E+02  0.292438049316E+02  0.000000000000E+00
  0.303791980743E+02  0.292438049316E+02 -0.658130764961E+00
  0.303791980743E+02  0.292438049316E+02  0.658130764961E+00
  0.303820724487E+02  0.113820018768E+02  0.000000000000E+00
  0.334741249084E+02  0.292438049316E+02 -0.108748245239E+01
  0.334741249084E+02  0.292438049316E+02  0.108748245239E+01
  0.342964897156E+02  0.197561950684E+02 -0.479616105556E+00
  0.342964897156E+02  0.197561950684E+02  0.479616105556E+00
  0.374068183899E+02  0.197561950684E+02 -0.144199773669E+00
  0.374068183899E+02  0.197561950684E+02  0.144199773669E+00
  0.376179962158E+02  0.376179962158E+02  0.000000000000E+00
  0.386389808655E+02  0.292438049316E+02 -0.980755090714E+00
  0.386389808655E+02  0.292438049316E+02  0.980755090714E+00
  0.387533912659E+02  0.376179962158E+02 -0.658132553101E+00
  0.387533912659E+02  0.376179962158E+02  0.658132553101E+00
  0.387563171387E+02  0.197561950684E+02  0.000000000000E+00
  0.418483314514E+02  0.376179962158E+02 -0.108748543262E+01
  0.418483314514E+02  0.376179962158E+02  0.108748543262E+01
  0.435296669006E+02  0.435296669006E+02  0.000000000000E+00
  0.437841453552E+02  0.292438049316E+02 -0.479617565870E+00
  0.437841453552E+02  0.292438049316E+02  0.479617565870E+00
  0.446650657654E+02  0.435296669006E+02 -0.658133804798E+00
  0.446650657654E+02  0.435296669006E+02  0.658133804798E+00
  0.468944816589E+02  0.292438049316E+02 -0.144200220704E+00
  0.468944816589E+02  0.292438049316E+02  0.144200220704E+00
  0.470131988525E+02  0.376179962158E+02 -0.980757772923E+00
  0.470131988525E+02  0.376179962158E+02  0.980757772923E+00
  0.470762481689E+02  0.470762481689E+02  0.000000000000E+00
  0.477600097656E+02  0.435296669006E+02 -0.108748745918E+01
  0.477600097656E+02  0.435296669006E+02  0.108748745918E+01
  0.482116432190E+02  0.470762481689E+02 -0.658134579659E+00
  0.482116432190E+02  0.470762481689E+02  0.658134579659E+00
  0.482439842224E+02  0.292438049316E+02  0.000000000000E+00
  0.490000000000E+02  0.490000000000E+02  0.000000000000E+00
  0.501353988647E+02  0.490000000000E+02 -0.658134996891E+00
  0.501353988647E+02  0.490000000000E+02  0.658134996891E+00
  0.506007728577E+02  0.494653701782E+02 -0.465371757746E+00
  0.506007728577E+02  0.494653701782E+02  0.465371757746E+00
  0.507935333252E+02  0.496581344604E+02 -0.771266485397E-15
  0.513065910339E+02  0.470762481689E+02 -0.108748877048E+01
  0.513065910339E+02  0.470762481689E+02  0.108748877048E+01
  0.521583786011E+02  0.376179962158E+02 -0.479618877172E+00
  0.521583786011E+02  0.376179962158E+02  0.479618877172E+00
  0.529248886108E+02  0.435296669006E+02 -0.980759620667E+00
  0.529248886108E+02  0.435296669006E+02  0.980759620667E+00
  0.532303466797E+02  0.490000000000E+02 -0.108748936653E+01
  0.532303466797E+02  0.490000000000E+02  0.108748936653E+01
  0.539993209839E+02  0.497689704895E+02 -0.768971264362E+00
  0.539993209839E+02  0.497689704895E+02  0.768971264362E+00
  0.543178405762E+02  0.500874900818E+02 -0.157378642191E-15
  0.552687225342E+02  0.376179962158E+02 -0.144200608134E+00
  0.552687225342E+02  0.376179962158E+02  0.144200608134E+00
  0.564714775085E+02  0.470762481689E+02 -0.980760753155E+00
  0.564714775085E+02  0.470762481689E+02  0.980760753155E+00
  0.566182289124E+02  0.376179962158E+02  0.000000000000E+00
  0.580700759888E+02  0.435296669006E+02 -0.479619771242E+00
  0.580700759888E+02  0.435296669006E+02  0.479619771242E+00
  0.583952369690E+02  0.490000000000E+02 -0.980761349201E+00
  0.583952369690E+02  0.490000000000E+02  0.980761349201E+00
  0.590887413025E+02  0.496935043335E+02 -0.693503141403E+00
  0.590887413025E+02  0.496935043335E+02  0.693503141403E+00
  0.593759994507E+02  0.499807624817E+02  0.000000000000E+00
  0.611804275513E+02  0.435296669006E+02 -0.144200876355E+00
  0.611804275513E+02  0.435296669006E+02  0.144200876355E+00
  0.616166725159E+02  0.470762481689E+02 -0.479620337486E+00
  0.616166725159E+02  0.470762481689E+02  0.479620337486E+00
  0.625299339294E+02  0.435296669006E+02  0.000000000000E+00
  0.635404319763E+02  0.490000000000E+02 -0.479620635509E+00
  0.635404319763E+02  0.490000000000E+02  0.479620635509E+00
  0.638795776367E+02  0.493391418457E+02 -0.339143037796E+00
  0.638795776367E+02  0.493391418457E+02  0.339143037796E+00
  0.640200576782E+02  0.494796218872E+02  0.296956834055E-15
  0.647270278931E+02  0.470762481689E+02 -0.144201040268E+00
  0.647270278931E+02  0.470762481689E+02  0.144201040268E+00
  0.660765380859E+02  0.470762481689E+02  0.000000000000E+00
  0.666507873535E+02  0.490000000000E+02 -0.144201144576E+00
  0.666507873535E+02  0.490000000000E+02  0.144201144576E+00
  0.667527542114E+02  0.491019668579E+02 -0.101965606213E+00
  0.667527542114E+02  0.491019668579E+02  0.101965606213E+00
  0.667949905396E+02  0.491441993713E+02 -0.260488604752E-16
  0.680002975464E+02  0.490000000000E+02  0.000000000000E+00
  0.209237651825E+02  0.192375373840E+01  0.000000000000E+00
  0.190000000000E+02  0.000000000000E+00  0.000000000000E+00
  0.244703655243E+02  0.547033166885E+01  0.000000000000E+00
  0.303820724487E+02  0.113820018768E+02  0.000000000000E+00
  0.387563171387E+02  0.197561950684E+02  0.000000000000E+00
  0.482439842224E+02  0.292438049316E+02  0.000000000000E+00
  0.566182289124E+02  0.376179962158E+02  0.000000000000E+00
  0.625299339294E+02  0.435296669006E+02  0.000000000000E+00
  0.660765380859E+02  0.470762481689E+02  0.000000000000E+00
POLYGONS                 256                1024
3                  32                  33                  42
3                  32                  30                  33
3                  30                  28                  33
3                  30                  22                  28
3                  22                  17                  28
3                  22                  13                  17
3                  13                   6                  17
3                  17                   6                   9
3                   6                   1                   9
3                   9                   1                   4
3                   1                   0                   4
3                   4                   0                   3
3                   0                   5                   3
3                   0                   2                   5
3                   2                  10                   5
3                   2                   7                  10
[...]
CELL_DATA                 256
SCALARS sigma float 1
LOOKUP_TABLE default
  0.000000000000E+00
  0.000000000000E+00
  0.000000000000E+00
  0.000000000000E+00
  0.000000000000E+00
  0.000000000000E+00
  0.000000000000E+00
  0.000000000000E+00
  0.000000000000E+00
  0.000000000000E+00
  0.000000000000E+00
  0.000000000000E+00
  0.000000000000E+00
  0.000000000000E+00
  0.000000000000E+00
  0.000000000000E+00
  0.000000000000E+00
  0.000000000000E+00
  0.000000000000E+00
  0.000000000000E+00
  0.000000000000E+00
  0.000000000000E+00
  0.000000000000E+00
  0.000000000000E+00
  0.000000000000E+00
  0.000000000000E+00
  0.000000000000E+00
  0.000000000000E+00
  0.000000000000E+00
  0.000000000000E+00
  0.000000000000E+00
  0.000000000000E+00
  0.000000000000E+00
  0.000000000000E+00
  0.000000000000E+00
  0.000000000000E+00
  0.000000000000E+00
  0.000000000000E+00
  0.000000000000E+00
  0.000000000000E+00
  0.000000000000E+00
  0.000000000000E+00
  0.000000000000E+00
  0.000000000000E+00
  0.000000000000E+00
  0.000000000000E+00
  0.000000000000E+00
  0.000000000000E+00
  0.000000000000E+00
  0.000000000000E+00
  0.000000000000E+00
  0.000000000000E+00
  0.000000000000E+00
  0.000000000000E+00
  0.000000000000E+00
  0.000000000000E+00
  0.000000000000E+00
  0.000000000000E+00
  0.000000000000E+00
  0.000000000000E+00
  0.000000000000E+00
  0.000000000000E+00
  0.000000000000E+00
  0.000000000000E+00
  0.000000000000E+00
  0.000000000000E+00
  0.000000000000E+00
  0.000000000000E+00
  0.000000000000E+00
  0.000000000000E+00
  0.000000000000E+00
  0.000000000000E+00
  0.000000000000E+00
  0.000000000000E+00
  0.000000000000E+00
  0.000000000000E+00
  0.000000000000E+00
  0.000000000000E+00
  0.000000000000E+00
  0.000000000000E+00
  0.000000000000E+00
  0.000000000000E+00
  0.000000000000E+00
  0.000000000000E+00
  0.000000000000E+00
  0.000000000000E+00
  0.000000000000E+00
  0.000000000000E+00
  0.000000000000E+00
  0.000000000000E+00
  0.000000000000E+00
  0.000000000000E+00
  0.000000000000E+00
  0.000000000000E+00
  0.000000000000E+00
  0.000000000000E+00
  0.000000000000E+00
  0.000000000000E+00
  0.000000000000E+00
  0.000000000000E+00
  0.000000000000E+00
  0.000000000000E+00
  0.000000000000E+00
  0.000000000000E+00
  0.000000000000E+00
  0.000000000000E+00
  0.000000000000E+00
  0.000000000000E+00
  0.000000000000E+00
  0.000000000000E+00
  0.000000000000E+00
  0.000000000000E+00
  0.000000000000E+00
  0.000000000000E+00
  0.000000000000E+00
  0.000000000000E+00
  0.000000000000E+00
  0.000000000000E+00
  0.000000000000E+00
  0.000000000000E+00
  0.000000000000E+00
  0.000000000000E+00
  0.000000000000E+00
  0.000000000000E+00
  0.000000000000E+00
  0.000000000000E+00
  0.000000000000E+00
  0.000000000000E+00
  0.000000000000E+00
  0.000000000000E+00
  0.000000000000E+00
  0.000000000000E+00
  0.000000000000E+00
  0.000000000000E+00
  0.000000000000E+00
  0.000000000000E+00
  0.000000000000E+00
  0.000000000000E+00
  0.000000000000E+00
  0.000000000000E+00
  0.000000000000E+00
  0.000000000000E+00
  0.000000000000E+00
  0.000000000000E+00
  0.000000000000E+00
  0.000000000000E+00
  0.000000000000E+00
  0.000000000000E+00
  0.000000000000E+00
  0.000000000000E+00
  0.000000000000E+00
  0.000000000000E+00
  0.000000000000E+00
  0.000000000000E+00
  0.000000000000E+00
  0.000000000000E+00
  0.000000000000E+00
  0.000000000000E+00
  0.000000000000E+00
  0.000000000000E+00
  0.000000000000E+00
  0.000000000000E+00
  0.000000000000E+00
  0.000000000000E+00
  0.000000000000E+00
  0.000000000000E+00
  0.000000000000E+00
  0.000000000000E+00
  0.000000000000E+00
  0.000000000000E+00
  0.000000000000E+00
  0.000000000000E+00
  0.000000000000E+00
  0.000000000000E+00
  0.000000000000E+00
  0.000000000000E+00
  0.000000000000E+00
  0.000000000000E+00
  0.000000000000E+00
  0.000000000000E+00
  0.000000000000E+00
  0.000000000000E+00
  0.000000000000E+00
  0.000000000000E+00
  0.000000000000E+00
  0.000000000000E+00
  0.000000000000E+00
  0.000000000000E+00
  0.000000000000E+00
  0.000000000000E+00
  0.000000000000E+00
  0.000000000000E+00
  0.000000000000E+00
  0.000000000000E+00
  0.000000000000E+00
  0.000000000000E+00
  0.000000000000E+00
  0.000000000000E+00
  0.000000000000E+00
  0.000000000000E+00
  0.000000000000E+00
  0.000000000000E+00
  0.000000000000E+00
  0.000000000000E+00
  0.000000000000E+00
  0.000000000000E+00
  0.000000000000E+00
  0.000000000000E+00
  0.000000000000E+00
  0.000000000000E+00
  0.000000000000E+00
  0.000000000000E+00
  0.000000000000E+00
  0.000000000000E+00
  0.000000000000E+00
  0.000000000000E+00
  0.000000000000E+00
  0.000000000000E+00
  0.000000000000E+00
  0.000000000000E+00
  0.000000000000E+00
  0.000000000000E+00
  0.000000000000E+00
  0.000000000000E+00
  0.000000000000E+00
  0.000000000000E+00
  0.000000000000E+00
  0.000000000000E+00
  0.000000000000E+00
  0.000000000000E+00
  0.000000000000E+00
  0.000000000000E+00
  0.000000000000E+00
  0.000000000000E+00
  0.000000000000E+00
  0.000000000000E+00
  0.000000000000E+00
  0.000000000000E+00
  0.000000000000E+00
  0.000000000000E+00
  0.000000000000E+00
  0.000000000000E+00
  0.000000000000E+00
  0.000000000000E+00
  0.000000000000E+00
  0.000000000000E+00
  0.000000000000E+00
  0.000000000000E+00
  0.000000000000E+00
  0.000000000000E+00
  0.000000000000E+00
  0.000000000000E+00
  0.000000000000E+00
  0.000000000000E+00
  0.000000000000E+00
  0.000000000000E+00
SCALARS C_p_inc float 1
LOOKUP_TABLE default
  0.122973252846E+00
  0.930574980845E-01
  0.494963060957E-01
  0.237667987223E-01
 -0.205035750843E-01
 -0.391736079232E-01
 -0.163884654615E-01
 -0.363283371864E-01
  0.167827250389E+00
  0.886175987905E-01
  0.552022360900E+00
  0.549353623020E+00
 -0.309971628474E+00
  0.111199549337E+00
 -0.548830000812E+00
 -0.370795797263E+00
 -0.412350391551E+00
 -0.417951981807E+00
 -0.302049043560E+00
 -0.246825889367E+00
 -0.133438296553E+00
 -0.620324669507E-01
  0.173812160494E-01
  0.964067690342E-01
  0.121606857633E+00
  0.121454928394E+00
  0.575270695451E-01
  0.494089545679E-01
 -0.699434271044E-02
 -0.203795595482E-01
 -0.361197373807E-01
 -0.400441052706E-01
  0.879970790857E-01
  0.811720396952E-01
  0.481492633010E+00
  0.485126270394E+00
 -0.525261135093E+00
 -0.303399004727E+00
 -0.658825087266E+00
 -0.541508434020E+00
 -0.422732960532E+00
 -0.426092209158E+00
 -0.247308093088E+00
 -0.198571177496E+00
 -0.618368446177E-01
 -0.207440777219E-01
  0.935122143732E-01
  0.108356323901E+00
  0.121561315979E+00
  0.120870698019E+00
  0.579285146851E-01
  0.573004345791E-01
 -0.164947309790E-02
 -0.679919608952E-02
 -0.400999592551E-01
 -0.292694911743E-01
  0.806504067764E-01
  0.982587995210E-01
  0.485076586383E+00
  0.488403540429E+00
 -0.656997841251E+00
 -0.523354069906E+00
 -0.716871231919E+00
 -0.661478592598E+00
 -0.421502484519E+00
 -0.434928811654E+00
 -0.199528574250E+00
 -0.176252467737E+00
 -0.207550426840E-01
 -0.742773711585E-02
  0.108275791954E+00
  0.114840375482E+00
  0.120020923843E+00
  0.120807578498E+00
  0.562981935852E-01
  0.576499086417E-01
 -0.115813605919E-02
 -0.153611600284E-02
 -0.292851093736E-01
 -0.233389402781E-01
  0.986760786596E-01
  0.114473229716E+00
  0.496141237870E+00
  0.497319167444E+00
 -0.720826309803E+00
 -0.657199647734E+00
 -0.742017515428E+00
 -0.722084205434E+00
 -0.424060021947E+00
 -0.428158414550E+00
 -0.177173874460E+00
 -0.169705267128E+00
 -0.735779932625E-02
 -0.529651645510E-03
  0.115631483600E+00
  0.121024830031E+00
  0.113577733721E+00
  0.118821445176E+00
  0.485567188813E-01
  0.558259164440E-01
 -0.755017418535E-02
 -0.112592444307E-02
 -0.231738911393E-01
 -0.268482361900E-01
  0.114404449197E+00
  0.116462506247E+00
  0.500019124067E+00
  0.500107191708E+00
 -0.737119840150E+00
 -0.721077595761E+00
 -0.745135429196E+00
 -0.744597848987E+00
 -0.418792080737E+00
 -0.427117347947E+00
 -0.170532357980E+00
 -0.159572090951E+00
 -0.490878886138E-03
  0.129112908006E-01
  0.122167645021E+00
  0.134497025631E+00
  0.105943128641E+00
  0.110804178865E+00
  0.334931791817E-01
  0.473156140088E-01
 -0.276744942608E-01
 -0.766780157894E-02
 -0.265650672309E-01
 -0.470192038530E-01
  0.115399780674E+00
  0.100284074440E+00
  0.496953574608E+00
  0.496965233897E+00
 -0.709504484469E+00
 -0.737105659694E+00
 -0.723746433833E+00
 -0.746981700030E+00
 -0.397478062859E+00
 -0.421919085643E+00
 -0.160229481202E+00
 -0.133145188654E+00
  0.128909826058E-01
  0.490550256026E-01
  0.136346315672E+00
  0.172351440489E+00
  0.201571954995E+00
  0.948186466242E-01
  0.526404390044E-02
  0.275466757217E-01
 -0.743603806568E-01
 -0.289414783759E-01
 -0.471678057278E-01
 -0.974368335399E-01
  0.968061348955E-01
  0.571266756594E-01
  0.484627158940E+00
  0.484851221034E+00
 -0.650188942675E+00
 -0.709090108674E+00
 -0.685686067838E+00
 -0.725182446935E+00
 -0.364535348385E+00
 -0.401380193740E+00
 -0.132865806163E+00
 -0.960865594379E-01
  0.490841460610E-01
  0.107348677586E+00
  0.174625250085E+00
  0.346769404612E+00
 -0.225803044668E+02
 -0.113039760407E+00
  0.694539677130E+00
 -0.121488015457E+00
 -0.446246620679E+00
 -0.830161171006E-01
 -0.103858979207E+00
 -0.171685076383E+00
  0.458585668950E-01
 -0.273090045116E-01
  0.451692896550E+00
  0.453950015165E+00
 -0.576477076859E+00
 -0.648989923463E+00
 -0.635687952746E+00
 -0.686012997754E+00
 -0.326010324157E+00
 -0.369627959686E+00
 -0.946670683455E-01
 -0.334924120401E+00
  0.672534784832E-01
  0.768878731133E+00
 -0.239080812303E+00
 -0.220402706774E+02
 -0.406991299111E+08
 -0.212511086304E+05
 -0.119517942963E+05
  0.890280960572E+00
  0.332449058143E-01
 -0.435189534854E+00
 -0.227802914035E+00
 -0.275087366194E+00
 -0.638915403892E-01
 -0.928396912214E-01
  0.320476052258E+00
  0.344791433280E+00
 -0.476720812540E+00
 -0.574054910633E+00
 -0.461884756964E+00
 -0.659875778812E+00
 -0.346824343384E+00
 -0.333849579620E+00
 -0.365200295565E+00
 -0.528623505409E+00
  0.873932442924E+00
 -0.118760165025E+05
 -0.211342444712E+05
 -0.407014334253E+08
 -0.847708515377E+08
 -0.481103163837E+06
 -0.180015658318E+05
 -0.259007202341E+02
 -0.326485696421E+00
 -0.529984687905E+00
 -0.404466813812E+00
 -0.233340777582E+00
 -0.250792341351E+00
 -0.555053205743E-01
 -0.482503184511E+00
 -0.396562389260E+00
 -0.535107536056E+00
 -0.476175381032E+00
 -0.382422863408E+00
  0.561721076890E+00
 -0.373512330129E+02
 -0.181598115661E+05
 -0.479110082704E+06
 -0.847557773802E+08
 -0.579374606068E+08
 -0.575608423158E+06
 -0.215269832130E+05
 -0.391629870931E+02
 -0.504342954542E-01
 -0.699829902296E+00
 -0.565007436842E+00
 -0.383050575441E+00
 -0.399883959179E+00
 -0.265323008967E+00
 -0.409968278027E+00
 -0.447479231335E+00
 -0.469005462386E+00
 -0.599580702914E+00
 -0.535819495733E+00
  0.996475370243E+00
 -0.588522778364E+02
 -0.216816493927E+05
 -0.572574027405E+06
 -0.579247902760E+08
SCALARS inclination float 1
LOOKUP_TABLE default
  0.100000000000E+01
  0.100000000000E+01
  0.100000000000E+01
  0.100000000000E+01
  0.100000000000E+01
  0.100000000000E+01
  0.100000000000E+01
  0.100000000000E+01
  0.100000000000E+01
  0.100000000000E+01
  0.100000000000E+01
  0.100000000000E+01
  0.100000000000E+01
  0.100000000000E+01
  0.100000000000E+01
  0.100000000000E+01
  0.100000000000E+01
  0.100000000000E+01
  0.100000000000E+01
  0.100000000000E+01
  0.100000000000E+01
  0.100000000000E+01
  0.100000000000E+01
  0.100000000000E+01
  0.100000000000E+01
  0.100000000000E+01
  0.100000000000E+01
  0.100000000000E+01
  0.100000000000E+01
  0.100000000000E+01
  0.100000000000E+01
  0.100000000000E+01
  0.100000000000E+01
  0.100000000000E+01
  0.100000000000E+01
  0.100000000000E+01
  0.100000000000E+01
  0.100000000000E+01
  0.100000000000E+01
  0.100000000000E+01
  0.100000000000E+01
  0.100000000000E+01
  0.100000000000E+01
  0.100000000000E+01
  0.100000000000E+01
  0.100000000000E+01
  0.100000000000E+01
  0.100000000000E+01
  0.100000000000E+01
  0.100000000000E+01
  0.100000000000E+01
  0.100000000000E+01
  0.100000000000E+01
  0.100000000000E+01
  0.100000000000E+01
  0.100000000000E+01
  0.100000000000E+01
  0.100000000000E+01
  0.100000000000E+01
  0.100000000000E+01
  0.100000000000E+01
  0.100000000000E+01
  0.100000000000E+01
  0.100000000000E+01
  0.100000000000E+01
  0.100000000000E+01
  0.100000000000E+01
  0.100000000000E+01
  0.100000000000E+01
  0.100000000000E+01
  0.100000000000E+01
  0.100000000000E+01
  0.100000000000E+01
  0.100000000000E+01
  0.100000000000E+01
  0.100000000000E+01
  0.100000000000E+01
  0.100000000000E+01
  0.100000000000E+01
  0.100000000000E+01
  0.100000000000E+01
  0.100000000000E+01
  0.100000000000E+01
  0.100000000000E+01
  0.100000000000E+01
  0.100000000000E+01
  0.100000000000E+01
  0.100000000000E+01
  0.100000000000E+01
  0.100000000000E+01
  0.100000000000E+01
  0.100000000000E+01
  0.100000000000E+01
  0.100000000000E+01
  0.100000000000E+01
  0.100000000000E+01
  0.100000000000E+01
  0.100000000000E+01
  0.100000000000E+01
  0.100000000000E+01
  0.100000000000E+01
  0.100000000000E+01
  0.100000000000E+01
  0.100000000000E+01
  0.100000000000E+01
  0.100000000000E+01
  0.100000000000E+01
  0.100000000000E+01
  0.100000000000E+01
  0.100000000000E+01
  0.100000000000E+01
  0.100000000000E+01
  0.100000000000E+01
  0.100000000000E+01
  0.100000000000E+01
  0.100000000000E+01
  0.100000000000E+01
  0.100000000000E+01
  0.100000000000E+01
  0.100000000000E+01
  0.100000000000E+01
  0.100000000000E+01
  0.100000000000E+01
  0.100000000000E+01
  0.100000000000E+01
  0.100000000000E+01
  0.100000000000E+01
  0.100000000000E+01
  0.100000000000E+01
  0.100000000000E+01
  0.100000000000E+01
  0.100000000000E+01
  0.100000000000E+01
  0.100000000000E+01
  0.100000000000E+01
  0.100000000000E+01
  0.100000000000E+01
  0.100000000000E+01
  0.100000000000E+01
  0.100000000000E+01
  0.100000000000E+01
  0.100000000000E+01
  0.100000000000E+01
  0.100000000000E+01
  0.100000000000E+01
  0.100000000000E+01
  0.100000000000E+01
  0.100000000000E+01
  0.100000000000E+01
  0.100000000000E+01
  0.100000000000E+01
  0.100000000000E+01
  0.100000000000E+01
  0.100000000000E+01
  0.100000000000E+01
  0.100000000000E+01
  0.100000000000E+01
  0.100000000000E+01
  0.100000000000E+01
  0.100000000000E+01
  0.100000000000E+01
  0.100000000000E+01
  0.100000000000E+01
  0.100000000000E+01
  0.100000000000E+01
  0.100000000000E+01
  0.100000000000E+01
  0.100000000000E+01
  0.100000000000E+01
  0.100000000000E+01
  0.100000000000E+01
  0.100000000000E+01
  0.100000000000E+01
  0.100000000000E+01
  0.100000000000E+01
  0.100000000000E+01
  0.100000000000E+01
  0.100000000000E+01
  0.100000000000E+01
  0.100000000000E+01
  0.100000000000E+01
  0.100000000000E+01
  0.100000000000E+01
  0.100000000000E+01
  0.100000000000E+01
  0.100000000000E+01
  0.100000000000E+01
  0.100000000000E+01
  0.100000000000E+01
  0.100000000000E+01
  0.100000000000E+01
  0.100000000000E+01
  0.100000000000E+01
  0.100000000000E+01
  0.100000000000E+01
  0.100000000000E+01
  0.100000000000E+01
  0.100000000000E+01
  0.100000000000E+01
  0.100000000000E+01
  0.100000000000E+01
  0.100000000000E+01
  0.100000000000E+01
  0.100000000000E+01
  0.100000000000E+01
  0.100000000000E+01
  0.100000000000E+01
  0.100000000000E+01
  0.100000000000E+01
  0.100000000000E+01
  0.100000000000E+01
  0.100000000000E+01
  0.100000000000E+01
  0.100000000000E+01
  0.100000000000E+01
  0.100000000000E+01
  0.100000000000E+01
  0.100000000000E+01
  0.100000000000E+01
  0.100000000000E+01
  0.100000000000E+01
  0.100000000000E+01
  0.100000000000E+01
  0.100000000000E+01
  0.100000000000E+01
  0.100000000000E+01
  0.100000000000E+01
  0.100000000000E+01
  0.100000000000E+01
  0.100000000000E+01
  0.100000000000E+01
  0.100000000000E+01
  0.100000000000E+01
  0.100000000000E+01
  0.100000000000E+01
  0.100000000000E+01
  0.100000000000E+01
  0.100000000000E+01
  0.100000000000E+01
  0.100000000000E+01
  0.100000000000E+01
  0.100000000000E+01
  0.100000000000E+01
  0.100000000000E+01
  0.100000000000E+01
  0.100000000000E+01
  0.100000000000E+01
  0.100000000000E+01
  0.100000000000E+01
  0.100000000000E+01
  0.100000000000E+01
  0.100000000000E+01
  0.100000000000E+01
  0.100000000000E+01
  0.100000000000E+01
  0.100000000000E+01
VECTORS v float
  0.151782599319E+03  0.362403865538E+01  0.158313781141E+02
  0.154357599232E+03  0.288192562287E+01  0.161858394062E+02
  0.157988417051E+03 -0.748910151821E+00  0.171181732247E+02
  0.160128651349E+03  0.586290904153E+00  0.172049761620E+02
  0.163828195595E+03 -0.311327182724E+01  0.162600539108E+02
  0.165373272595E+03 -0.551804529269E+00  0.161610584985E+02
  0.164294538038E+03  0.526929277730E+00  0.338411808541E+01
  0.165818453004E+03 -0.509652216997E+01  0.353181195341E+01
  0.146894614430E+03  0.138273330433E+02 -0.184600892915E+02
  0.153939457817E+03 -0.536342820754E+01 -0.220996828596E+02
  0.903703978248E+02  0.582056561697E+02 -0.186443203169E+02
  0.936277445941E+02  0.509389136485E+02 -0.247446177687E+02
  0.157624992025E+03 -0.130583337829E+02  0.989367373867E+02
  0.137343231509E+03  0.321877951415E+02  0.609534394135E+02
  0.198317015787E+03 -0.287860054204E+02  0.315054191024E+02
  0.188942438452E+03 -0.324884806878E+01  0.266622106285E+02
  0.193510530196E+03 -0.781693592447E+01 -0.416026070649E+01
  0.193841001814E+03 -0.903642089374E+01 -0.419229266197E+01
  0.185115804522E+03 -0.311193352750E+00 -0.180605402233E+02
  0.180938165515E+03 -0.723698684688E+01 -0.183282114756E+02
  0.172543876278E+03  0.115734402813E+01 -0.184822459413E+02
  0.166968465908E+03 -0.232091993308E+01 -0.182561041149E+02
  0.160658117056E+03  0.398946013101E+01 -0.167407318450E+02
  0.154020241233E+03  0.590249242474E+01 -0.158270157433E+02
  0.151810437649E+03  0.728997720385E+01  0.154426245436E+02
  0.151823891153E+03  0.728173717512E+01  0.154449469504E+02
  0.157340313787E+03  0.176528271095E+01  0.167771488566E+02
  0.158016451574E+03  0.168977286819E+01  0.168582082624E+02
  0.162741827399E+03 -0.303562530150E+01  0.161466803174E+02
  0.163833626371E+03 -0.253538349591E+01  0.162042962938E+02
  0.165818698879E+03 -0.452046619280E+01  0.351991335801E+01
  0.166111229761E+03 -0.523963403647E+01  0.354082127089E+01
  0.154167319080E+03  0.670428383051E+01 -0.204571726242E+02
  0.154767631223E+03  0.555065477060E+01 -0.207004984137E+02
  0.967931214676E+02  0.635251881957E+02 -0.192837842454E+02
  0.934794513734E+02  0.688263197350E+02 -0.142902065966E+02
  0.171595121651E+03 -0.928935054287E+01  0.104849822557E+03
  0.162308997950E+03  0.556636792410E+01  0.908560008436E+02
  0.204085491043E+03 -0.362101304197E+02  0.333356047514E+02
  0.198383726303E+03 -0.252529674143E+02  0.310245444478E+02
  0.193322104151E+03 -0.201913253545E+02 -0.441208060864E+01
  0.193505056422E+03 -0.206411013170E+02 -0.442515317778E+01
  0.180930371279E+03 -0.806637282314E+01 -0.184082346696E+02
  0.177251181810E+03 -0.975210880174E+01 -0.182140752080E+02
  0.167000874369E+03  0.498246835721E+00 -0.179555794856E+02
  0.163740304597E+03  0.862382053761E+00 -0.175646903990E+02
  0.154072484181E+03  0.105302582595E+02 -0.153380981733E+02
  0.152752013312E+03  0.113390399672E+02 -0.151105735188E+02
  0.151762318559E+03  0.856129196206E+01  0.153016450487E+02
  0.151824253178E+03  0.851378022800E+01  0.153133313613E+02
  0.157302016390E+03  0.303598482534E+01  0.166359769479E+02
  0.157354640230E+03  0.301151995668E+01  0.166442992996E+02
  0.162335583326E+03 -0.196944614004E+01  0.160032658771E+02
  0.162751376409E+03 -0.201951535984E+01  0.160486409262E+02
  0.166111170140E+03 -0.537932302647E+01  0.354370652273E+01
  0.165286867548E+03 -0.383396997896E+01  0.349473908403E+01
  0.154788657993E+03  0.666424742314E+01 -0.205489295428E+02
  0.153218351627E+03  0.909698334030E+01 -0.199935883298E+02
  0.934813786613E+02  0.688339816639E+02 -0.142868816844E+02
  0.896231266554E+02  0.740166600967E+02 -0.904629929713E+01