# vtk DataFile Version 3.0
TriPan results file. Generated by TriPan, USU AeroLab (c) 2021.
ASCII
DATASET POLYDATA
POINTS                  40 float
     19.758197784400      0.757896304131      0.000000000000
     99.634016235969      0.757896304131      8.818372454683
     19.000301361100      0.000000000000      0.000000000000
     99.624889935975      0.000000000000      8.901037445894
     20.789274215700      1.788973569870      0.000000000000
     99.646432065547      1.788973569870      8.705911277257
     22.173099517800      3.172797679900      0.000000000000
     99.663095562639      3.172797679900      8.554975208794
     23.996917724600      4.996616363530      0.000000000000
     99.685057286667      4.996616363530      8.356048401119
     26.343925476100      7.343624591830      0.000000000000
     99.713319059872      7.343624591830      8.100056461872
     29.273138046300     10.272837638900      0.000000000000
     99.748591521702     10.272837638900      7.780562499470
     32.792423248300     13.792121887200      0.000000000000
     99.790969413365     13.792121887200      7.396708358789
     36.832305908200     17.832006454500      0.000000000000
     99.839616141284     17.832006454500      6.956071809643
     41.234233856200     22.233930587800      0.000000000000
     99.892622480634     22.233930587800      6.475946394157
     45.766368866000     26.766069412200      0.000000000000
     99.947196723817     26.766069412200      5.981619083415
     50.168296814000     31.167993545500      0.000000000000
    100.000203063168     31.167993545500      5.501493667930
     54.208179473900     35.207878112800      0.000000000000
    100.048849791086     35.207878112800      5.060857118783
     57.727462768600     38.727161407500      0.000000000000
    100.091227659782     38.727161407500      4.677003186134
     60.656677246100     41.656375885000      0.000000000000
    100.126500144579     41.656375885000      4.357509015700
     63.003684997600     44.003383636500      0.000000000000
    100.154761917785     44.003383636500      4.101517076453
     64.827507019000     45.827201843300      0.000000000000
    100.176723687746     45.827201843300      3.902589852714
     66.211326599100     47.211025238000      0.000000000000
    100.193387115937     47.211025238000      3.751654408358
     67.242401123000     48.242103576700      0.000000000000
    100.205802922546     48.242103576700      3.639193438976
     68.000297546400     49.000000000000      0.000000000000
    100.214929222541     49.000000000000      3.556528447754
POLYGONS                  38                 152
3                   0                   1                   3
3                   0                   3                   2
3                   4                   5                   1
3                   4                   1                   0
3                   6                   7                   5
3                   6                   5                   4
3                   8                   9                   7
3                   8                   7                   6
3                  10                  11                   9
3                  10                   9                   8
3                  12                  13                  11
3                  12                  11                  10
3                  14                  15                  13
3                  14                  13                  12
3                  16                  17                  15
3                  16                  15                  14
3                  18                  19                  17
3                  18                  17                  16
3                  20                  21                  19
3                  20                  19                  18
3                  22                  23                  21
3                  22                  21                  20
3                  24                  25                  23
3                  24                  23                  22
3                  26                  27                  25
3                  26                  25                  24
3                  28                  29                  27
3                  28                  27                  26
3                  30                  31                  29
3                  30                  29                  28
3                  32                  33                  31
3                  32                  31                  30
3                  34                  35                  33
3                  34                  33                  32
3                  36                  37                  35
3                  36                  35                  34
3                  38                  39                  37
3                  38                  37                  36
POINT_DATA                  40
SCALARS mu float 1
LOOKUP_TABLE default
     -3.234578306108
     -3.234578306108
     -3.151989901984
     -3.151989901984
     -3.278536535253
     -3.278536535253
     -3.393955094155
     -3.393955094155
     -3.474864359605
     -3.474864359605
     -3.551253580455
     -3.551253580455
     -3.621747047238
     -3.621747047238
     -3.702589191921
     -3.702589191921
     -3.767687010350
     -3.767687010350
     -3.795719400790
     -3.795719400790
     -3.794968698829
     -3.794968698829
     -3.720457549912
     -3.720457549912
     -3.559742493996
     -3.559742493996
     -3.351380489331
     -3.351380489331
     -3.051036358329
     -3.051036358329
     -2.664252473190
     -2.664252473190
     -2.194331333178
     -2.194331333178
     -1.636089504569
     -1.636089504569
     -0.947958122120
     -0.947958122120
      0.000000000000
      0.000000000000
