# vtk DataFile Version 3.0
TriPan results file. Generated by TriPan, USU AeroLab (c) 2021.
ASCII
DATASET POLYDATA
POINTS                  34 float
     19.928474426300      0.928174138069      0.000000000000
     99.636066642421      0.928174138069      8.799800105384
     19.000301361100      0.000000000000      0.000000000000
     99.624889935975      0.000000000000      8.901037445894
     21.262266159100      2.261965751650      0.000000000000
     99.652127654334      2.261965751650      8.654321279413
     23.139236450200      4.138934612270      0.000000000000
     99.674729415511      4.138934612270      8.449597087761
     25.704246521000      6.703944683070      0.000000000000
     99.705616289593      6.703944683070      8.169827282231
     29.072515487700     10.072214126600      0.000000000000
     99.746175701283     10.072214126600      7.802444727085
     33.271335601800     14.271034240700      0.000000000000
     99.796736293475     14.271034240700      7.344472612220
     38.178768158000     19.178466796900      0.000000000000
     99.855829726735     19.178466796900      6.809210989848
     43.500301361100     24.500000000000      0.000000000000
     99.919909602226     24.500000000000      6.228782738786
     48.821834564200     29.821533203100      0.000000000000
     99.983989477716     29.821533203100      5.648354487724
     53.729267120400     34.728965759300      0.000000000000
    100.043082910977     34.728965759300      5.113092865352
     57.928085327100     38.927783966100      0.000000000000
    100.093643480201     38.927783966100      4.655120958530
     61.296356201200     42.296054840100      0.000000000000
    100.134202914858     42.296054840100      4.287738195341
     63.861366272000     44.861064910900      0.000000000000
    100.165089788941     44.861064910900      4.007968389812
     65.738334655800     46.738033294700      0.000000000000
    100.187691527151     46.738033294700      3.803244406191
     67.072128295900     48.071826934800      0.000000000000
    100.203752562031     48.071826934800      3.657765372188
     68.000297546400     49.000000000000      0.000000000000
    100.214929222541     49.000000000000      3.556528447754
POLYGONS                  32                 128
3                   0                   1                   3
3                   0                   3                   2
3                   4                   5                   1
3                   4                   1                   0
3                   6                   7                   5
3                   6                   5                   4
3                   8                   9                   7
3                   8                   7                   6
3                  10                  11                   9
3                  10                   9                   8
3                  12                  13                  11
3                  12                  11                  10
3                  14                  15                  13
3                  14                  13                  12
3                  16                  17                  15
3                  16                  15                  14
3                  18                  19                  17
3                  18                  17                  16
3                  20                  21                  19
3                  20                  19                  18
3                  22                  23                  21
3                  22                  21                  20
3                  24                  25                  23
3                  24                  23                  22
3                  26                  27                  25
3                  26                  25                  24
3                  28                  29                  27
3                  28                  27                  26
3                  30                  31                  29
3                  30                  29                  28
3                  32                  33                  31
3                  32                  31                  30
POINT_DATA                  34
SCALARS mu float 1
LOOKUP_TABLE default
     -3.235755522846
     -3.235755522846
     -3.215400774858
     -3.215400774858
     -3.283909869722
     -3.283909869722
     -3.354343744069
     -3.354343744069
     -3.437288546944
     -3.437288546944
     -3.532077928653
     -3.532077928653
     -3.608647634966
     -3.608647634966
     -3.662021576769
     -3.662021576769
     -3.675077556299
     -3.675077556299
     -3.619209339178
     -3.619209339178
     -3.470495525496
     -3.470495525496
     -3.213005346123
     -3.213005346123
     -2.834661901276
     -2.834661901276
     -2.335638340940
     -2.335638340940
     -1.738968867002
     -1.738968867002
     -0.999608261912
     -0.999608261912
      0.000000000000
      0.000000000000
