# vtk DataFile Version 3.0
TriPan results file. Generated by TriPan, USU AeroLab (c) 2021.
ASCII
DATASET POLYDATA
POINTS                  50 float
     19.580198288000      0.579897820950      0.000000000000
    100.000000000000      0.579897820950      0.000000000000
     19.000301361100      0.000000000000      0.000000000000
    100.000000000000      0.000000000000      0.000000000000
     20.321611404400      1.321311235430      0.000000000000
    100.000000000000      1.321311235430      0.000000000000
     21.262266159100      2.261965751650      0.000000000000
    100.000000000000      2.261965751650      0.000000000000
     22.444129943800      3.443829536440      0.000000000000
    100.000000000000      3.443829536440      0.000000000000
     23.911006927500      4.910706520080      0.000000000000
    100.000000000000      4.910706520080      0.000000000000
     25.704246521000      6.703944683070      0.000000000000
    100.000000000000      6.703944683070      0.000000000000
     27.856279373200      8.855978012080      0.000000000000
    100.000000000000      8.855978012080      0.000000000000
     30.382303237900     11.382001876800      0.000000000000
    100.000000000000     11.382001876800      0.000000000000
     33.271335601800     14.271034240700      0.000000000000
    100.000000000000     14.271034240700      0.000000000000
     36.479064941400     17.478763580300      0.000000000000
    100.000000000000     17.478763580300      0.000000000000
     39.925552368200     20.925249099700      0.000000000000
    100.000000000000     20.925249099700      0.000000000000
     43.500301361100     24.500000000000      0.000000000000
    100.000000000000     24.500000000000      0.000000000000
     47.075050354000     28.074750900300      0.000000000000
    100.000000000000     28.074750900300      0.000000000000
     50.521537780800     31.521236419700      0.000000000000
    100.000000000000     31.521236419700      0.000000000000
     53.729267120400     34.728965759300      0.000000000000
    100.000000000000     34.728965759300      0.000000000000
     56.618297576900     37.617996215800      0.000000000000
    100.000000000000     37.617996215800      0.000000000000
     59.144321441700     40.144020080600      0.000000000000
    100.000000000000     40.144020080600      0.000000000000
     61.296356201200     42.296054840100      0.000000000000
    100.000000000000     42.296054840100      0.000000000000
     63.089595794700     44.089294433600      0.000000000000
    100.000000000000     44.089294433600      0.000000000000
     64.556472778300     45.556171417200      0.000000000000
    100.000000000000     45.556171417200      0.000000000000
     65.738334655800     46.738033294700      0.000000000000
    100.000000000000     46.738033294700      0.000000000000
     66.678993225100     47.678688049300      0.000000000000
    100.000000000000     47.678688049300      0.000000000000
     67.420402526900     48.420101165800      0.000000000000
    100.000000000000     48.420101165800      0.000000000000
     68.000297546400     49.000000000000      0.000000000000
    100.000000000000     49.000000000000      0.000000000000
POLYGONS                  48                 192
3                   0                   1                   3
3                   0                   3                   2
3                   4                   5                   1
3                   4                   1                   0
3                   6                   7                   5
3                   6                   5                   4
3                   8                   9                   7
3                   8                   7                   6
3                  10                  11                   9
3                  10                   9                   8
3                  12                  13                  11
3                  12                  11                  10
3                  14                  15                  13
3                  14                  13                  12
3                  16                  17                  15
3                  16                  15                  14
3                  18                  19                  17
3                  18                  17                  16
3                  20                  21                  19
3                  20                  19                  18
3                  22                  23                  21
3                  22                  21                  20
3                  24                  25                  23
3                  24                  23                  22
3                  26                  27                  25
3                  26                  25                  24
3                  28                  29                  27
3                  28                  27                  26
3                  30                  31                  29
3                  30                  29                  28
3                  32                  33                  31
3                  32                  31                  30
3                  34                  35                  33
3                  34                  33                  32
3                  36                  37                  35
3                  36                  35                  34
3                  38                  39                  37
3                  38                  37                  36
3                  40                  41                  39
3                  40                  39                  38
3                  42                  43                  41
3                  42                  41                  40
3                  44                  45                  43
3                  44                  43                  42
3                  46                  47                  45
3                  46                  45                  44
3                  48                  49                  47
3                  48                  47                  46
POINT_DATA                  50
SCALARS mu float 1
LOOKUP_TABLE default
      0.000298683640
      0.000298683640
      0.000332808437
      0.000332808437
      0.000233717064
      0.000233717064
      0.000271255055
      0.000271255055
      0.001217750204
      0.001217750204
      0.001177559791
      0.001177559791
      0.000267835927
      0.000267835927
     -0.000085823441
     -0.000085823441
     -0.000009033647
     -0.000009033647
     -0.000357605716
     -0.000357605716
      0.000110874928
      0.000110874928
     -0.000904128905
     -0.000904128905
     -0.001493744352
     -0.001493744352
     -0.001623548310
     -0.001623548310
     -0.001166258100
     -0.001166258100
     -0.001148624867
     -0.001148624867
     -0.000315158065
     -0.000315158065
      0.000055019794
      0.000055019794
      0.000723140025
      0.000723140025
      0.000496380805
      0.000496380805
      0.001176407153
      0.001176407153
      0.001031552593
      0.001031552593
      0.000081869695
      0.000081869695
      0.000237782724
      0.000237782724
      0.000000000000
      0.000000000000
