# vtk DataFile Version 3.0
TriPan results file. Generated by TriPan, USU AeroLab (c) 2021.
ASCII
DATASET POLYDATA
POINTS                 144 float
  0.000000000000E+00  0.000000000000E+00  0.000000000000E+00
  0.113538098335E+01  0.000000000000E+00 -0.658124566078E+00
  0.113538098335E+01  0.000000000000E+00  0.658124566078E+00
  0.192375373840E+01  0.192375373840E+01  0.000000000000E+00
  0.305913543701E+01  0.192375373840E+01 -0.658124983311E+00
  0.305913543701E+01  0.192375373840E+01  0.658124983311E+00
  0.423028087616E+01  0.000000000000E+00 -0.108747220039E+01
  0.423028087616E+01  0.000000000000E+00  0.108747220039E+01
  0.547033166885E+01  0.547033166885E+01  0.000000000000E+00
  0.615403699875E+01  0.192375373840E+01 -0.108747279644E+01
  0.615403699875E+01  0.192375373840E+01  0.108747279644E+01
  0.660571479797E+01  0.547033166885E+01 -0.658125698566E+00
  0.660571479797E+01  0.547033166885E+01  0.658125698566E+00
  0.939508819580E+01  0.000000000000E+00 -0.980745851994E+00
  0.939508819580E+01  0.000000000000E+00  0.980745851994E+00
  0.970061969757E+01  0.547033166885E+01 -0.108747410774E+01
  0.970061969757E+01  0.547033166885E+01  0.108747410774E+01
  0.113188476562E+02  0.192375373840E+01 -0.980746448040E+00
  0.113188476562E+02  0.192375373840E+01  0.980746448040E+00
  0.113820018768E+02  0.113820018768E+02  0.000000000000E+00
  0.125173873901E+02  0.113820018768E+02 -0.658127009869E+00
  0.125173873901E+02  0.113820018768E+02  0.658127009869E+00
  0.145402030945E+02  0.000000000000E+00 -0.479613035917E+00
  0.145402030945E+02  0.000000000000E+00  0.479613035917E+00
  0.148654365540E+02  0.547033166885E+01 -0.980747580528E+00
  0.148654365540E+02  0.547033166885E+01  0.980747580528E+00
  0.156122989655E+02  0.113820018768E+02 -0.108747613430E+01
  0.156122989655E+02  0.113820018768E+02  0.108747613430E+01
  0.164639663696E+02  0.192375373840E+01 -0.479613333941E+00
  0.164639663696E+02  0.192375373840E+01  0.479613333941E+00
  0.176505107880E+02  0.000000000000E+00 -0.144198849797E+00
  0.176505107880E+02  0.000000000000E+00  0.144198849797E+00
  0.190000000000E+02  0.000000000000E+00  0.000000000000E+00
  0.195742740631E+02  0.192375373840E+01 -0.144198939204E+00
  0.195742740631E+02  0.192375373840E+01  0.144198939204E+00
  0.197561950684E+02  0.197561950684E+02  0.000000000000E+00
  0.200105609894E+02  0.547033166885E+01 -0.479613870382E+00
  0.200105609894E+02  0.547033166885E+01  0.479613870382E+00
  0.207771244049E+02  0.113820018768E+02 -0.980749428272E+00
  0.207771244049E+02  0.113820018768E+02  0.980749428272E+00
  0.208915824890E+02  0.197561950684E+02 -0.658128738403E+00
  0.208915824890E+02  0.197561950684E+02  0.658128738403E+00
  0.209237651825E+02  0.192375373840E+01  0.000000000000E+00
  0.231208724976E+02  0.547033166885E+01 -0.144199103117E+00
  0.231208724976E+02  0.547033166885E+01  0.144199103117E+00
  0.239865016937E+02  0.197561950684E+02 -0.108747911453E+01
  0.239865016937E+02  0.197561950684E+02  0.108747911453E+01
  0.244703655243E+02  0.547033166885E+01  0.000000000000E+00
  0.259222583771E+02  0.113820018768E+02 -0.479614794254E+00
  0.259222583771E+02  0.113820018768E+02  0.479614794254E+00
  0.290325775146E+02  0.113820018768E+02 -0.144199386239E+00
  0.290325775146E+02  0.113820018768E+02  0.144199386239E+00
  0.291513423920E+02  0.197561950684E+02 -0.980752110481E+00
  0.291513423920E+02  0.197561950684E+02  0.980752110481E+00
  0.292438049316E+02  0.292438049316E+02  0.000000000000E+00
  0.303791980743E+02  0.292438049316E+02 -0.658130764961E+00
  0.303791980743E+02  0.292438049316E+02  0.658130764961E+00
  0.303820724487E+02  0.113820018768E+02  0.000000000000E+00
  0.334741249084E+02  0.292438049316E+02 -0.108748245239E+01
  0.334741249084E+02  0.292438049316E+02  0.108748245239E+01
  0.342964897156E+02  0.197561950684E+02 -0.479616105556E+00
  0.342964897156E+02  0.197561950684E+02  0.479616105556E+00
  0.374068183899E+02  0.197561950684E+02 -0.144199773669E+00
  0.374068183899E+02  0.197561950684E+02  0.144199773669E+00
  0.376179962158E+02  0.376179962158E+02  0.000000000000E+00
  0.386389808655E+02  0.292438049316E+02 -0.980755090714E+00
  0.386389808655E+02  0.292438049316E+02  0.980755090714E+00
  0.387533912659E+02  0.376179962158E+02 -0.658132553101E+00
  0.387533912659E+02  0.376179962158E+02  0.658132553101E+00
  0.387563171387E+02  0.197561950684E+02  0.000000000000E+00
  0.418483314514E+02  0.376179962158E+02 -0.108748543262E+01
  0.418483314514E+02  0.376179962158E+02  0.108748543262E+01
  0.435296669006E+02  0.435296669006E+02  0.000000000000E+00
  0.437841453552E+02  0.292438049316E+02 -0.479617565870E+00
  0.437841453552E+02  0.292438049316E+02  0.479617565870E+00
  0.446650657654E+02  0.435296669006E+02 -0.658133804798E+00
  0.446650657654E+02  0.435296669006E+02  0.658133804798E+00
  0.468944816589E+02  0.292438049316E+02 -0.144200220704E+00
  0.468944816589E+02  0.292438049316E+02  0.144200220704E+00
  0.470131988525E+02  0.376179962158E+02 -0.980757772923E+00
  0.470131988525E+02  0.376179962158E+02  0.980757772923E+00
  0.470762481689E+02  0.470762481689E+02  0.000000000000E+00
  0.477600097656E+02  0.435296669006E+02 -0.108748745918E+01
  0.477600097656E+02  0.435296669006E+02  0.108748745918E+01
  0.482116432190E+02  0.470762481689E+02 -0.658134579659E+00
  0.482116432190E+02  0.470762481689E+02  0.658134579659E+00
  0.482439842224E+02  0.292438049316E+02  0.000000000000E+00
  0.490000000000E+02  0.490000000000E+02  0.000000000000E+00
  0.501353988647E+02  0.490000000000E+02 -0.658134996891E+00
  0.501353988647E+02  0.490000000000E+02  0.658134996891E+00
  0.506007728577E+02  0.494653701782E+02 -0.465371757746E+00
  0.506007728577E+02  0.494653701782E+02  0.465371757746E+00
  0.507935333252E+02  0.496581344604E+02 -0.771266485397E-15
  0.513065910339E+02  0.470762481689E+02 -0.108748877048E+01
  0.513065910339E+02  0.470762481689E+02  0.108748877048E+01
  0.521583786011E+02  0.376179962158E+02 -0.479618877172E+00
  0.521583786011E+02  0.376179962158E+02  0.479618877172E+00
  0.529248886108E+02  0.435296669006E+02 -0.980759620667E+00
  0.529248886108E+02  0.435296669006E+02  0.980759620667E+00
  0.532303466797E+02  0.490000000000E+02 -0.108748936653E+01
  0.532303466797E+02  0.490000000000E+02  0.108748936653E+01
  0.539993209839E+02  0.497689704895E+02 -0.768971264362E+00
  0.539993209839E+02  0.497689704895E+02  0.768971264362E+00
  0.543178405762E+02  0.500874900818E+02 -0.157378642191E-15
  0.552687225342E+02  0.376179962158E+02 -0.144200608134E+00
  0.552687225342E+02  0.376179962158E+02  0.144200608134E+00
  0.564714775085E+02  0.470762481689E+02 -0.980760753155E+00
  0.564714775085E+02  0.470762481689E+02  0.980760753155E+00
  0.566182289124E+02  0.376179962158E+02  0.000000000000E+00
  0.580700759888E+02  0.435296669006E+02 -0.479619771242E+00
  0.580700759888E+02  0.435296669006E+02  0.479619771242E+00
  0.583952369690E+02  0.490000000000E+02 -0.980761349201E+00
  0.583952369690E+02  0.490000000000E+02  0.980761349201E+00
  0.590887413025E+02  0.496935043335E+02 -0.693503141403E+00
  0.590887413025E+02  0.496935043335E+02  0.693503141403E+00
  0.593759994507E+02  0.499807624817E+02  0.000000000000E+00
  0.611804275513E+02  0.435296669006E+02 -0.144200876355E+00
  0.611804275513E+02  0.435296669006E+02  0.144200876355E+00
  0.616166725159E+02  0.470762481689E+02 -0.479620337486E+00
  0.616166725159E+02  0.470762481689E+02  0.479620337486E+00
  0.625299339294E+02  0.435296669006E+02  0.000000000000E+00
  0.635404319763E+02  0.490000000000E+02 -0.479620635509E+00
  0.635404319763E+02  0.490000000000E+02  0.479620635509E+00
  0.638795776367E+02  0.493391418457E+02 -0.339143037796E+00
  0.638795776367E+02  0.493391418457E+02  0.339143037796E+00
  0.640200576782E+02  0.494796218872E+02  0.296956834055E-15
  0.647270278931E+02  0.470762481689E+02 -0.144201040268E+00
  0.647270278931E+02  0.470762481689E+02  0.144201040268E+00
  0.660765380859E+02  0.470762481689E+02  0.000000000000E+00
  0.666507873535E+02  0.490000000000E+02 -0.144201144576E+00
  0.666507873535E+02  0.490000000000E+02  0.144201144576E+00
  0.667527542114E+02  0.491019668579E+02 -0.101965606213E+00
  0.667527542114E+02  0.491019668579E+02  0.101965606213E+00
  0.667949905396E+02  0.491441993713E+02 -0.260488604752E-16
  0.680002975464E+02  0.490000000000E+02  0.000000000000E+00
  0.209237651825E+02  0.192375373840E+01  0.000000000000E+00
  0.190000000000E+02  0.000000000000E+00  0.000000000000E+00
  0.244703655243E+02  0.547033166885E+01  0.000000000000E+00
  0.303820724487E+02  0.113820018768E+02  0.000000000000E+00
  0.387563171387E+02  0.197561950684E+02  0.000000000000E+00
  0.482439842224E+02  0.292438049316E+02  0.000000000000E+00
  0.566182289124E+02  0.376179962158E+02  0.000000000000E+00
  0.625299339294E+02  0.435296669006E+02  0.000000000000E+00
  0.660765380859E+02  0.470762481689E+02  0.000000000000E+00
POLYGONS                 256                1024
3                  32                  33                  42
3                  32                  30                  33
3                  30                  28                  33
3                  30                  22                  28
3                  22                  17                  28
3                  22                  13                  17
3                  13                   6                  17
3                  17                   6                   9
3                   6                   1                   9
3                   9                   1                   4
3                   1                   0                   4
3                   4                   0                   3
3                   0                   5                   3
3                   0                   2                   5
3                   2                  10                   5
3                   2                   7                  10
[...]
CELL_DATA                 256
SCALARS sigma float 1
LOOKUP_TABLE default
  0.000000000000E+00
  0.000000000000E+00
  0.000000000000E+00
  0.000000000000E+00
  0.000000000000E+00
  0.000000000000E+00
  0.000000000000E+00
  0.000000000000E+00
  0.000000000000E+00
  0.000000000000E+00
  0.000000000000E+00
  0.000000000000E+00
  0.000000000000E+00
  0.000000000000E+00
  0.000000000000E+00
  0.000000000000E+00
  0.000000000000E+00
  0.000000000000E+00
  0.000000000000E+00
  0.000000000000E+00
  0.000000000000E+00
  0.000000000000E+00
  0.000000000000E+00
  0.000000000000E+00
  0.000000000000E+00
  0.000000000000E+00
  0.000000000000E+00
  0.000000000000E+00
  0.000000000000E+00
  0.000000000000E+00
  0.000000000000E+00
  0.000000000000E+00
  0.000000000000E+00
  0.000000000000E+00
  0.000000000000E+00
  0.000000000000E+00
  0.000000000000E+00
  0.000000000000E+00
  0.000000000000E+00
  0.000000000000E+00
  0.000000000000E+00
  0.000000000000E+00
  0.000000000000E+00
  0.000000000000E+00
  0.000000000000E+00
  0.000000000000E+00
  0.000000000000E+00
  0.000000000000E+00
  0.000000000000E+00
  0.000000000000E+00
  0.000000000000E+00
  0.000000000000E+00
  0.000000000000E+00
  0.000000000000E+00
  0.000000000000E+00
  0.000000000000E+00
  0.000000000000E+00
  0.000000000000E+00
  0.000000000000E+00
  0.000000000000E+00
  0.000000000000E+00
  0.000000000000E+00
  0.000000000000E+00
  0.000000000000E+00
  0.000000000000E+00
  0.000000000000E+00
  0.000000000000E+00
  0.000000000000E+00
  0.000000000000E+00
  0.000000000000E+00
  0.000000000000E+00
  0.000000000000E+00
  0.000000000000E+00
  0.000000000000E+00
  0.000000000000E+00
  0.000000000000E+00
  0.000000000000E+00
  0.000000000000E+00
  0.000000000000E+00
  0.000000000000E+00
  0.000000000000E+00
  0.000000000000E+00
  0.000000000000E+00
  0.000000000000E+00
  0.000000000000E+00
  0.000000000000E+00
  0.000000000000E+00
  0.000000000000E+00
  0.000000000000E+00
  0.000000000000E+00
  0.000000000000E+00
  0.000000000000E+00
  0.000000000000E+00
  0.000000000000E+00
  0.000000000000E+00
  0.000000000000E+00
  0.000000000000E+00
  0.000000000000E+00
  0.000000000000E+00
  0.000000000000E+00
  0.000000000000E+00
  0.000000000000E+00
  0.000000000000E+00
  0.000000000000E+00
  0.000000000000E+00
  0.000000000000E+00
  0.000000000000E+00
  0.000000000000E+00
  0.000000000000E+00
  0.000000000000E+00
  0.000000000000E+00
  0.000000000000E+00
  0.000000000000E+00
  0.000000000000E+00
  0.000000000000E+00
  0.000000000000E+00
  0.000000000000E+00
  0.000000000000E+00
  0.000000000000E+00
  0.000000000000E+00
  0.000000000000E+00
  0.000000000000E+00
  0.000000000000E+00
  0.000000000000E+00
  0.000000000000E+00
  0.000000000000E+00
  0.000000000000E+00
  0.000000000000E+00
  0.000000000000E+00
  0.000000000000E+00
  0.000000000000E+00
  0.000000000000E+00
  0.000000000000E+00
  0.000000000000E+00
  0.000000000000E+00
  0.000000000000E+00
  0.000000000000E+00
  0.000000000000E+00
  0.000000000000E+00
  0.000000000000E+00
  0.000000000000E+00
  0.000000000000E+00
  0.000000000000E+00
  0.000000000000E+00
  0.000000000000E+00
  0.000000000000E+00
  0.000000000000E+00
  0.000000000000E+00
  0.000000000000E+00
  0.000000000000E+00
  0.000000000000E+00
  0.000000000000E+00
  0.000000000000E+00
  0.000000000000E+00
  0.000000000000E+00
  0.000000000000E+00
  0.000000000000E+00
  0.000000000000E+00
  0.000000000000E+00
  0.000000000000E+00
  0.000000000000E+00
  0.000000000000E+00
  0.000000000000E+00
  0.000000000000E+00
  0.000000000000E+00
  0.000000000000E+00
  0.000000000000E+00
  0.000000000000E+00
  0.000000000000E+00
  0.000000000000E+00
  0.000000000000E+00
  0.000000000000E+00
  0.000000000000E+00
  0.000000000000E+00
  0.000000000000E+00
  0.000000000000E+00
  0.000000000000E+00
  0.000000000000E+00
  0.000000000000E+00
  0.000000000000E+00
  0.000000000000E+00
  0.000000000000E+00
  0.000000000000E+00
  0.000000000000E+00
  0.000000000000E+00
  0.000000000000E+00
  0.000000000000E+00
  0.000000000000E+00
  0.000000000000E+00
  0.000000000000E+00
  0.000000000000E+00
  0.000000000000E+00
  0.000000000000E+00
  0.000000000000E+00
  0.000000000000E+00
  0.000000000000E+00
  0.000000000000E+00
  0.000000000000E+00
  0.000000000000E+00
  0.000000000000E+00
  0.000000000000E+00
  0.000000000000E+00
  0.000000000000E+00
  0.000000000000E+00
  0.000000000000E+00
  0.000000000000E+00
  0.000000000000E+00
  0.000000000000E+00
  0.000000000000E+00
  0.000000000000E+00
  0.000000000000E+00
  0.000000000000E+00
  0.000000000000E+00
  0.000000000000E+00
  0.000000000000E+00
  0.000000000000E+00
  0.000000000000E+00
  0.000000000000E+00
  0.000000000000E+00
  0.000000000000E+00
  0.000000000000E+00
  0.000000000000E+00
  0.000000000000E+00
  0.000000000000E+00
  0.000000000000E+00
  0.000000000000E+00
  0.000000000000E+00
  0.000000000000E+00
  0.000000000000E+00
  0.000000000000E+00
  0.000000000000E+00
  0.000000000000E+00
  0.000000000000E+00
  0.000000000000E+00
  0.000000000000E+00
  0.000000000000E+00
  0.000000000000E+00
  0.000000000000E+00
  0.000000000000E+00
  0.000000000000E+00
  0.000000000000E+00
  0.000000000000E+00
  0.000000000000E+00
  0.000000000000E+00
  0.000000000000E+00
  0.000000000000E+00
  0.000000000000E+00
  0.000000000000E+00
  0.000000000000E+00
  0.000000000000E+00
  0.000000000000E+00
  0.000000000000E+00
  0.000000000000E+00
  0.000000000000E+00
  0.000000000000E+00
  0.000000000000E+00
SCALARS C_p_inc float 1
LOOKUP_TABLE default
  0.149082518575E+00
  0.137010871915E+00
  0.103648824581E+00
  0.917336995641E-01
  0.675971660363E-01
  0.596473413533E-01
  0.117098717920E+00
  0.924379144755E-01
  0.322854275563E+00
  0.269168826722E+00
  0.627416893883E+00
  0.614636179791E+00
 -0.776449899285E+00
 -0.861542085312E-01
 -0.762880514673E+00
 -0.549114582034E+00
 -0.516571125075E+00
 -0.533171530349E+00
 -0.366347206987E+00
 -0.299325126635E+00
 -0.163611463734E+00
 -0.779927251249E-01
  0.116773463009E-01
  0.104142134851E+00
  0.141212240777E+00
  0.147917763246E+00
  0.100487192408E+00
  0.103477522453E+00
  0.704372747175E-01
  0.676951321963E-01
  0.930716178029E-01
  0.878703685138E-01
  0.258343282712E+00
  0.267046847653E+00
  0.539064184510E+00
  0.492970487613E+00
 -0.114284730318E+01
 -0.731521936325E+00
 -0.931192128905E+00
 -0.760820937854E+00
 -0.532084409770E+00
 -0.538501795414E+00
 -0.300212784594E+00
 -0.240385939653E+00
 -0.776948977343E-01
 -0.273973048279E-01
  0.100774713543E+00
  0.118098741742E+00
  0.138256165030E+00
  0.140422977846E+00
  0.956977748016E-01
  0.100138877836E+00
  0.694732931373E-01
  0.704301691337E-01
  0.877660882094E-01
  0.970168700475E-01
  0.264340417130E+00
  0.287457541791E+00
  0.499982717154E+00
  0.452552948957E+00
 -0.140224594922E+01
 -0.113261988992E+01
 -0.103278114997E+01
 -0.937271019677E+00
 -0.538694768819E+00
 -0.551744263791E+00
 -0.242261885758E+00
 -0.214052532901E+00
 -0.273893952901E-01
 -0.111966932774E-01
  0.118391347188E+00
  0.126209256185E+00
  0.134498687872E+00
  0.137219916696E+00
  0.908057653594E-01
  0.951823632876E-01
  0.668713535483E-01
  0.692538793407E-01
  0.967261559674E-01
  0.101989476889E+00
  0.287968982812E+00
  0.304427313027E+00
  0.465959707908E+00
  0.433103908567E+00
 -0.154028452893E+01
 -0.140157223399E+01
 -0.108341850635E+01
 -0.104122423793E+01
 -0.547777622197E+00
 -0.549600177045E+00
 -0.216009461060E+00
 -0.206796115104E+00
 -0.111738729087E-01
 -0.176630584792E-02
  0.127670114420E+00
  0.135834415711E+00
  0.123040872474E+00
  0.132712957042E+00
  0.767771967944E-01
  0.899030789452E-01
  0.551777538930E-01
  0.664548349840E-01
  0.101337871341E+00
  0.952079079800E-01
  0.303663890462E+00
  0.305317380005E+00
  0.437602817411E+00
  0.428280563728E+00
 -0.157660708366E+01
 -0.154069562547E+01
 -0.109109065504E+01
 -0.108831477207E+01
 -0.540201265668E+00
 -0.553743177363E+00
 -0.208754101792E+00
 -0.191237189885E+00
 -0.193430090029E-02
  0.194035323282E-01
  0.137785616149E+00
  0.157654723228E+00
  0.103721039167E+00
  0.118668335831E+00
  0.471652497702E-01
  0.744659816430E-01
  0.220477072252E-01
  0.542275546700E-01
  0.933475413030E-01
  0.657999675728E-01
  0.301476090716E+00
  0.285332562424E+00
  0.423050524355E+00
  0.439402193605E+00
 -0.151547255798E+01
 -0.157745119309E+01
 -0.104981522113E+01
 -0.109678676122E+01
 -0.501757911890E+00
 -0.548109876084E+00
 -0.193319001804E+00
 -0.148082295877E+00
  0.188211049833E-01
  0.740689903920E-01
  0.160562269207E+00
  0.213602753247E+00
  0.176127472733E+00
  0.864916680115E-01
 -0.615170438932E-02
  0.371663480586E-01
 -0.489806841048E-01
  0.183280704206E-01
  0.591294192268E-01
 -0.316438340638E-02
  0.273954806873E+00
  0.234378162991E+00
  0.418670244417E+00
  0.459100975473E+00
 -0.137935384537E+01
 -0.151675354403E+01
 -0.968435077850E+00
 -0.105898027675E+01
 -0.434937835511E+00
 -0.515654956602E+00
 -0.149698296315E+00
 -0.829392038872E-01
  0.730960246600E-01
  0.161722527651E+00
  0.217324776025E+00
  0.414279281055E+00
 -0.221125941771E+02
 -0.618940510836E-01
  0.663973169509E+00
 -0.164742995280E+00
 -0.459773748526E+00
 -0.662292655665E-01
 -0.293960269479E-01
 -0.106732857385E+00
  0.201004443345E+00
  0.132653485456E+00
  0.403590037988E+00
  0.471280623055E+00
 -0.119707284197E+01
 -0.138054348226E+01
 -0.851893717347E+00
 -0.985652947352E+00
 -0.355688248066E+00
 -0.461193239177E+00
 -0.844344281393E-01
 -0.279618358568E+00
  0.141334889922E+00
  0.778818112717E+00
 -0.259747183422E+00
 -0.211987161286E+02
 -0.397610589861E+08
 -0.207979988882E+05
 -0.116982830268E+05
  0.841584850025E+00
  0.168617577406E+00
 -0.462586080778E+00
 -0.235210572136E+00
 -0.250136680704E+00
  0.300957794048E-01
  0.794392615242E-02
  0.252418676185E+00
  0.425679611592E+00
 -0.903799966607E+00
 -0.119766445348E+01
 -0.589356968790E+00
 -0.937251466403E+00
 -0.366331230671E+00
 -0.410651035954E+00
 -0.349478844950E+00
 -0.741105808960E+00
  0.810147665236E+00
 -0.115764014539E+05
 -0.206116348148E+05
 -0.397647567606E+08
 -0.828229732133E+08
 -0.470632509509E+06
 -0.175354655478E+05
 -0.221391878502E+02
 -0.777573228175E+00
 -0.787077801202E+00
 -0.497300903980E+00
 -0.325175461733E+00
 -0.340003461901E+00
 -0.219412836956E+00
 -0.913239151423E+00
 -0.578353307956E+00
 -0.818472471252E+00
 -0.616012732427E+00
 -0.558578062305E+00
  0.650972161372E+00
 -0.405896227145E+02
 -0.177899234941E+05
 -0.467438943100E+06
 -0.827988087442E+08
 -0.566069850973E+08
 -0.563291163805E+06
 -0.209804387974E+05
 -0.328658133344E+02
 -0.787815645229E+00
 -0.114903175237E+01
 -0.837552693790E+00
 -0.657723728917E+00
 -0.698248595596E+00
 -0.558407101614E+00
 -0.794105934588E+00
 -0.777234693994E+00
 -0.799672348306E+00
 -0.895824848668E+00
 -0.889784126834E+00
  0.898005434747E+00
 -0.645701556639E+02
 -0.212292135620E+05
 -0.558428846821E+06
 -0.565866820705E+08
SCALARS inclination float 1
LOOKUP_TABLE default
  0.100000000000E+01
  0.100000000000E+01
  0.100000000000E+01
  0.100000000000E+01
  0.100000000000E+01
  0.100000000000E+01
  0.100000000000E+01
  0.100000000000E+01
  0.100000000000E+01
  0.100000000000E+01
  0.100000000000E+01
  0.100000000000E+01
  0.100000000000E+01
  0.100000000000E+01
  0.100000000000E+01
  0.100000000000E+01
  0.100000000000E+01
  0.100000000000E+01
  0.100000000000E+01
  0.100000000000E+01
  0.100000000000E+01
  0.100000000000E+01
  0.100000000000E+01
  0.100000000000E+01
  0.100000000000E+01
  0.100000000000E+01
  0.100000000000E+01
  0.100000000000E+01
  0.100000000000E+01
  0.100000000000E+01
  0.100000000000E+01
  0.100000000000E+01
  0.100000000000E+01
  0.100000000000E+01
  0.100000000000E+01
  0.100000000000E+01
  0.100000000000E+01
  0.100000000000E+01
  0.100000000000E+01
  0.100000000000E+01
  0.100000000000E+01
  0.100000000000E+01
  0.100000000000E+01
  0.100000000000E+01
  0.100000000000E+01
  0.100000000000E+01
  0.100000000000E+01
  0.100000000000E+01
  0.100000000000E+01
  0.100000000000E+01
  0.100000000000E+01
  0.100000000000E+01
  0.100000000000E+01
  0.100000000000E+01
  0.100000000000E+01
  0.100000000000E+01
  0.100000000000E+01
  0.100000000000E+01
  0.100000000000E+01
  0.100000000000E+01
  0.100000000000E+01
  0.100000000000E+01
  0.100000000000E+01
  0.100000000000E+01
  0.100000000000E+01
  0.100000000000E+01
  0.100000000000E+01
  0.100000000000E+01
  0.100000000000E+01
  0.100000000000E+01
  0.100000000000E+01
  0.100000000000E+01
  0.100000000000E+01
  0.100000000000E+01
  0.100000000000E+01
  0.100000000000E+01
  0.100000000000E+01
  0.100000000000E+01
  0.100000000000E+01
  0.100000000000E+01
  0.100000000000E+01
  0.100000000000E+01
  0.100000000000E+01
  0.100000000000E+01
  0.100000000000E+01
  0.100000000000E+01
  0.100000000000E+01
  0.100000000000E+01
  0.100000000000E+01
  0.100000000000E+01
  0.100000000000E+01
  0.100000000000E+01
  0.100000000000E+01
  0.100000000000E+01
  0.100000000000E+01
  0.100000000000E+01
  0.100000000000E+01
  0.100000000000E+01
  0.100000000000E+01
  0.100000000000E+01
  0.100000000000E+01
  0.100000000000E+01
  0.100000000000E+01
  0.100000000000E+01
  0.100000000000E+01
  0.100000000000E+01
  0.100000000000E+01
  0.100000000000E+01
  0.100000000000E+01
  0.100000000000E+01
  0.100000000000E+01
  0.100000000000E+01
  0.100000000000E+01
  0.100000000000E+01
  0.100000000000E+01
  0.100000000000E+01
  0.100000000000E+01
  0.100000000000E+01
  0.100000000000E+01
  0.100000000000E+01
  0.100000000000E+01
  0.100000000000E+01
  0.100000000000E+01
  0.100000000000E+01
  0.100000000000E+01
  0.100000000000E+01
  0.100000000000E+01
  0.100000000000E+01
  0.100000000000E+01
  0.100000000000E+01
  0.100000000000E+01
  0.100000000000E+01
  0.100000000000E+01
  0.100000000000E+01
  0.100000000000E+01
  0.100000000000E+01
  0.100000000000E+01
  0.100000000000E+01
  0.100000000000E+01
  0.100000000000E+01
  0.100000000000E+01
  0.100000000000E+01
  0.100000000000E+01
  0.100000000000E+01
  0.100000000000E+01
  0.100000000000E+01
  0.100000000000E+01
  0.100000000000E+01
  0.100000000000E+01
  0.100000000000E+01
  0.100000000000E+01
  0.100000000000E+01
  0.100000000000E+01
  0.100000000000E+01
  0.100000000000E+01
  0.100000000000E+01
  0.100000000000E+01
  0.100000000000E+01
  0.100000000000E+01
  0.100000000000E+01
  0.100000000000E+01
  0.100000000000E+01
  0.100000000000E+01
  0.100000000000E+01
  0.100000000000E+01
  0.100000000000E+01
  0.100000000000E+01
  0.100000000000E+01
  0.100000000000E+01
  0.100000000000E+01
  0.100000000000E+01
  0.100000000000E+01
  0.100000000000E+01
  0.100000000000E+01
  0.100000000000E+01
  0.100000000000E+01
  0.100000000000E+01
  0.100000000000E+01
  0.100000000000E+01
  0.100000000000E+01
  0.100000000000E+01
  0.100000000000E+01
  0.100000000000E+01
  0.100000000000E+01
  0.100000000000E+01
  0.100000000000E+01
  0.100000000000E+01
  0.100000000000E+01
  0.100000000000E+01
  0.100000000000E+01
  0.100000000000E+01
  0.100000000000E+01
  0.100000000000E+01
  0.100000000000E+01
  0.100000000000E+01
  0.100000000000E+01
  0.100000000000E+01
  0.100000000000E+01
  0.100000000000E+01
  0.100000000000E+01
  0.100000000000E+01
  0.100000000000E+01
  0.100000000000E+01
  0.100000000000E+01
  0.100000000000E+01
  0.100000000000E+01
  0.100000000000E+01
  0.100000000000E+01
  0.100000000000E+01
  0.100000000000E+01
  0.100000000000E+01
  0.100000000000E+01
  0.100000000000E+01
  0.100000000000E+01
  0.100000000000E+01
  0.100000000000E+01
  0.100000000000E+01
  0.100000000000E+01
  0.100000000000E+01
  0.100000000000E+01
  0.100000000000E+01
  0.100000000000E+01
  0.100000000000E+01
  0.100000000000E+01
  0.100000000000E+01
  0.100000000000E+01
  0.100000000000E+01
  0.100000000000E+01
  0.100000000000E+01
  0.100000000000E+01
  0.100000000000E+01
  0.100000000000E+01
  0.100000000000E+01
  0.100000000000E+01
  0.100000000000E+01
  0.100000000000E+01
  0.100000000000E+01
  0.100000000000E+01
  0.100000000000E+01
  0.100000000000E+01
  0.100000000000E+01
  0.100000000000E+01
  0.100000000000E+01
  0.100000000000E+01
  0.100000000000E+01
  0.100000000000E+01
  0.100000000000E+01
  0.100000000000E+01
  0.100000000000E+01
  0.100000000000E+01
  0.100000000000E+01
  0.100000000000E+01
  0.100000000000E+01
  0.100000000000E+01
  0.100000000000E+01
  0.100000000000E+01
VECTORS v float
  0.149512807507E+03  0.294283108277E+01  0.156616314782E+02
  0.150571996554E+03  0.263757414478E+01  0.158074413016E+02
  0.153429329185E+03 -0.219772615480E+00  0.165694606315E+02
  0.154452672625E+03  0.418646892266E+00  0.166109599337E+02
  0.156626803426E+03 -0.175549486966E+01  0.154263923817E+02
  0.157312513623E+03 -0.618707050498E+00  0.153824590567E+02
  0.153085744378E+03  0.360807095835E+01  0.308882758723E+01
  0.155192805312E+03 -0.416726770390E+01  0.329303957524E+01
  0.131827051529E+03  0.191985091760E+02 -0.156246754609E+02
  0.138048838672E+03  0.224982408743E+01 -0.188390518809E+02
  0.742888000239E+02  0.660098894867E+02 -0.479887772242E+01
  0.720175551632E+02  0.710767592056E+02 -0.545333190314E+00
  0.176679679938E+03 -0.335853655696E+02  0.121880315435E+03
  0.151106732252E+03  0.234647552584E+02  0.739877820668E+02
  0.210633085792E+03 -0.360616117893E+02  0.342233212769E+02
  0.200596919932E+03 -0.872223027273E+01  0.290383150818E+02
  0.200501093993E+03 -0.862639387888E+01 -0.432144168613E+01
  0.201421930080E+03 -0.120244033010E+02 -0.441069131711E+01
  0.189632361111E+03 -0.234794901454E+00 -0.184930103934E+02
  0.184650256229E+03 -0.849425175089E+01 -0.188122261155E+02
  0.174826112332E+03  0.132994083143E+01 -0.187097483726E+02
  0.168206032581E+03 -0.280004875100E+01 -0.184412321799E+02
  0.161119614589E+03  0.428640429233E+01 -0.167583149244E+02
  0.153340570145E+03  0.652832094818E+01 -0.156875170884E+02
  0.150149090650E+03  0.589913106571E+01  0.154137213085E+02
  0.149550321411E+03  0.626587444048E+01  0.153105562135E+02
  0.153712157307E+03  0.210401453169E+01  0.163493609589E+02
  0.153456371283E+03  0.213258050025E+01  0.163186984463E+02
  0.156404579439E+03 -0.815641681310E+00  0.153132069530E+02
  0.156636634992E+03 -0.709318308437E+00  0.153254519915E+02
  0.155194896652E+03  0.732420614766E+00  0.319183328800E+01
  0.155640126842E+03 -0.362148349542E+00  0.322365386318E+01
  0.138326435256E+03  0.169515590966E+02 -0.168380306193E+02
  0.137275540347E+03  0.189710780985E+02 -0.164120846579E+02
  0.746605857914E+02  0.815860620296E+02  0.401436091074E+01
  0.673122674933E+02  0.933417276561E+02  0.150879964776E+02
  0.195072294617E+03 -0.344182994681E+02  0.133024398261E+03
  0.181807205181E+03 -0.131971263796E+02  0.113034429824E+03
  0.217946853689E+03 -0.493367741457E+02  0.370795814028E+02
  0.210647294594E+03 -0.353091070334E+02  0.341208988511E+02
  0.200169304212E+03 -0.248310882281E+02 -0.464945072692E+01
  0.200493836756E+03 -0.256289299055E+02 -0.467264136146E+01
  0.184638236467E+03 -0.977327603149E+01 -0.189356326461E+02
  0.180184726160E+03 -0.118137914095E+02 -0.187006102016E+02
  0.168239730204E+03  0.131260670357E+00 -0.181287531158E+02
  0.164271000771E+03  0.574482067618E+00 -0.176529676792E+02
  0.153396124551E+03  0.114494210450E+02 -0.151676091200E+02
  0.151840106999E+03  0.124024739339E+02 -0.148994992412E+02
  0.150361791387E+03  0.730250242367E+01  0.152865006032E+02
  0.150166623494E+03  0.745222017171E+01  0.152496394903E+02
  0.154111426277E+03  0.350739420861E+01  0.162410682577E+02
  0.153730327014E+03  0.368457181211E+01  0.161808727050E+02
  0.156501371766E+03  0.913514159025E+00  0.151542139936E+02
  0.156420920420E+03  0.923202012736E+00  0.151454346066E+02
  0.155641008362E+03  0.170311265817E+01  0.318099444369E+01
  0.154826053113E+03  0.323094186811E+01  0.313258227485E+01
  0.137309090646E+03  0.207479245642E+02 -0.161702414816E+02
  0.134405545933E+03  0.252461272040E+02 -0.151434096493E+02
  0.671108528902E+02  0.925408540155E+02  0.147405206949E+02
  0.603337945972E+02  0.101644280124E+03  0.239456519373E+02