# vtk DataFile Version 3.0
TriPan results file. Generated by TriPan, USU AeroLab (c) 2021.
ASCII
DATASET POLYDATA
POINTS                1848 float
  0.000000000000E+00  0.000000000000E+00  0.000000000000E+00
  0.147665724158E+00  0.000000000000E+00 -0.234920635819E+00
  0.147665724158E+00  0.000000000000E+00  0.234920635819E+00
  0.339639574289E+00  0.339639574289E+00  0.000000000000E+00
  0.473465979099E+00  0.000000000000E+00 -0.436293870211E+00
  0.473465979099E+00  0.000000000000E+00  0.436293870211E+00
  0.487305283546E+00  0.339639574289E+00 -0.234920650721E+00
  0.487305283546E+00  0.339639574289E+00  0.234920650721E+00
  0.735364913940E+00  0.735364913940E+00  0.000000000000E+00
  0.813105583191E+00  0.339639574289E+00 -0.436293929815E+00
  0.813105583191E+00  0.339639574289E+00  0.436293929815E+00
  0.883030653000E+00  0.735364913940E+00 -0.234920680523E+00
  0.883030653000E+00  0.735364913940E+00  0.234920680523E+00
  0.944064557552E+00  0.000000000000E+00 -0.604293465614E+00
  0.944064557552E+00  0.000000000000E+00  0.604293465614E+00
  0.119528055191E+01  0.119528055191E+01  0.000000000000E+00
  0.120883107185E+01  0.735364913940E+00 -0.436293989420E+00
  0.120883107185E+01  0.735364913940E+00  0.436293989420E+00
  0.128370416164E+01  0.339639574289E+00 -0.604293525219E+00
  0.128370416164E+01  0.339639574289E+00  0.604293525219E+00
  0.134294629097E+01  0.119528055191E+01 -0.234920725226E+00
  0.134294629097E+01  0.119528055191E+01  0.234920725226E+00
  0.157641971111E+01  0.000000000000E+00 -0.760520398617E+00
  0.157641971111E+01  0.000000000000E+00  0.760520398617E+00
  0.166874670982E+01  0.119528055191E+01 -0.436294049025E+00
  0.166874670982E+01  0.119528055191E+01  0.436294049025E+00
  0.167942965031E+01  0.735364913940E+00 -0.604293584824E+00
  0.167942965031E+01  0.735364913940E+00  0.604293584824E+00
  0.172824025154E+01  0.172824025154E+01  0.000000000000E+00
  0.187590610981E+01  0.172824025154E+01 -0.234920769930E+00
  0.187590610981E+01  0.172824025154E+01  0.234920769930E+00
  0.191605937481E+01  0.339639574289E+00 -0.760520458221E+00
  0.191605937481E+01  0.339639574289E+00  0.760520458221E+00
  0.213934540749E+01  0.119528055191E+01 -0.604293704033E+00
  0.213934540749E+01  0.119528055191E+01  0.604293704033E+00
  0.220170640945E+01  0.172824025154E+01 -0.436294138432E+00
  0.220170640945E+01  0.172824025154E+01  0.436294138432E+00
  0.231178498268E+01  0.735364913940E+00 -0.760520577431E+00
  0.231178498268E+01  0.735364913940E+00  0.760520577431E+00
  0.234375929832E+01  0.234375929832E+01  0.000000000000E+00
  0.239635515213E+01  0.000000000000E+00 -0.902061045170E+00
  0.239635515213E+01  0.000000000000E+00  0.902061045170E+00
  0.249142503738E+01  0.234375929832E+01 -0.234920814633E+00
  0.249142503738E+01  0.234375929832E+01  0.234920814633E+00
  0.267230534554E+01  0.172824025154E+01 -0.604293823242E+00
  0.267230534554E+01  0.172824025154E+01  0.604293823242E+00
  0.273599505424E+01  0.339639574289E+00 -0.902061164379E+00
  0.273599505424E+01  0.339639574289E+00  0.902061164379E+00
  0.277170085907E+01  0.119528055191E+01 -0.760520696640E+00
  0.277170085907E+01  0.119528055191E+01  0.760520696640E+00
  0.281722569466E+01  0.234375929832E+01 -0.436294227839E+00
  0.281722569466E+01  0.234375929832E+01  0.436294227839E+00
  0.305185556412E+01  0.305185556412E+01  0.000000000000E+00
  0.313172078133E+01  0.735364913940E+00 -0.902061283588E+00
  0.313172078133E+01  0.735364913940E+00  0.902061283588E+00
  0.319952154160E+01  0.305185556412E+01 -0.234920859337E+00
  0.319952154160E+01  0.305185556412E+01  0.234920859337E+00
  0.328782463074E+01  0.234375929832E+01 -0.604293942451E+00
  0.328782463074E+01  0.234375929832E+01  0.604293942451E+00
  0.330466079712E+01  0.172824025154E+01 -0.760520815849E+00
  0.330466079712E+01  0.172824025154E+01  0.760520815849E+00
  0.342464399338E+01  0.000000000000E+00 -0.102348911762E+01
  0.342464399338E+01  0.000000000000E+00  0.102348911762E+01
  0.352532196045E+01  0.305185556412E+01 -0.436294317245E+00
  0.352532196045E+01  0.305185556412E+01  0.436294317245E+00
  0.359163665771E+01  0.119528055191E+01 -0.902061402798E+00
  0.359163665771E+01  0.119528055191E+01  0.902061402798E+00
  0.376428389549E+01  0.339639574289E+00 -0.102348923683E+01
  0.376428389549E+01  0.339639574289E+00  0.102348923683E+01
  0.386280250549E+01  0.386280250549E+01  0.000000000000E+00
  0.392018008232E+01  0.234375929832E+01 -0.760520994663E+00
  0.392018008232E+01  0.234375929832E+01  0.760520994663E+00
  0.399592113495E+01  0.305185556412E+01 -0.604294061661E+00
  0.399592113495E+01  0.305185556412E+01  0.604294061661E+00
  0.401046848297E+01  0.386280250549E+01 -0.234920918941E+00
  0.401046848297E+01  0.386280250549E+01  0.234920918941E+00
  0.412459707260E+01  0.172824025154E+01 -0.902061522007E+00
  0.412459707260E+01  0.172824025154E+01  0.902061522007E+00
  0.416000986099E+01  0.735364913940E+00 -0.102348935604E+01
  0.416000986099E+01  0.735364913940E+00  0.102348935604E+01
  0.433626890182E+01  0.386280250549E+01 -0.436294436455E+00
  0.433626890182E+01  0.386280250549E+01  0.436294436455E+00
  0.461992597580E+01  0.119528055191E+01 -0.102348947525E+01
  0.461992597580E+01  0.119528055191E+01  0.102348947525E+01
  0.462827682495E+01  0.305185556412E+01 -0.760521173477E+00
  0.462827682495E+01  0.305185556412E+01  0.760521173477E+00
  0.466872262955E+01  0.000000000000E+00 -0.111146688461E+01
  0.466872262955E+01  0.000000000000E+00  0.111146688461E+01
  0.474011659622E+01  0.234375929832E+01 -0.902061700821E+00
  0.474011659622E+01  0.234375929832E+01  0.902061700821E+00
  0.478677463531E+01  0.478677463531E+01  0.000000000000E+00
  0.480686807632E+01  0.386280250549E+01 -0.604294240475E+00
  0.480686807632E+01  0.386280250549E+01  0.604294240475E+00
  0.493444061279E+01  0.478677463531E+01 -0.234920993447E+00
  0.493444061279E+01  0.478677463531E+01  0.234920993447E+00
  0.500836277008E+01  0.339639574289E+00 -0.111146700382E+01
  0.500836277008E+01  0.339639574289E+00  0.111146700382E+01
  0.515288639069E+01  0.172824025154E+01 -0.102348971367E+01
  0.515288639069E+01  0.172824025154E+01  0.102348971367E+01
  0.526024150848E+01  0.478677463531E+01 -0.436294555664E+00
  0.526024150848E+01  0.478677463531E+01  0.436294555664E+00
  0.540408849716E+01  0.735364913940E+00 -0.111146712303E+01
  0.540408849716E+01  0.735364913940E+00  0.111146712303E+01
  0.543922424316E+01  0.386280250549E+01 -0.760521352291E+00
  0.543922424316E+01  0.386280250549E+01  0.760521352291E+00
  0.544821310043E+01  0.305185556412E+01 -0.902061939240E+00
  0.544821310043E+01  0.305185556412E+01  0.902061939240E+00
  0.573084068298E+01  0.478677463531E+01 -0.604294419289E+00
  0.573084068298E+01  0.478677463531E+01  0.604294419289E+00
  0.576840591431E+01  0.234375929832E+01 -0.102348983288E+01
  0.576840591431E+01  0.234375929832E+01  0.102348983288E+01
  0.583337688446E+01  0.583337688446E+01  0.000000000000E+00
  0.586400508881E+01  0.119528055191E+01 -0.111146736145E+01
  0.586400508881E+01  0.119528055191E+01  0.111146736145E+01
  0.598104286194E+01  0.583337688446E+01 -0.234921067953E+00
  0.598104286194E+01  0.583337688446E+01  0.234921067953E+00
  0.611307668686E+01  0.000000000000E+00 -0.114008128643E+01
  0.611307668686E+01  0.000000000000E+00  0.114008128643E+01
  0.625916051865E+01  0.386280250549E+01 -0.902062177658E+00
  0.625916051865E+01  0.386280250549E+01  0.902062177658E+00
  0.630684375763E+01  0.583337688446E+01 -0.436294704676E+00
  0.630684375763E+01  0.583337688446E+01  0.436294704676E+00
  0.636319684982E+01  0.478677463531E+01 -0.760521590710E+00
  0.636319684982E+01  0.478677463531E+01  0.760521590710E+00
  0.639696550369E+01  0.172824025154E+01 -0.111146748066E+01
  0.639696550369E+01  0.172824025154E+01  0.111146748066E+01
  0.645271682739E+01  0.339639574289E+00 -0.114008140564E+01
  0.645271682739E+01  0.339639574289E+00  0.114008140564E+01
  0.647650289536E+01  0.305185556412E+01 -0.102349007130E+01
  0.647650289536E+01  0.305185556412E+01  0.102349007130E+01
  0.677744340897E+01  0.583337688446E+01 -0.604294598103E+00
  0.677744340897E+01  0.583337688446E+01  0.604294598103E+00
  0.684844303131E+01  0.735364913940E+00 -0.114008152485E+01
  0.684844303131E+01  0.735364913940E+00  0.114008152485E+01
  0.701104879379E+01  0.701104879379E+01  0.000000000000E+00
  0.701248550415E+01  0.234375929832E+01 -0.111146771908E+01
  0.701248550415E+01  0.234375929832E+01  0.111146771908E+01
  0.715871477127E+01  0.701104879379E+01 -0.234921157360E+00
  0.715871477127E+01  0.701104879379E+01  0.234921157360E+00
  0.718313360214E+01  0.478677463531E+01 -0.902062416077E+00
  0.718313360214E+01  0.478677463531E+01  0.902062416077E+00
  0.728745079041E+01  0.386280250549E+01 -0.102349042892E+01
  0.728745079041E+01  0.386280250549E+01  0.102349042892E+01
  0.730835962296E+01  0.119528055191E+01 -0.114008176327E+01
  0.730835962296E+01  0.119528055191E+01  0.114008176327E+01
  0.740979957581E+01  0.583337688446E+01 -0.760521829128E+00
  0.740979957581E+01  0.583337688446E+01  0.760521829128E+00
  0.748451566696E+01  0.701104879379E+01 -0.436294883490E+00
  0.748451566696E+01  0.701104879379E+01  0.436294883490E+00
  0.771254587173E+01  0.000000000000E+00 -0.108925735950E+01
  0.771254587173E+01  0.000000000000E+00  0.108925735950E+01
  0.772058296204E+01  0.305185556412E+01 -0.111146795750E+01
  0.772058296204E+01  0.305185556412E+01  0.111146795750E+01
  0.784132003784E+01  0.172824025154E+01 -0.114008188248E+01
  0.784132003784E+01  0.172824025154E+01  0.114008188248E+01
  0.795511531830E+01  0.701104879379E+01 -0.604294836521E+00
  0.795511531830E+01  0.701104879379E+01  0.604294836521E+00
  0.805218601227E+01  0.339639574289E+00 -0.108925747871E+01
  0.805218601227E+01  0.339639574289E+00  0.108925747871E+01
  0.821142387390E+01  0.478677463531E+01 -0.102349066734E+01
  0.821142387390E+01  0.478677463531E+01  0.102349066734E+01
[...]
CELL_DATA                3576
SCALARS sigma float 1
LOOKUP_TABLE default
  0.765811326011E-01
  0.765818587478E-01
  0.764112682622E-01
  0.764107464213E-01
  0.761848319250E-01
  0.761848465484E-01
  0.758856922198E-01
  0.758857146142E-01
  0.752991920116E-01
  0.752989860216E-01
  0.750670721193E-01
  0.750671407477E-01
  0.754793514764E-01
  0.754793745250E-01
  0.777028177625E-01
  0.777028177625E-01
  0.836682246737E-01
  0.836682246737E-01
  0.969866892124E-01
  0.969867229859E-01
  0.118331711445E+00
  0.118331730303E+00
  0.150839887493E+00
  0.150839887493E+00
  0.201635873067E+00
  0.201635873067E+00
  0.250518862295E+00
  0.250518850382E+00
  0.294270378992E+00
  0.294270378993E+00
  0.341927389764E+00
  0.341927405724E+00
  0.401361731342E+00
  0.401361717670E+00
  0.476023045386E+00
  0.476023045388E+00
  0.594778461342E+00
  0.594778467819E+00
  0.709352593206E+00
  0.709352579111E+00
  0.561319470753E+00
  0.561319460117E+00
  0.320364844390E+00
  0.320364823005E+00
  0.150665416324E+00
  0.150665416320E+00
  0.572872089114E-01
  0.572872293966E-01
 -0.121452940353E-01
 -0.121453157252E-01
 -0.652221537058E-01
 -0.652221537068E-01
 -0.112143076394E+00
 -0.112143062532E+00
 -0.162692215298E+00
 -0.162692215298E+00
 -0.213263715319E+00
 -0.213263715319E+00
 -0.244632761486E+00
 -0.244632777394E+00
 -0.264819805160E+00
 -0.264819842137E+00
 -0.277253567928E+00
 -0.277253567928E+00
 -0.282782579313E+00
 -0.282782579313E+00
 -0.284837040828E+00
 -0.284837065382E+00
 -0.285217571046E+00
 -0.285217642468E+00
 -0.285003580630E+00
 -0.285003371119E+00
 -0.284461830933E+00
 -0.284461853247E+00
 -0.284185550144E+00
 -0.284185564464E+00
 -0.283976865522E+00
 -0.283976361629E+00
 -0.283818747324E+00
 -0.283819440799E+00
  0.765811205384E-01
  0.765811336188E-01
  0.764112643355E-01
  0.764112740741E-01
  0.761844124255E-01
  0.761848287870E-01
  0.758860013656E-01
  0.758856933663E-01
  0.752989300266E-01
  0.752991890836E-01
  0.750672343486E-01
  0.750670686039E-01
  0.754793496750E-01
  0.754793496742E-01
  0.777027756657E-01
  0.777028154678E-01
  0.836682224134E-01
  0.836682224134E-01
  0.969867355477E-01
  0.969866888059E-01
  0.118331730427E+00
  0.118331692903E+00
  0.150839887286E+00
  0.150839906443E+00
  0.201635872828E+00
  0.201635866547E+00
  0.250518849492E+00
  0.250518861529E+00
  0.294270374851E+00
  0.294270352556E+00
  0.341927405846E+00
  0.341927387563E+00
  0.401361715901E+00
  0.401361745004E+00
  0.476023028057E+00
  0.476023028053E+00
  0.594778435912E+00
  0.594778415450E+00
  0.709352570826E+00
  0.709352575887E+00
  0.561319458263E+00
  0.561319464197E+00
  0.320364770185E+00
  0.320364827204E+00
  0.150665410832E+00
  0.150665410838E+00
  0.572872507603E-01
  0.572872086588E-01
 -0.121453182185E-01
 -0.121452940396E-01
 -0.652221802827E-01
 -0.652221527878E-01
 -0.112143062189E+00
 -0.112143075995E+00
 -0.162692221652E+00
 -0.162692215105E+00
 -0.213263697191E+00
 -0.213263715026E+00
 -0.244632793961E+00
 -0.244632761743E+00
 -0.264819841027E+00
 -0.264819790927E+00
 -0.277253560438E+00
 -0.277253560438E+00
 -0.282782570962E+00
 -0.282782613279E+00
 -0.284837058581E+00
 -0.284837058580E+00
 -0.285217629111E+00
 -0.285217459445E+00
 -0.285003360036E+00
 -0.285003620011E+00
 -0.284461857544E+00
 -0.284461553879E+00
 -0.284185552758E+00
 -0.284185957176E+00
 -0.283976383229E+00
 -0.283976392574E+00
 -0.283819444571E+00
 -0.283819457005E+00
  0.765810985398E-01
  0.765811181760E-01
  0.764112571674E-01
  0.764112620139E-01
  0.761848011612E-01
  0.761844135820E-01
  0.758856719443E-01
  0.758860029905E-01
  0.752991732075E-01
  0.752989310815E-01
  0.750670133682E-01
  0.750672357668E-01
  0.754793819013E-01
  0.754793483078E-01
  0.777028844843E-01
  0.777027770878E-01
  0.836681879542E-01
  0.836682239592E-01
  0.969867369418E-01
  0.969867369413E-01
  0.118331693946E+00
  0.118331731305E+00
  0.150839906819E+00
  0.150839822104E+00
  0.201635867327E+00
  0.201635867327E+00
  0.250518864727E+00
  0.250518926287E+00
  0.294270350904E+00
  0.294270328270E+00
  0.341927386754E+00
  0.341927386756E+00
  0.401361751502E+00
  0.401361722161E+00
  0.476023048430E+00
  0.476023065394E+00
  0.594778436465E+00
  0.594778444510E+00
  0.709352593982E+00
  0.709352584070E+00
  0.561319489968E+00
  0.561319472581E+00
  0.320364801460E+00
  0.320364781504E+00
  0.150665444383E+00
  0.150665417281E+00
  0.572872104388E-01
  0.572872516878E-01
 -0.121453181865E-01
 -0.121453181897E-01
 -0.652222073404E-01
 -0.652221799166E-01
 -0.112142993851E+00
 -0.112143063620E+00
 -0.162692222281E+00
 -0.162692222281E+00
 -0.213263777123E+00
 -0.213263697721E+00
 -0.244632763559E+00
 -0.244632796116E+00
 -0.264819794731E+00
 -0.264819794731E+00
 -0.277253565560E+00
 -0.277253603491E+00
 -0.282782618455E+00
 -0.282782506400E+00
 -0.284837053421E+00
 -0.284837018910E+00
 -0.285217464834E+00
 -0.285217689310E+00
 -0.285003624004E+00
 -0.285003383778E+00
 -0.284461559970E+00
 -0.284461883441E+00
 -0.284185961490E+00
 -0.284185587626E+00
 -0.283976383946E+00
 -0.283976388573E+00
 -0.283819448249E+00
 -0.283819466842E+00
  0.765810866110E-01
  0.765810997107E-01
  0.764112289670E-01
  0.764112582690E-01
  0.761847874785E-01
  0.761848021851E-01
  0.758856354663E-01
  0.758856692251E-01
  0.752991565105E-01
  0.752991740690E-01
  0.750672085448E-01
  0.750670137442E-01
  0.754793045090E-01
  0.754793848068E-01
  0.777028456344E-01
  0.777028857474E-01
  0.836681493825E-01
  0.836681855323E-01
  0.969867841137E-01
  0.969867369320E-01
  0.118331730142E+00
  0.118331694070E+00
  0.150839822419E+00
  0.150839906942E+00
  0.201635866209E+00
  0.201635866209E+00
  0.250518925285E+00
  0.250518838821E+00
  0.294270331343E+00
  0.294270428375E+00
  0.341927376857E+00
  0.341927300751E+00
  0.401361714914E+00
  0.401361714914E+00
  0.476023056507E+00
  0.476022999230E+00
  0.594778459213E+00
  0.594778530475E+00
  0.709352533440E+00
  0.709352557538E+00
  0.561319387166E+00
  0.561319449904E+00
  0.320364971873E+00
  0.320364809380E+00
  0.150665352929E+00
  0.150665441570E+00
  0.572872094044E-01
  0.572872094044E-01
 -0.121454144314E-01
 -0.121453178349E-01
 -0.652220921750E-01
 -0.652222080214E-01
 -0.112143090413E+00
 -0.112142993403E+00
 -0.162692221379E+00
 -0.162692221379E+00
 -0.213263697896E+00
 -0.213263777569E+00
 -0.244632792985E+00
 -0.244632761154E+00
 -0.264819794704E+00
 -0.264819745799E+00
 -0.277253595465E+00
 -0.277253632916E+00
 -0.282782510997E+00
 -0.282782552183E+00
 -0.284837029874E+00
 -0.284837111198E+00
 -0.285217690739E+00
 -0.285217496461E+00
 -0.285003387039E+00
 -0.285003404291E+00
 -0.284461873248E+00
 -0.284461905984E+00
 -0.284185591446E+00
 -0.284185605549E+00
 -0.283976392667E+00
 -0.283976420515E+00
 -0.283819471181E+00
 -0.283819483544E+00
  0.765810606338E-01
  0.765810868482E-01
  0.764112096609E-01
  0.764112291639E-01
  0.761847582086E-01
  0.761847876503E-01
  0.758856357486E-01
  0.758856357501E-01
  0.752991215291E-01
  0.752991567438E-01
  0.750671804010E-01
  0.750672086162E-01
  0.754792777727E-01
  0.754793011331E-01
  0.777028027961E-01
  0.777028430221E-01
  0.836682437170E-01
  0.836681497511E-01
  0.969867501645E-01
  0.969867845913E-01
  0.118331694458E+00
  0.118331695604E+00
  0.150839906010E+00
  0.150839906010E+00
  0.201635866784E+00
  0.201635860469E+00
  0.250518837511E+00
  0.250518899895E+00
  0.294270429626E+00
  0.294270380604E+00
  0.341927301327E+00
  0.341927262697E+00
  0.401361722130E+00
  0.401361784407E+00
  0.476022984014E+00
  0.476023015894E+00
  0.594778522181E+00
  0.594778406780E+00
  0.709352628418E+00
  0.709352600436E+00
  0.561319553379E+00
  0.561319443255E+00
  0.320364720371E+00
  0.320364967406E+00
  0.150665396200E+00
  0.150665348113E+00
  0.572872943289E-01
  0.572872104344E-01
 -0.121454627295E-01
 -0.121454144518E-01
 -0.652221502616E-01
 -0.652220924522E-01
 -0.112143020426E+00
 -0.112143089826E+00
 -0.162692228363E+00
 -0.162692221843E+00
 -0.213263696578E+00
 -0.213263696578E+00
 -0.244632792765E+00
 -0.244632793787E+00
 -0.264819747103E+00
 -0.264819782323E+00
 -0.277253634137E+00
 -0.277253538169E+00
 -0.282782542676E+00
 -0.282782583418E+00
 -0.284837098458E+00
 -0.284837121832E+00
 -0.285217496733E+00
 -0.285217524587E+00
 -0.285003405174E+00
 -0.285003439491E+00
 -0.284461907048E+00
 -0.284461907049E+00
 -0.284185606190E+00
 -0.284185634283E+00
 -0.283976421247E+00
 -0.283976439712E+00
 -0.283819484423E+00
 -0.283819509092E+00
  0.765817573550E-01
  0.765810614603E-01
  0.764111860506E-01
  0.764112104800E-01
  0.761843385041E-01
  0.761847567453E-01
  0.758859124975E-01
  0.758856365242E-01
  0.752991045133E-01
  0.752991221406E-01
  0.750669549189E-01
  0.750671787550E-01
  0.754794164269E-01
  0.754792784840E-01
  0.777028730615E-01
  0.777028050209E-01
  0.836681725298E-01
  0.836682452800E-01
  0.969867495892E-01
  0.969867495848E-01
  0.118331695642E+00
  0.118331695642E+00
  0.150839906145E+00
  0.150839925146E+00
  0.201635860257E+00
  0.201635860250E+00
  0.250518901277E+00
  0.250518876544E+00
  0.294270381226E+00
  0.294270334510E+00
  0.341927265757E+00
  0.341927361524E+00
  0.401361783363E+00
  0.401361784109E+00
  0.476023021472E+00
  0.476022960721E+00
  0.594778393012E+00
  0.594778527206E+00
  0.709352512467E+00
  0.709352539188E+00
  0.561319316070E+00
  0.561319483768E+00
  0.320364986596E+00
  0.320364712956E+00
  0.150665308227E+00
  0.150665397965E+00
  0.572872951683E-01
  0.572872941798E-01
 -0.121453446854E-01
 -0.121454628382E-01
 -0.652222049222E-01
 -0.652221503994E-01
 -0.112143048363E+00
 -0.112143021044E+00
 -0.162692228199E+00
 -0.162692228192E+00
 -0.213263678700E+00
 -0.213263696769E+00
 -0.244632792846E+00
 -0.244632792845E+00
 -0.264819780740E+00
 -0.264819780736E+00
 -0.277253543349E+00
 -0.277253616753E+00
 -0.282782591515E+00
 -0.282782523398E+00
 -0.284837124515E+00
 -0.284836987909E+00
 -0.285217518333E+00
 -0.285217737402E+00
 -0.285003441806E+00
 -0.285003458864E+00
 -0.284461909956E+00
 -0.284461645522E+00
 -0.284185628825E+00
 -0.284186026237E+00
 -0.283976442756E+00
 -0.283976465813E+00
 -0.283819512155E+00
 -0.283818858837E+00
  0.765810147010E-01
  0.765817567941E-01
  0.764111440041E-01
  0.764111831126E-01
  0.761847118350E-01
  0.761843375260E-01
  0.758858797914E-01
  0.758859136823E-01
  0.752991036615E-01
  0.752991036476E-01
  0.750670948999E-01
  0.750669556528E-01
  0.754792561373E-01
  0.754794177840E-01
  0.777028314502E-01
  0.777028718704E-01
  0.836682292207E-01
  0.836681712242E-01
  0.969867630009E-01
  0.969867500039E-01
  0.118331696009E+00
  0.118331696008E+00
  0.150839925160E+00
  0.150839869505E+00
  0.201635860660E+00
  0.201635848007E+00
  0.250518878897E+00
  0.250518903736E+00
  0.294270334685E+00
  0.294270387246E+00
  0.341927364655E+00
  0.341927421898E+00
  0.401361783230E+00
  0.401361656068E+00
  0.476022973481E+00
  0.476023040395E+00
  0.594778588054E+00
  0.594778631923E+00
  0.709352552871E+00
  0.709352550099E+00
  0.561319358343E+00
  0.561319326897E+00
  0.320365105488E+00
  0.320365019371E+00
  0.150665409429E+00
  0.150665312266E+00
  0.572871286485E-01
  0.572872950429E-01
 -0.121452749286E-01
 -0.121453447967E-01
 -0.652221441449E-01
 -0.652222049610E-01
 -0.112143022145E+00
 -0.112143049416E+00
 -0.162692241539E+00
 -0.162692228529E+00
 -0.213263731823E+00
 -0.213263678718E+00
 -0.244632793606E+00
 -0.244632793605E+00
 -0.264819781868E+00
 -0.264819768842E+00
 -0.277253612427E+00
 -0.277253554508E+00
 -0.282782519064E+00
 -0.282782559132E+00
 -0.284836993030E+00
 -0.284837151718E+00
 -0.285217740190E+00
 -0.285217604904E+00
 -0.285003455588E+00
 -0.285003455574E+00
 -0.284461649963E+00
 -0.284461682287E+00
 -0.284186022588E+00
 -0.284185668184E+00
 -0.283976454894E+00
 -0.283976491705E+00
 -0.283818856758E+00
 -0.283819552049E+00
  0.765816979870E-01
  0.765810147322E-01
  0.764111313905E-01
  0.764111460628E-01
  0.761842637886E-01
  0.761847120905E-01
  0.758858668370E-01
  0.758858781217E-01
  0.752992945014E-01
  0.752991035894E-01
  0.750670948279E-01
  0.750670948279E-01
  0.754793470512E-01
  0.754792556338E-01
  0.777027919306E-01
  0.777028324157E-01
  0.836682306886E-01
  0.836682306947E-01
  0.969867282002E-01
  0.969867628826E-01
  0.118331695716E+00
  0.118331696856E+00
  0.150839869718E+00
  0.150839869711E+00
  0.201635847675E+00
  0.201635847675E+00
  0.250518901688E+00
  0.250518939957E+00
  0.294270384257E+00
  0.294270384258E+00
  0.341927419718E+00
  0.341927339973E+00
  0.401361648118E+00
  0.401361713251E+00
  0.476023021747E+00
  0.476023089879E+00
  0.594778577018E+00
  0.594778385143E+00
  0.709352565110E+00
  0.709352563737E+00
  0.561319411186E+00
  0.561319370222E+00
  0.320364710450E+00
  0.320365075915E+00
  0.150665501076E+00
  0.150665403526E+00
  0.572872118159E-01
  0.572871275137E-01
 -0.121453713163E-01
 -0.121452748512E-01
 -0.652221434815E-01
 -0.652221434825E-01
 -0.112142979423E+00
 -0.112143021228E+00
 -0.162692241271E+00
 -0.162692241271E+00
 -0.213263732129E+00
 -0.213263732124E+00
 -0.244632791961E+00
 -0.244632793002E+00
 -0.264819768519E+00
 -0.264819803004E+00
 -0.277253559392E+00
 -0.277253559398E+00
 -0.282782562645E+00
 -0.282782602444E+00
 -0.284837149818E+00
 -0.284837060735E+00
 -0.285217604630E+00
 -0.285217604630E+00
 -0.285003455301E+00
 -0.285003272556E+00
 -0.284461676028E+00
 -0.284461686749E+00
 -0.284185669137E+00
 -0.284186092327E+00
 -0.283976499356E+00
 -0.283976513135E+00
 -0.283819552165E+00
 -0.283818913086E+00
  0.765809421968E-01
  0.765816978468E-01
  0.764116168482E-01
  0.764111309829E-01
  0.761842486110E-01
  0.761842633722E-01
  0.758858115524E-01
  0.758858680920E-01
  0.752992780323E-01
  0.752992957124E-01
  0.750670374558E-01
  0.750670942035E-01
  0.754793226817E-01
  0.754793462004E-01
  0.777028874634E-01
  0.777027911924E-01
  0.836681344847E-01
  0.836682292872E-01
  0.969867886185E-01
  0.969867277691E-01
  0.118331696873E+00
  0.118331696876E+00
  0.150839869827E+00
  0.150839869827E+00
  0.201635847441E+00
  0.201635834762E+00
  0.250518940444E+00
  0.250518940445E+00
  0.294270383932E+00
  0.294270386719E+00
  0.341927333281E+00
  0.341927230793E+00
  0.401361717600E+00
  0.401361783400E+00
  0.476023098468E+00
  0.476022935541E+00
  0.594778398010E+00
  0.594778457156E+00
  0.709352576990E+00
  0.709352577375E+00
  0.561319464028E+00
  0.561319421673E+00
  0.320364827346E+00
  0.320364717380E+00
  0.150665273210E+00
  0.150665503794E+00
  0.572872968327E-01
  0.572872124366E-01
 -0.121454941307E-01
 -0.121453710786E-01
 -0.652221402269E-01
 -0.652221434092E-01
 -0.112142979640E+00
 -0.112142979641E+00
 -0.162692254081E+00
 -0.162692241082E+00
 -0.213263732292E+00
 -0.213263732292E+00
 -0.244632791993E+00
 -0.244632791995E+00
 -0.264819801826E+00
 -0.264819741729E+00
 -0.277253554754E+00
 -0.277253647923E+00
 -0.282782599758E+00
 -0.282782505784E+00
 -0.284837057524E+00
 -0.284837080300E+00
 -0.285217602257E+00
 -0.285217656765E+00
 -0.285003277140E+00
 -0.285003293992E+00
 -0.284461691453E+00
 -0.284461744992E+00
 -0.284186090774E+00
 -0.284186104673E+00
 -0.283976511620E+00
 -0.283976056201E+00
 -0.283818912566E+00
 -0.283819618352E+00
  0.765816200714E-01
  0.765809429830E-01
  0.764110534591E-01
  0.764116178173E-01
  0.761845947027E-01
  0.761842493488E-01
  0.758857782544E-01
  0.758858121973E-01
  0.752989798943E-01
  0.752992772748E-01
  0.750672060807E-01
  0.750670379985E-01
  0.754792999373E-01
  0.754793234735E-01
  0.777028474629E-01
  0.777028880665E-01
  0.836682148680E-01
  0.836681349359E-01
  0.969867064326E-01
  0.969867891072E-01
  0.118331696719E+00
  0.118331770201E+00
  0.150839870116E+00
  0.150839814631E+00
  0.201635835062E+00
  0.201635915113E+00
  0.250518940532E+00
  0.250518890400E+00
  0.294270391199E+00
  0.294270391197E+00
  0.341927235508E+00
  0.341927294027E+00
  0.401361791772E+00
  0.401361726974E+00
  0.476022943675E+00
  0.476023013688E+00
  0.594778473963E+00
  0.594778546920E+00
  0.709352591508E+00
  0.709352593741E+00
  0.561319527439E+00
  0.561319475212E+00
  0.320364969426E+00
  0.320364836399E+00
  0.150665373929E+00
  0.150665275785E+00
  0.572872155400E-01
  0.572872980276E-01
 -0.121454244723E-01
 -0.121454942982E-01
 -0.652221412213E-01
 -0.652221412198E-01
 -0.112143034019E+00
 -0.112142979679E+00
 -0.162692172351E+00
 -0.162692254323E+00
 -0.213263786032E+00
 -0.213263732702E+00
 -0.244632724007E+00
 -0.244632791669E+00
 -0.264819743064E+00
 -0.264819824256E+00
 -0.277253649418E+00
 -0.277253571348E+00
 -0.282782507979E+00
 -0.282782547379E+00
 -0.284837083288E+00
 -0.284837105961E+00
 -0.285217658827E+00
 -0.285217498088E+00
 -0.285003291125E+00
 -0.285003573586E+00
 -0.284461747409E+00
 -0.284461779462E+00
 -0.284186107425E+00
 -0.284185782929E+00
 -0.283976059803E+00
 -0.283976587948E+00
 -0.283819621266E+00
 -0.283818989614E+00
  0.765815733348E-01
  0.765816192995E-01
  0.764110072218E-01
  0.764110512819E-01
  0.761845495244E-01
  0.761845938437E-01
  0.758860542174E-01
  0.758857773159E-01
  0.752989257364E-01
  0.752989788344E-01
  0.750671495114E-01
  0.750672063502E-01
  0.754794151808E-01
  0.754792999012E-01
  0.777028066117E-01
  0.777028472577E-01
  0.836681779871E-01
  0.836682146795E-01
  0.969867671368E-01
  0.969867061150E-01
  0.118331769848E+00
  0.118331734279E+00
  0.150839814633E+00
  0.150839814633E+00
  0.201635915244E+00
  0.201635902548E+00
  0.250518889686E+00
  0.250518839454E+00
  0.294270390462E+00
  0.294270441232E+00
  0.341927291036E+00
  0.341927408655E+00
  0.401361705362E+00
  0.401361508025E+00
  0.476023000148E+00
  0.476023272883E+00
  0.594778466037E+00
  0.594778036303E+00
  0.709352608504E+00
  0.709352612834E+00
  0.561319601418E+00
  0.561319539121E+00
  0.320364154549E+00
  0.320364925860E+00
  0.150665748959E+00
  0.150665369643E+00
  0.572869628095E-01
  0.572872124553E-01
 -0.121452847478E-01
 -0.121454243661E-01
 -0.652220836277E-01
 -0.652221410582E-01
 -0.112143087986E+00
 -0.112143033699E+00
 -0.162692185444E+00
 -0.162692172456E+00
 -0.213263786034E+00
 -0.213263786034E+00
 -0.244632756149E+00
 -0.244632723277E+00
 -0.264819823389E+00
 -0.264819763744E+00
 -0.277253570723E+00
 -0.277253606375E+00
 -0.282782546632E+00
 -0.282782585878E+00
 -0.284837105825E+00
 -0.284836995260E+00
 -0.285217499112E+00
 -0.285217553268E+00
 -0.285003569574E+00
 -0.285003619859E+00
 -0.284461775944E+00
 -0.284461515070E+00
 -0.284185779725E+00
 -0.284185821294E+00
 -0.283976579857E+00
 -0.283976621034E+00
 -0.283818986753E+00
 -0.283819029590E+00
  0.765815286576E-01
  0.765815746676E-01
  0.764109645014E-01
  0.764110085433E-01
  0.761845064964E-01
  0.761845508270E-01
  0.758859988349E-01
  0.758860554541E-01
  0.752988902718E-01
  0.752989257086E-01
  0.750670925647E-01
  0.750671494291E-01
  0.754793679671E-01
  0.754794151327E-01
  0.777029030516E-01
  0.777028064757E-01
  0.836682219915E-01
  0.836681786096E-01
  0.969867327683E-01
  0.969867676489E-01
  0.118331734506E+00
  0.118331663442E+00
  0.150839814398E+00
  0.150839926485E+00
  0.201635902447E+00
  0.201635822319E+00
  0.250518839996E+00
  0.250518928943E+00
  0.294270440689E+00
  0.294270299209E+00
  0.341927422445E+00
  0.341927481512E+00
  0.401361521614E+00
  0.401361588819E+00
  0.476023317229E+00
  0.476023016840E+00
  0.594778133934E+00
  0.594778710892E+00
  0.709352628067E+00
  0.709352634655E+00
  0.561319685965E+00
  0.561319613472E+00
  0.320365229565E+00
  0.320364207136E+00
  0.150665347917E+00
  0.150665762995E+00
  0.572870493312E-01
  0.572869647492E-01
 -0.121452154229E-01
 -0.121452852376E-01
 -0.652222429867E-01
 -0.652220835073E-01
 -0.112142992338E+00
 -0.112143088229E+00
 -0.162692267272E+00
 -0.162692185362E+00
 -0.213263677635E+00
 -0.213263785702E+00
 -0.244632822493E+00
 -0.244632756618E+00
 -0.264819765142E+00
 -0.264819799102E+00
 -0.277253608438E+00
 -0.277253566467E+00
 -0.282782585384E+00
 -0.282782492520E+00
 -0.284836995078E+00
 -0.284837040149E+00