# vtk DataFile Version 3.0
MachLine results file. Generated by MachLine, USU AeroLab (c) 2022.
ASCII
DATASET POLYDATA
POINTS                3261 float
  0.000000000000E+00  0.000000000000E+00  0.000000000000E+00
  0.138131193817E-01  0.239259991795E-01  0.000000000000E+00
  0.184377916157E-01  0.000000000000E+00 -0.191644169390E-01
  0.184377916157E-01  0.000000000000E+00  0.191644169390E-01
  0.276262387633E-01  0.478519983590E-01  0.000000000000E+00
  0.320895873010E-01  0.239259991795E-01 -0.189967341721E-01
  0.320895873010E-01  0.239259991795E-01  0.189967341721E-01
  0.414393581450E-01  0.717779994011E-01  0.000000000000E+00
  0.457413829863E-01  0.478519983590E-01 -0.188290514052E-01
  0.457413829863E-01  0.478519983590E-01  0.188290514052E-01
  0.460614785552E-01  0.000000000000E+00 -0.248102936894E-01
  0.460614785552E-01  0.000000000000E+00  0.248102936894E-01
  0.552524775267E-01  0.957039967179E-01  0.000000000000E+00
  0.593931749463E-01  0.717779994011E-01 -0.186613686383E-01
  0.593931749463E-01  0.717779994011E-01  0.186613686383E-01
  0.594715774059E-01  0.239259991795E-01 -0.245932117105E-01
  0.594715774059E-01  0.239259991795E-01  0.245932117105E-01
  0.690656006336E-01  0.119630001485E+00  0.000000000000E+00
  0.728816688061E-01  0.478519983590E-01 -0.243761278689E-01
  0.728816688061E-01  0.478519983590E-01  0.243761278689E-01
  0.730449706316E-01  0.957039967179E-01 -0.184936858714E-01
  0.730449706316E-01  0.957039967179E-01  0.184936858714E-01
  0.740515887737E-01  0.000000000000E+00 -0.284879114479E-01
  0.740515887737E-01  0.000000000000E+00  0.284879114479E-01
  0.828787162900E-01  0.143555998802E+00  0.000000000000E+00
  0.862917676568E-01  0.717779994011E-01 -0.241590458900E-01
  0.862917676568E-01  0.717779994011E-01  0.241590458900E-01
  0.866967663169E-01  0.119630001485E+00 -0.183260031044E-01
  0.866967663169E-01  0.119630001485E+00  0.183260031044E-01
  0.872167795897E-01  0.239259991795E-01 -0.282386522740E-01
  0.872167795897E-01  0.239259991795E-01  0.282386522740E-01
  0.966918393970E-01  0.167482003570E+00  0.000000000000E+00
  0.997018665075E-01  0.957039967179E-01 -0.239419639111E-01
  0.997018665075E-01  0.957039967179E-01  0.239419639111E-01
  0.100348562002E+00  0.143555998802E+00 -0.181583203375E-01
  0.100348562002E+00  0.143555998802E+00  0.181583203375E-01
  0.100381970406E+00  0.478519983590E-01 -0.279893912375E-01
  0.100381970406E+00  0.478519983590E-01  0.279893912375E-01
  0.102138325572E+00  0.000000000000E+00 -0.313414372504E-01
  0.102138325572E+00  0.000000000000E+00  0.313414372504E-01
  0.110504955053E+00  0.191407993436E+00  0.000000000000E+00
  0.113111965358E+00  0.119630001485E+00 -0.237248819321E-01
  0.113111965358E+00  0.119630001485E+00  0.237248819321E-01
  0.113547168672E+00  0.717779994011E-01 -0.277401320636E-01
  0.113547168672E+00  0.717779994011E-01  0.277401320636E-01
  0.114000357687E+00  0.167482003570E+00 -0.179906394333E-01
  0.114000357687E+00  0.167482003570E+00  0.179906394333E-01
  0.115057766438E+00  0.239259991795E-01 -0.310672093183E-01
  0.115057766438E+00  0.239259991795E-01  0.310672093183E-01
  0.124318078160E+00  0.215333998203E+00  0.000000000000E+00
  0.126522064209E+00  0.143555998802E+00 -0.235077999532E-01
  0.126522064209E+00  0.143555998802E+00  0.235077999532E-01
  0.126712352037E+00  0.957039967179E-01 -0.274908710271E-01
  0.126712352037E+00  0.957039967179E-01  0.274908710271E-01
  0.127652153373E+00  0.191407993436E+00 -0.178229566664E-01
  0.127652153373E+00  0.191407993436E+00  0.178229566664E-01
  0.127977207303E+00  0.478519983590E-01 -0.307929813862E-01
  0.127977207303E+00  0.478519983590E-01  0.307929813862E-01
  0.130280584097E+00  0.000000000000E+00 -0.335864275694E-01
  0.130280584097E+00  0.000000000000E+00  0.335864275694E-01
  0.138131201267E+00  0.239260002971E+00  0.000000000000E+00
  0.139877542853E+00  0.119630001485E+00 -0.272416118532E-01
  0.139877542853E+00  0.119630001485E+00  0.272416118532E-01
  0.139932155609E+00  0.167482003570E+00 -0.232907179743E-01
  0.139932155609E+00  0.167482003570E+00  0.232907179743E-01
  0.140896648169E+00  0.717779994011E-01 -0.305187534541E-01
  0.140896648169E+00  0.717779994011E-01  0.305187534541E-01
  0.141303941607E+00  0.215333998203E+00 -0.176552738994E-01
  0.141303941607E+00  0.215333998203E+00  0.176552738994E-01
  0.142953783274E+00  0.239259991795E-01 -0.332925543189E-01
  0.142953783274E+00  0.239259991795E-01  0.332925543189E-01
  0.151944324374E+00  0.263186007738E+00  0.000000000000E+00
  0.153042748570E+00  0.143555998802E+00 -0.269923508167E-01
  0.153042748570E+00  0.143555998802E+00  0.269923508167E-01
  0.153342247009E+00  0.191407993436E+00 -0.230736359954E-01
  0.153342247009E+00  0.191407993436E+00  0.230736359954E-01
  0.153816103935E+00  0.957039967179E-01 -0.302445273846E-01
  0.153816103935E+00  0.957039967179E-01  0.302445273846E-01
  0.154955744743E+00  0.239260002971E+00 -0.174875911325E-01
  0.154955744743E+00  0.239260002971E+00  0.174875911325E-01
  0.155626997352E+00  0.478519983590E-01 -0.329986847937E-01
  0.155626997352E+00  0.478519983590E-01  0.329986847937E-01
  0.158455848694E+00  0.000000000000E+00 -0.353712737560E-01
  0.158455848694E+00  0.000000000000E+00  0.353712737560E-01
  0.165757432580E+00  0.287111997604E+00  0.000000000000E+00
  0.166207939386E+00  0.167482003570E+00 -0.267430916429E-01
  0.166207939386E+00  0.167482003570E+00  0.267430916429E-01
  0.166735544801E+00  0.119630001485E+00 -0.299702994525E-01
  0.166735544801E+00  0.119630001485E+00  0.299702994525E-01
  0.166752353311E+00  0.215333998203E+00 -0.228565540165E-01
  0.166752353311E+00  0.215333998203E+00  0.228565540165E-01
  0.168300196528E+00  0.717779994011E-01 -0.327048152685E-01
  0.168300196528E+00  0.717779994011E-01  0.327048152685E-01
  0.168607532978E+00  0.263186007738E+00 -0.173199083656E-01
  0.168607532978E+00  0.263186007738E+00  0.173199083656E-01
  0.170882523060E+00  0.239259991795E-01 -0.350617878139E-01
  0.170882523060E+00  0.239259991795E-01  0.350617878139E-01
  0.179373130202E+00  0.191407993436E+00 -0.264938306063E-01
  0.179373130202E+00  0.191407993436E+00  0.264938306063E-01
  0.179570555687E+00  0.311037987471E+00  0.000000000000E+00
  0.179654985666E+00  0.143555998802E+00 -0.296960715204E-01
  0.179654985666E+00  0.143555998802E+00  0.296960715204E-01
  0.180162444711E+00  0.239260002971E+00 -0.226394720376E-01
  0.180162444711E+00  0.239260002971E+00  0.226394720376E-01
  0.180973410606E+00  0.957039967179E-01 -0.324109420180E-01
  0.180973410606E+00  0.957039967179E-01  0.324109420180E-01
  0.182259336114E+00  0.287111997604E+00 -0.171522255987E-01
  0.182259336114E+00  0.287111997604E+00  0.171522255987E-01
  0.183309212327E+00  0.478519983590E-01 -0.347523018718E-01
  0.183309212327E+00  0.478519983590E-01  0.347523018718E-01
  0.186651825905E+00  0.000000000000E+00 -0.367915518582E-01
  0.186651825905E+00  0.000000000000E+00  0.367915518582E-01
  0.192538321018E+00  0.215333998203E+00 -0.262445714325E-01
  0.192538321018E+00  0.215333998203E+00  0.262445714325E-01
  0.192574426532E+00  0.167482003570E+00 -0.294218435884E-01
  0.192574426532E+00  0.167482003570E+00  0.294218435884E-01
  0.193383678794E+00  0.334964007139E+00  0.000000000000E+00
  0.193572536111E+00  0.263186007738E+00 -0.224223900586E-01
  0.193572536111E+00  0.263186007738E+00  0.224223900586E-01
  0.193646609783E+00  0.119630001485E+00 -0.321170724928E-01
  0.193646609783E+00  0.119630001485E+00  0.321170724928E-01
  0.195735886693E+00  0.717779994011E-01 -0.344428122044E-01
  0.195735886693E+00  0.717779994011E-01  0.344428122044E-01
  0.195911124349E+00  0.311037987471E+00 -0.169845428318E-01
  0.195911124349E+00  0.311037987471E+00  0.169845428318E-01
  0.198831796646E+00  0.239259991795E-01 -0.364696383476E-01
  0.198831796646E+00  0.239259991795E-01  0.364696383476E-01
  0.205493867397E+00  0.191407993436E+00 -0.291476156563E-01
  0.205493867397E+00  0.191407993436E+00  0.291476156563E-01
  0.205703511834E+00  0.239260002971E+00 -0.259953103960E-01
  0.205703511834E+00  0.239260002971E+00  0.259953103960E-01
  0.206319823861E+00  0.143555998802E+00 -0.318232029676E-01
  0.206319823861E+00  0.143555998802E+00  0.318232029676E-01
  0.206982642412E+00  0.287111997604E+00 -0.222053080797E-01
  0.206982642412E+00  0.287111997604E+00  0.222053080797E-01
  0.207196801901E+00  0.358889997005E+00  0.000000000000E+00
  0.208162575960E+00  0.957039967179E-01 -0.341333262622E-01
  0.208162575960E+00  0.957039967179E-01  0.341333262622E-01
  0.209562927485E+00  0.334964007139E+00 -0.168168619275E-01
  0.209562927485E+00  0.334964007139E+00  0.168168619275E-01
  0.211011782289E+00  0.478519983590E-01 -0.361477248371E-01
  0.211011782289E+00  0.478519983590E-01  0.361477248371E-01
  0.214861869812E+00  0.000000000000E+00 -0.378986261785E-01
  0.214861869812E+00  0.000000000000E+00  0.378986261785E-01
  0.218413308263E+00  0.215333998203E+00 -0.288733895868E-01
  0.218413308263E+00  0.215333998203E+00  0.288733895868E-01
  0.218868702650E+00  0.263186007738E+00 -0.257460512221E-01
  0.218868702650E+00  0.263186007738E+00  0.257460512221E-01
  0.218993023038E+00  0.167482003570E+00 -0.315293334424E-01
  0.218993023038E+00  0.167482003570E+00  0.315293334424E-01
  0.220392733812E+00  0.311037987471E+00 -0.219882261008E-01
  0.220392733812E+00  0.311037987471E+00  0.219882261008E-01
  0.220589250326E+00  0.119630001485E+00 -0.338238403201E-01
  0.220589250326E+00  0.119630001485E+00  0.338238403201E-01
  0.221009910107E+00  0.382815986872E+00  0.000000000000E+00
  0.223191753030E+00  0.717779994011E-01 -0.358258113265E-01
  0.223191753030E+00  0.717779994011E-01  0.358258113265E-01
  0.223214715719E+00  0.358889997005E+00 -0.166491791606E-01
  0.223214715719E+00  0.358889997005E+00  0.166491791606E-01
  0.226795017719E+00  0.239259991795E-01 -0.375670231879E-01
  0.226795017719E+00  0.239259991795E-01  0.375670231879E-01
[...]
CELL_DATA                6372
SCALARS C_p_ise float 1
LOOKUP_TABLE default
 -0.500593619156E+00
 -0.341760522818E+00
 -0.311909295839E+00
 -0.308617876681E+00
 -0.308433564523E+00
 -0.310230925336E+00
 -0.314405835813E+00
 -0.320695101288E+00
 -0.328176477290E+00
 -0.335517897942E+00
 -0.341180766763E+00
 -0.343700001327E+00
 -0.341899787544E+00
 -0.335074867218E+00
 -0.323102173103E+00
 -0.306442148514E+00
 -0.286055433116E+00
 -0.263233180199E+00
 -0.239325021558E+00
 -0.215483131914E+00
 -0.192282387734E+00
 -0.169298936874E+00
 -0.144792839427E+00
 -0.115401641270E+00
 -0.761489780076E-01
 -0.205993156886E-01
  0.454312150831E-01
 -0.577409194814E+00
 -0.375128720885E+00
 -0.331282476318E+00
 -0.321538636446E+00
 -0.317823528000E+00
 -0.317607846710E+00
 -0.320563243931E+00
 -0.325975814275E+00
 -0.332640917029E+00
 -0.339061749571E+00
 -0.343629699656E+00
 -0.344884622109E+00
 -0.341712796269E+00
 -0.333506155961E+00
 -0.320250601194E+00
 -0.302501287751E+00
 -0.281280662820E+00
 -0.257890831402E+00
 -0.233638858652E+00
 -0.209578938808E+00
 -0.186140621070E+00
 -0.162729842565E+00
 -0.137441012572E+00
 -0.106799798067E+00
 -0.658347214946E-01
 -0.818523754601E-02
  0.606354062547E-01
 -0.627612066985E+00
 -0.402808654602E+00
 -0.349318410091E+00
 -0.334411033354E+00
 -0.327579144099E+00
 -0.325372314417E+00
 -0.326953438972E+00
 -0.331288393015E+00
 -0.336969139912E+00
 -0.342380496156E+00
 -0.345862382664E+00
 -0.345956395732E+00
 -0.341589456972E+00
 -0.332217056631E+00
 -0.317893762284E+00
 -0.299231677414E+00
 -0.277284161216E+00
 -0.253349228229E+00
 -0.228691841224E+00
 -0.204289189285E+00
 -0.180469270585E+00
 -0.156531466288E+00
 -0.130484946734E+00
 -0.988324386177E-01
 -0.566912109535E-01
  0.204452415589E-02
  0.706697792739E-01
 -0.664129792253E+00
 -0.425436624251E+00
 -0.365255629671E+00
 -0.346386762529E+00
 -0.336951112757E+00
 -0.332932286026E+00
 -0.333157477954E+00
 -0.336373408683E+00
 -0.341029931383E+00
 -0.345429202995E+00
 -0.347875494274E+00
 -0.346911504525E+00
 -0.341491891752E+00
 -0.331114101547E+00
 -0.315876552079E+00
 -0.296424912263E+00
 -0.273826074657E+00
 -0.249367137350E+00
 -0.224276314557E+00
 -0.199473685443E+00
 -0.175220498569E+00
 -0.150756714660E+00
 -0.124065363480E+00
 -0.916905439261E-01
 -0.489106884288E-01
  0.997531708493E-02
  0.773210097327E-01
 -0.692630879434E+00
 -0.444286404340E+00
 -0.379230797804E+00
 -0.357277907452E+00
 -0.345673984204E+00
 -0.340043413077E+00
 -0.338992327511E+00
 -0.341117903366E+00
 -0.344771741630E+00
 -0.348198830218E+00
 -0.349678602648E+00
 -0.347755119098E+00
 -0.341401832754E+00
 -0.330144173773E+00
 -0.314108079094E+00
 -0.293958363030E+00
 -0.270766408435E+00
 -0.245806390476E+00
 -0.220277769036E+00
 -0.195061045797E+00
 -0.170378279553E+00
 -0.145444982990E+00
 -0.118255878242E+00
 -0.854321216186E-01
 -0.424358348677E-01
  0.160865310592E-01
  0.820949911159E-01
 -0.715940525478E+00
 -0.460309773244E+00
 -0.391521993925E+00
 -0.367102272626E+00
 -0.353671681838E+00
 -0.346613889689E+00
 -0.344385388328E+00
 -0.345480460413E+00
 -0.348182744974E+00
 -0.350697267609E+00
 -0.351286255341E+00
 -0.348494676950E+00
 -0.341308852634E+00
 -0.329272317867E+00
 -0.312528474680E+00
 -0.291752595539E+00
 -0.268016062294E+00
 -0.242581710510E+00
 -0.216628421476E+00
 -0.191012303601E+00
 -0.165936418256E+00
 -0.140615396797E+00
 -0.113077190744E+00
 -0.800292923827E-01
 -0.370915086316E-01
  0.208823339664E-01
  0.858061829641E-01
 -0.735629509866E+00
 -0.474164355523E+00
 -0.402392185317E+00
 -0.375942447918E+00
 -0.360949607892E+00
 -0.352624673251E+00
 -0.349319590437E+00
 -0.349456662403E+00
 -0.351271426596E+00
 -0.352940549117E+00
 -0.352714323235E+00
 -0.349137752291E+00
 -0.341205762755E+00
 -0.328473858113E+00
 -0.311096068766E+00
 -0.289753673404E+00
 -0.265516372731E+00
 -0.239638600070E+00
 -0.213286662020E+00
 -0.187303856381E+00
 -0.161888446440E+00
 -0.136268004759E+00
 -0.108510817158E+00
 -0.754014031899E-01
 -0.326682211159E-01
  0.247383323126E-01
  0.887775203106E-01
 -0.752647847883E+00
 -0.486307403273E+00
 -0.412061208221E+00
 -0.383897381730E+00
 -0.367547876199E+00
 -0.358092466368E+00
 -0.353806699020E+00
 -0.353060858654E+00
 -0.354056154513E+00
 -0.354948205106E+00
 -0.353978290063E+00
 -0.349691508105E+00
 -0.341087998330E+00
 -0.327730970442E+00
 -0.309781445449E+00
 -0.287924216547E+00
 -0.263227757497E+00
 -0.236941525466E+00
 -0.210225142180E+00
 -0.183918190178E+00
 -0.158222815088E+00
 -0.132384928612E+00
 -0.104511185911E+00
 -0.714438105305E-01
 -0.289736686944E-01
  0.279212081034E-01
  0.913068400181E-01
 -0.767607934685E+00
 -0.497065049091E+00
 -0.420707453379E+00
 -0.391064089663E+00
 -0.373520629487E+00
 -0.363050766249E+00
 -0.357872378960E+00
 -0.356317148283E+00
 -0.356559564224E+00
 -0.356740189228E+00
 -0.355093203781E+00
 -0.350162788191E+00
 -0.340952561793E+00
 -0.327031062007E+00
 -0.308564015881E+00
 -0.286238399025E+00
 -0.261123215225E+00
 -0.234465835076E+00
 -0.207423893313E+00
 -0.180838687212E+00
 -0.154920816065E+00
 -0.128934617969E+00
 -0.101017837339E+00
 -0.680499180406E-01
 -0.258512044745E-01
  0.306068382055E-01
  0.934714644990E-01
 -0.780927149198E+00
 -0.506676846600E+00
 -0.428475106316E+00
 -0.397531588952E+00
 -0.378924962611E+00
 -0.367540229564E+00
 -0.361548896715E+00
 -0.359252698771E+00
 -0.358805686253E+00
 -0.358336281925E+00
 -0.356072778213E+00
 -0.350558145483E+00
 -0.340798338073E+00
 -0.326365486518E+00
 -0.307428911076E+00
 -0.284678151029E+00
 -0.259183482932E+00
 -0.232193005332E+00
 -0.204865575875E+00
 -0.178046974084E+00
 -0.151957264137E+00
 -0.125877093451E+00
 -0.979654693399E-01
 -0.651231189186E-01
 -0.231803748817E-01
  0.329057962756E-01
  0.953246974363E-01
 -0.792900594135E+00
 -0.515323442843E+00
 -0.435482095455E+00
 -0.403379131938E+00
 -0.383816563710E+00
 -0.371602580777E+00
 -0.364870118096E+00
 -0.361895896355E+00
 -0.360818060813E+00
 -0.359755055345E+00
 -0.356929827274E+00
 -0.350884028333E+00
 -0.340625116758E+00
 -0.325728435120E+00
 -0.306365878070E+00
 -0.283230230191E+00
 -0.257394024021E+00
 -0.230107418656E+00
 -0.202533229633E+00
 -0.175522225416E+00
 -0.149302846730E+00
 -0.123168389312E+00
 -0.952907607408E-01
 -0.625809313691E-01
 -0.208701739553E-01
  0.348979961388E-01
  0.969374843117E-01
 -0.803746529845E+00
 -0.523144876486E+00
 -0.441825220740E+00
 -0.408676453415E+00
 -0.388247823054E+00
 -0.375278598272E+00
 -0.367868677273E+00
 -0.364274049374E+00
 -0.362619147711E+00
 -0.361013647398E+00
 -0.357675953942E+00
 -0.351146622221E+00
 -0.340434056843E+00
 -0.325115927172E+00
 -0.305367302276E+00
 -0.281884191559E+00
 -0.255742387307E+00
 -0.228195150579E+00
 -0.200409360462E+00
 -0.173241149099E+00
 -0.146925899946E+00
 -0.120764413746E+00
 -0.929359546888E-01
 -0.603552557892E-01
 -0.188503976932E-01
  0.366469193107E-01
  0.983678636016E-01
 -0.813631079190E+00
 -0.530252240635E+00
 -0.447585359722E+00
 -0.413484494868E+00
 -0.392265988267E+00
 -0.378606280524E+00
 -0.370575810565E+00
 -0.366412651392E+00
 -0.364229296461E+00
 -0.362127692416E+00
 -0.358322083742E+00
 -0.351351851338E+00
 -0.340226290174E+00
 -0.324525388069E+00
 -0.304427259019E+00
 -0.280631413085E+00
 -0.254217185380E+00
 -0.226441792452E+00
 -0.198475850773E+00
 -0.171179502562E+00
 -0.144793714542E+00
 -0.118623281010E+00
 -0.908501802588E-01
 -0.583900328253E-01
 -0.170656665491E-01
  0.382006737813E-01
  0.996548158693E-01
 -0.822683414142E+00
 -0.536735377094E+00
 -0.452830580540E+00
 -0.417856767824E+00
 -0.395913579380E+00
 -0.381620025609E+00
 -0.373020111119E+00
 -0.368335269068E+00
 -0.365667155483E+00
 -0.363111320830E+00
 -0.358877693338E+00
 -0.351505038514E+00
 -0.340003512008E+00
 -0.323954729154E+00
 -0.303540439905E+00
 -0.279463784552E+00
 -0.252807670169E+00
 -0.224832696848E+00
 -0.196713316194E+00
 -0.169312842603E+00
 -0.142874860022E+00
 -0.116706213073E+00
 -0.889895489567E-01
 -0.566390389714E-01
 -0.154720125440E-01
  0.395955782656E-01
  0.100830195333E+00
 -0.831006668135E+00
 -0.542668490664E+00
 -0.457618652677E+00
 -0.421839117038E+00
 -0.399228436499E+00
 -0.384351443090E+00
 -0.375227214948E+00
 -0.370062729124E+00
 -0.366949616337E+00
 -0.363976948239E+00
 -0.359351533646E+00
 -0.351611117671E+00
 -0.339766638643E+00
 -0.323401975595E+00
 -0.302701986982E+00
 -0.278373178582E+00
 -0.251502349354E+00
 -0.223353098883E+00
 -0.195102455046E+00
 -0.167616393973E+00
 -0.141139462774E+00
 -0.114978765914E+00
 -0.873162349661E-01
 -0.550635620633E-01
 -0.140344636977E-01
  0.408575160253E-01
  0.101851515484E+00
 -0.838685851558E+00
 -0.548113134910E+00
 -0.461998522017E+00
 -0.425472395820E+00
 -0.402244143229E+00
 -0.386828191376E+00
 -0.377220447793E+00
 -0.371613875769E+00
 -0.368091104180E+00
 -0.364735635672E+00
 -0.359750969573E+00
 -0.351674095511E+00
 -0.339516688419E+00
 -0.322864770800E+00
 -0.301906492430E+00
 -0.277351399000E+00
 -0.250289573512E+00
 -0.221987582337E+00
 -0.193624097312E+00
 -0.166066542669E+00
 -0.139559840875E+00
 -0.113410050264E+00
 -0.857974440585E-01
 -0.536313488455E-01
 -0.127229157871E-01
  0.420181582580E-01
  0.102846230173E+00
 -0.845790751188E+00
 -0.553121831433E+00
 -0.466012642984E+00
 -0.428791584926E+00
 -0.404990208477E+00
 -0.389075033042E+00
 -0.379019963645E+00
 -0.373005207045E+00
 -0.369104854572E+00
 -0.365396846230E+00
 -0.360082321556E+00
 -0.351696989652E+00
 -0.339253594140E+00
 -0.322340340662E+00
 -0.301148143572E+00
 -0.276389617843E+00
 -0.249157406709E+00
 -0.220720443311E+00
 -0.192259159450E+00
 -0.164641059885E+00
 -0.138110400136E+00
 -0.111972239961E+00
 -0.844048859778E-01
 -0.523152057357E-01
 -0.115119230274E-01
  0.430973856246E-01
  0.103772072428E+00
 -0.852379741778E+00
 -0.557738153258E+00
 -0.469697414932E+00
 -0.431827624749E+00
 -0.407492454304E+00
 -0.391113391472E+00
 -0.380643865906E+00
 -0.374251077108E+00
 -0.370001775108E+00
 -0.365968813077E+00
 -0.360350341443E+00
 -0.351681896253E+00
 -0.338976733967E+00
 -0.321825034195E+00
 -0.300420522622E+00
 -0.275478273872E+00
 -0.248093284115E+00
 -0.219536531104E+00
 -0.190989190713E+00
 -0.163318454704E+00
 -0.136767739189E+00
 -0.110640770439E+00
 -0.831138534002E-01
 -0.510912241029E-01
 -0.103802272288E-01
  0.441109101931E-01
  0.104625486195E+00
 -0.858501954921E+00
 -0.562000475895E+00
 -0.473084566310E+00
 -0.434606842798E+00
 -0.409773474858E+00
 -0.392962464612E+00
 -0.382107508318E+00
 -0.375364045908E+00
 -0.370791232055E+00
 -0.366457837511E+00
 -0.360559053708E+00
 -0.351629745880E+00
 -0.338684206663E+00
 -0.321314521126E+00
 -0.299716473119E+00
 -0.274607451952E+00
 -0.247084744114E+00
 -0.218420498437E+00
 -0.189796367557E+00
 -0.162078934894E+00
 -0.135510542581E+00
 -0.109393630574E+00
 -0.819022589508E-01
 -0.499387857784E-01
 -0.930887220979E-02
  0.450809276884E-01
  0.105501690054E+00
 -0.864199683633E+00
 -0.565941076099E+00
 -0.476201135288E+00
 -0.437152928922E+00
 -0.411853036658E+00
 -0.394638449958E+00
 -0.383424028519E+00
 -0.376354465465E+00
 -0.371481279765E+00
 -0.366868917960E+00
 -0.360710732675E+00
 -0.351540388502E+00
 -0.338373417417E+00
 -0.320803469237E+00
 -0.299028000906E+00
 -0.273766779340E+00
 -0.246118849993E+00
 -0.217357237585E+00
 -0.188663243789E+00
 -0.160903604826E+00
 -0.134319236825E+00
 -0.108210741249E+00
 -0.807505895483E-01
 -0.488395112484E-01
 -0.828111284833E-02
  0.460198625156E-01
  0.106324890476E+00
 -0.869508147143E+00
 -0.569588420861E+00
 -0.479070822240E+00
 -0.439485559180E+00
 -0.413747874701E+00
 -0.396155396008E+00
 -0.384605068718E+00
 -0.377230743142E+00
 -0.372077767529E+00
 -0.367205874710E+00
 -0.360806273151E+00
 -0.351412543555E+00
 -0.338040576546E+00
 -0.320285423441E+00
 -0.298346453690E+00
 -0.272945381751E+00
 -0.245182501157E+00
 -0.216331302320E+00
 -0.187573425526E+00
 -0.159774801626E+00
 -0.133175188481E+00
 -0.107073690203E+00
 -0.796413830753E-01
 -0.477772149318E-01
 -0.728309137154E-02
  0.469401410248E-01
  0.107166118160E+00
 -0.874458752322E+00
 -0.572966237666E+00
 -0.481713921905E+00
 -0.441622242527E+00
 -0.415472500112E+00
 -0.397524986188E+00
 -0.385659831807E+00
 -0.378000087254E+00
 -0.372584912397E+00
 -0.367470537069E+00
 -0.360845721184E+00
 -0.351243497646E+00
 -0.337680615014E+00
 -0.319753347652E+00
 -0.297662595695E+00
 -0.272131691644E+00
 -0.244262158084E+00
 -0.215327993304E+00
 -0.186510741304E+00
 -0.158675472105E+00
 -0.132061169222E+00
 -0.105965540330E+00
 -0.785585307527E-01
 -0.467377690475E-01
 -0.630325284592E-02
  0.478472742480E-01
  0.108014372123E+00
 -0.879077850689E+00
 -0.576095012777E+00
 -0.484147829719E+00
 -0.443577380736E+00
 -0.417038916964E+00
 -0.398757292589E+00
 -0.386595426271E+00
 -0.378667490925E+00
 -0.373005892102E+00
 -0.367663406655E+00
 -0.360827152497E+00
 -0.351029445867E+00
 -0.337287503853E+00
 -0.319198842263E+00
 -0.296966048275E+00
 -0.271313650802E+00
 -0.243344140051E+00
 -0.214332187206E+00
 -0.185458967824E+00
 -0.157589288804E+00
 -0.130960743946E+00
 -0.104870354256E+00
 -0.774871144738E-01
 -0.457079339044E-01
 -0.533258425407E-02
  0.487372338926E-01
  0.108768661707E+00
 -0.883386782932E+00
 -0.578992946778E+00
 -0.486387153918E+00
 -0.445363507648E+00
 -0.418457501717E+00
 -0.399859845311E+00
 -0.387417698760E+00
 -0.379236177952E+00
 -0.373341824996E+00
 -0.367783832840E+00
 -0.360747558194E+00
 -0.350765013972E+00
 -0.336853900764E+00
 -0.318612749063E+00
 -0.296245639696E+00
 -0.270478527357E+00
 -0.242414450096E+00
 -0.213328644277E+00
 -0.184402397564E+00
 -0.156499904083E+00
 -0.129858118675E+00
 -0.103772751181E+00
 -0.764130544360E-01
 -0.446754369683E-01
 -0.436118524985E-02
  0.496228173058E-01
  0.109527068125E+00
 -0.887404492980E+00
 -0.581674566914E+00
 -0.488444459305E+00
 -0.446990812985E+00
 -0.419736001837E+00
 -0.400838630602E+00
 -0.388130518383E+00
 -0.379707969310E+00
 -0.373592272958E+00
 -0.367829137907E+00
 -0.360602324459E+00
 -0.350443551488E+00
 -0.336371026443E+00
 -0.317984568064E+00
 -0.295489303151E+00
 -0.269612378948E+00
 -0.241458131873E+00
 -0.212301844448E+00
 -0.183325066983E+00
 -0.155391216753E+00
 -0.128736949542E+00
 -0.102657728863E+00
 -0.753223258997E-01
 -0.436274776884E-01
 -0.337667938219E-02
  0.505198551050E-01
  0.110334274742E+00
 -0.891147247681E+00
 -0.584152563973E+00
 -0.490329630857E+00
 -0.448467240411E+00
 -0.420880631682E+00
 -0.401697611850E+00
 -0.388735789374E+00
 -0.380082958342E+00
 -0.373755166214E+00
 -0.367795069767E+00
 -0.360385149921E+00
 -0.350056805222E+00
 -0.335828822656E+00
 -0.317302208504E+00
 -0.294683377837E+00
 -0.268700780501E+00
 -0.240459541857E+00
 -0.211235473842E+00
 -0.182210147202E+00
 -0.154246886580E+00
 -0.127581520396E+00
 -0.101510024662E+00
 -0.742004020914E-01
 -0.425502170895E-01
 -0.236615275507E-02
  0.514304733282E-01
  0.111033353726E+00
 -0.894626180414E+00
 -0.586435866892E+00
 -0.492051101223E+00
 -0.449798918724E+00
 -0.421895527311E+00
 -0.402439342799E+00
 -0.389233845011E+00
 -0.380359143350E+00
 -0.373826559453E+00
 -0.367675723830E+00
 -0.360088015947E+00
 -0.349594749993E+00
 -0.335215466224E+00
 -0.316552265835E+00
 -0.293813047723E+00
 -0.267727670325E+00
 -0.239401977867E+00
 -0.210112302568E+00
 -0.181040523832E+00
 -0.153049820294E+00
 -0.126375637100E+00
 -0.100313859859E+00
 -0.730323580181E-01
 -0.414294678061E-01
 -0.131304409168E-02
  0.523912477022E-01
  0.111843299834E+00
 -0.897850806196E+00
 -0.588533239279E+00
 -0.493614330031E+00
 -0.450990301220E+00
 -0.422783146833E+00
 -0.403063739379E+00
 -0.389623061205E+00
 -0.380532991463E+00
 -0.373800509307E+00
 -0.367463122123E+00
 -0.359700858058E+00
 -0.349045367732E+00
 -0.334517010640E+00
 -0.315719361254E+00
 -0.292861791282E+00
 -0.266675373622E+00
 -0.238267235155E+00
 -0.208914069097E+00
 -0.179797912967E+00
 -0.151782158840E+00
 -0.125102143097E+00
 -0.990530583869E-01
 -0.718029288830E-01
 -0.402497643058E-01
 -0.199350484673E-03
  0.534358077730E-01
  0.112905702761E+00
 -0.900829146161E+00
 -0.590449704466E+00
 -0.495023427201E+00
 -0.452043450095E+00
 -0.423543851816E+00
 -0.403569678241E+00
 -0.389899633489E+00
 -0.380598531584E+00
 -0.373669049026E+00
 -0.367146911112E+00
 -0.359211268221E+00
 -0.348394180516E+00
 -0.333717297969E+00
 -0.314785717181E+00
 -0.291810657141E+00
 -0.265524342699E+00
 -0.237035130061E+00
 -0.207620583438E+00
 -0.178462592476E+00
 -0.150424956778E+00
 -0.123742848714E+00
 -0.977105204274E-01
 -0.704962348768E-01
 -0.389970894472E-01
  0.985127425170E-03
  0.545464825718E-01
  0.113964149831E+00
 -0.903564368505E+00
 -0.592189150026E+00
 -0.496280493181E+00
 -0.452958724453E+00
 -0.424176201412E+00
 -0.403953431313E+00
 -0.390057760271E+00
 -0.380547543867E+00
 -0.373421720118E+00
 -0.366714164741E+00
 -0.358604022363E+00
 -0.347623944949E+00
 -0.332797260021E+00
 -0.313731050305E+00
 -0.290638136004E+00
 -0.264252438194E+00
 -0.235683637303E+00
 -0.206209872863E+00
 -0.177013472596E+00
 -0.148957991567E+00
 -0.122278495534E+00
 -0.962687714434E-01
 -0.690967459272E-01
 -0.376589457586E-01
  0.224433327704E-02
  0.557069523583E-01
  0.114995663000E+00
 -0.906057423578E+00
 -0.593752601468E+00
 -0.497385732788E+00
 -0.453734498304E+00
 -0.424676381760E+00
 -0.404209032996E+00
 -0.390088976477E+00
 -0.380369134273E+00
 -0.373044845031E+00
 -0.366148736171E+00
 -0.357860531040E+00
 -0.346713937046E+00
 -0.331734410246E+00
 -0.312531286076E+00
 -0.289319604286E+00
 -0.262834829578E+00
 -0.234187708185E+00
 -0.204657710260E+00
 -0.175427326196E+00
 -0.147359149651E+00
 -0.120688560828E+00
 -0.947093969210E-01
 -0.675884553250E-01
 -0.362230091882E-01
  0.358545231395E-02
  0.569225793242E-01
  0.116014920476E+00
 -0.908307434961E+00
 -0.595139117608E+00
 -0.498336832173E+00
 -0.454366880779E+00
 -0.425038215819E+00
 -0.404327769451E+00
 -0.389982138968E+00
 -0.380048925740E+00
 -0.372521179543E+00
 -0.365430515115E+00
 -0.356958006738E+00
 -0.345639230237E+00
 -0.330502012632E+00
 -0.311158503448E+00
 -0.287826277839E+00
 -0.261242605831E+00
 -0.232519328642E+00
 -0.202937273938E+00
 -0.173677973154E+00
 -0.145604221152E+00
 -0.118951367124E+00
 -0.930123818724E-01
 -0.659543896991E-01
 -0.346748275501E-01
  0.502268529012E-02
  0.582186470325E-01
  0.117122909608E+00
 -0.910308941039E+00
 -0.596345371587E+00
 -0.499129613014E+00
 -0.454849376072E+00
 -0.425253079865E+00
 -0.404298006129E+00
 -0.389722236132E+00
 -0.379568726440E+00
 -0.371828872381E+00
 -0.364534563357E+00
 -0.355868578324E+00
 -0.344369380363E+00
 -0.329067882096E+00
 -0.309579652030E+00
 -0.286124816509E+00
 -0.259442991387E+00
 -0.230647041520E+00
 -0.201017746112E+00
 -0.171737260916E+00
 -0.143667251902E+00
 -0.117042838812E+00
 -0.911566507426E-01
 -0.641757295475E-01
 -0.329977926666E-01
  0.657309172411E-02
  0.596176532036E-01
  0.118359858164E+00
 -0.912054840009E+00
 -0.597365828384E+00
 -0.499757135014E+00
 -0.455173241290E+00
 -0.425308641846E+00
 -0.404104271292E+00
 -0.389289892122E+00
 -0.378905040975E+00
 -0.370940375106E+00
 -0.363429428259E+00
 -0.354557672136E+00
 -0.342867241114E+00
 -0.327393383656E+00
 -0.307755347275E+00
 -0.284176355506E+00
 -0.257398039411E+00
 -0.228534352983E+00
 -0.198865468095E+00
 -0.169573400211E+00
 -0.141519501950E+00
 -0.114936880113E+00
 -0.891189735985E-01
 -0.622319058422E-01
 -0.311735264305E-01
  0.825102543902E-02
  0.611220197696E-01
  0.119668533503E+00
 -0.913534288368E+00
 -0.598192880299E+00
 -0.500210102184E+00
 -0.455325913325E+00
 -0.425189142930E+00
 -0.403726143924E+00
 -0.388659693418E+00
 -0.378027585283E+00
 -0.369820783797E+00
 -0.362075640905E+00
 -0.352982057381E+00
 -0.341087247243E+00
 -0.325431629853E+00
 -0.305638864093E+00
 -0.281935193387E+00
 -0.255064060379E+00
 -0.226139781245E+00
 -0.196442266792E+00
 -0.167151777789E+00
 -0.139128801390E+00
 -0.112605382346E+00
 -0.868738829711E-01
 -0.601004724215E-01
 -0.291829742307E-01
  0.100709064237E-01
  0.627324392734E-01
  0.120991636960E+00
 -0.914728896775E+00
 -0.598814090073E+00
 -0.500475452964E+00