# vtk DataFile Version 3.0
MachLine results file. Generated by MachLine, USU AeroLab (c) 2022.
ASCII
DATASET POLYDATA
POINTS                3261 float
  0.000000000000E+00  0.000000000000E+00  0.000000000000E+00
  0.138131193817E-01  0.239259991795E-01  0.000000000000E+00
  0.184377916157E-01  0.000000000000E+00 -0.191644169390E-01
  0.184377916157E-01  0.000000000000E+00  0.191644169390E-01
  0.276262387633E-01  0.478519983590E-01  0.000000000000E+00
  0.320895873010E-01  0.239259991795E-01 -0.189967341721E-01
  0.320895873010E-01  0.239259991795E-01  0.189967341721E-01
  0.414393581450E-01  0.717779994011E-01  0.000000000000E+00
  0.457413829863E-01  0.478519983590E-01 -0.188290514052E-01
  0.457413829863E-01  0.478519983590E-01  0.188290514052E-01
  0.460614785552E-01  0.000000000000E+00 -0.248102936894E-01
  0.460614785552E-01  0.000000000000E+00  0.248102936894E-01
  0.552524775267E-01  0.957039967179E-01  0.000000000000E+00
  0.593931749463E-01  0.717779994011E-01 -0.186613686383E-01
  0.593931749463E-01  0.717779994011E-01  0.186613686383E-01
  0.594715774059E-01  0.239259991795E-01 -0.245932117105E-01
  0.594715774059E-01  0.239259991795E-01  0.245932117105E-01
  0.690656006336E-01  0.119630001485E+00  0.000000000000E+00
  0.728816688061E-01  0.478519983590E-01 -0.243761278689E-01
  0.728816688061E-01  0.478519983590E-01  0.243761278689E-01
  0.730449706316E-01  0.957039967179E-01 -0.184936858714E-01
  0.730449706316E-01  0.957039967179E-01  0.184936858714E-01
  0.740515887737E-01  0.000000000000E+00 -0.284879114479E-01
  0.740515887737E-01  0.000000000000E+00  0.284879114479E-01
  0.828787162900E-01  0.143555998802E+00  0.000000000000E+00
  0.862917676568E-01  0.717779994011E-01 -0.241590458900E-01
  0.862917676568E-01  0.717779994011E-01  0.241590458900E-01
  0.866967663169E-01  0.119630001485E+00 -0.183260031044E-01
  0.866967663169E-01  0.119630001485E+00  0.183260031044E-01
  0.872167795897E-01  0.239259991795E-01 -0.282386522740E-01
  0.872167795897E-01  0.239259991795E-01  0.282386522740E-01
  0.966918393970E-01  0.167482003570E+00  0.000000000000E+00
  0.997018665075E-01  0.957039967179E-01 -0.239419639111E-01
  0.997018665075E-01  0.957039967179E-01  0.239419639111E-01
  0.100348562002E+00  0.143555998802E+00 -0.181583203375E-01
  0.100348562002E+00  0.143555998802E+00  0.181583203375E-01
  0.100381970406E+00  0.478519983590E-01 -0.279893912375E-01
  0.100381970406E+00  0.478519983590E-01  0.279893912375E-01
  0.102138325572E+00  0.000000000000E+00 -0.313414372504E-01
  0.102138325572E+00  0.000000000000E+00  0.313414372504E-01
  0.110504955053E+00  0.191407993436E+00  0.000000000000E+00
  0.113111965358E+00  0.119630001485E+00 -0.237248819321E-01
  0.113111965358E+00  0.119630001485E+00  0.237248819321E-01
  0.113547168672E+00  0.717779994011E-01 -0.277401320636E-01
  0.113547168672E+00  0.717779994011E-01  0.277401320636E-01
  0.114000357687E+00  0.167482003570E+00 -0.179906394333E-01
  0.114000357687E+00  0.167482003570E+00  0.179906394333E-01
  0.115057766438E+00  0.239259991795E-01 -0.310672093183E-01
  0.115057766438E+00  0.239259991795E-01  0.310672093183E-01
  0.124318078160E+00  0.215333998203E+00  0.000000000000E+00
  0.126522064209E+00  0.143555998802E+00 -0.235077999532E-01
  0.126522064209E+00  0.143555998802E+00  0.235077999532E-01
  0.126712352037E+00  0.957039967179E-01 -0.274908710271E-01
  0.126712352037E+00  0.957039967179E-01  0.274908710271E-01
  0.127652153373E+00  0.191407993436E+00 -0.178229566664E-01
  0.127652153373E+00  0.191407993436E+00  0.178229566664E-01
  0.127977207303E+00  0.478519983590E-01 -0.307929813862E-01
  0.127977207303E+00  0.478519983590E-01  0.307929813862E-01
  0.130280584097E+00  0.000000000000E+00 -0.335864275694E-01
  0.130280584097E+00  0.000000000000E+00  0.335864275694E-01
  0.138131201267E+00  0.239260002971E+00  0.000000000000E+00
  0.139877542853E+00  0.119630001485E+00 -0.272416118532E-01
  0.139877542853E+00  0.119630001485E+00  0.272416118532E-01
  0.139932155609E+00  0.167482003570E+00 -0.232907179743E-01
  0.139932155609E+00  0.167482003570E+00  0.232907179743E-01
  0.140896648169E+00  0.717779994011E-01 -0.305187534541E-01
  0.140896648169E+00  0.717779994011E-01  0.305187534541E-01
  0.141303941607E+00  0.215333998203E+00 -0.176552738994E-01
  0.141303941607E+00  0.215333998203E+00  0.176552738994E-01
  0.142953783274E+00  0.239259991795E-01 -0.332925543189E-01
  0.142953783274E+00  0.239259991795E-01  0.332925543189E-01
  0.151944324374E+00  0.263186007738E+00  0.000000000000E+00
  0.153042748570E+00  0.143555998802E+00 -0.269923508167E-01
  0.153042748570E+00  0.143555998802E+00  0.269923508167E-01
  0.153342247009E+00  0.191407993436E+00 -0.230736359954E-01
  0.153342247009E+00  0.191407993436E+00  0.230736359954E-01
  0.153816103935E+00  0.957039967179E-01 -0.302445273846E-01
  0.153816103935E+00  0.957039967179E-01  0.302445273846E-01
  0.154955744743E+00  0.239260002971E+00 -0.174875911325E-01
  0.154955744743E+00  0.239260002971E+00  0.174875911325E-01
  0.155626997352E+00  0.478519983590E-01 -0.329986847937E-01
  0.155626997352E+00  0.478519983590E-01  0.329986847937E-01
  0.158455848694E+00  0.000000000000E+00 -0.353712737560E-01
  0.158455848694E+00  0.000000000000E+00  0.353712737560E-01
  0.165757432580E+00  0.287111997604E+00  0.000000000000E+00
  0.166207939386E+00  0.167482003570E+00 -0.267430916429E-01
  0.166207939386E+00  0.167482003570E+00  0.267430916429E-01
  0.166735544801E+00  0.119630001485E+00 -0.299702994525E-01
  0.166735544801E+00  0.119630001485E+00  0.299702994525E-01
  0.166752353311E+00  0.215333998203E+00 -0.228565540165E-01
  0.166752353311E+00  0.215333998203E+00  0.228565540165E-01
  0.168300196528E+00  0.717779994011E-01 -0.327048152685E-01
  0.168300196528E+00  0.717779994011E-01  0.327048152685E-01
  0.168607532978E+00  0.263186007738E+00 -0.173199083656E-01
  0.168607532978E+00  0.263186007738E+00  0.173199083656E-01
  0.170882523060E+00  0.239259991795E-01 -0.350617878139E-01
  0.170882523060E+00  0.239259991795E-01  0.350617878139E-01
  0.179373130202E+00  0.191407993436E+00 -0.264938306063E-01
  0.179373130202E+00  0.191407993436E+00  0.264938306063E-01
  0.179570555687E+00  0.311037987471E+00  0.000000000000E+00
  0.179654985666E+00  0.143555998802E+00 -0.296960715204E-01
  0.179654985666E+00  0.143555998802E+00  0.296960715204E-01
  0.180162444711E+00  0.239260002971E+00 -0.226394720376E-01
  0.180162444711E+00  0.239260002971E+00  0.226394720376E-01
  0.180973410606E+00  0.957039967179E-01 -0.324109420180E-01
  0.180973410606E+00  0.957039967179E-01  0.324109420180E-01
  0.182259336114E+00  0.287111997604E+00 -0.171522255987E-01
  0.182259336114E+00  0.287111997604E+00  0.171522255987E-01
  0.183309212327E+00  0.478519983590E-01 -0.347523018718E-01
  0.183309212327E+00  0.478519983590E-01  0.347523018718E-01
  0.186651825905E+00  0.000000000000E+00 -0.367915518582E-01
  0.186651825905E+00  0.000000000000E+00  0.367915518582E-01
  0.192538321018E+00  0.215333998203E+00 -0.262445714325E-01
  0.192538321018E+00  0.215333998203E+00  0.262445714325E-01
  0.192574426532E+00  0.167482003570E+00 -0.294218435884E-01
  0.192574426532E+00  0.167482003570E+00  0.294218435884E-01
  0.193383678794E+00  0.334964007139E+00  0.000000000000E+00
  0.193572536111E+00  0.263186007738E+00 -0.224223900586E-01
  0.193572536111E+00  0.263186007738E+00  0.224223900586E-01
  0.193646609783E+00  0.119630001485E+00 -0.321170724928E-01
  0.193646609783E+00  0.119630001485E+00  0.321170724928E-01
  0.195735886693E+00  0.717779994011E-01 -0.344428122044E-01
  0.195735886693E+00  0.717779994011E-01  0.344428122044E-01
  0.195911124349E+00  0.311037987471E+00 -0.169845428318E-01
  0.195911124349E+00  0.311037987471E+00  0.169845428318E-01
  0.198831796646E+00  0.239259991795E-01 -0.364696383476E-01
  0.198831796646E+00  0.239259991795E-01  0.364696383476E-01
  0.205493867397E+00  0.191407993436E+00 -0.291476156563E-01
  0.205493867397E+00  0.191407993436E+00  0.291476156563E-01
  0.205703511834E+00  0.239260002971E+00 -0.259953103960E-01
  0.205703511834E+00  0.239260002971E+00  0.259953103960E-01
  0.206319823861E+00  0.143555998802E+00 -0.318232029676E-01
  0.206319823861E+00  0.143555998802E+00  0.318232029676E-01
  0.206982642412E+00  0.287111997604E+00 -0.222053080797E-01
  0.206982642412E+00  0.287111997604E+00  0.222053080797E-01
  0.207196801901E+00  0.358889997005E+00  0.000000000000E+00
  0.208162575960E+00  0.957039967179E-01 -0.341333262622E-01
  0.208162575960E+00  0.957039967179E-01  0.341333262622E-01
  0.209562927485E+00  0.334964007139E+00 -0.168168619275E-01
  0.209562927485E+00  0.334964007139E+00  0.168168619275E-01
  0.211011782289E+00  0.478519983590E-01 -0.361477248371E-01
  0.211011782289E+00  0.478519983590E-01  0.361477248371E-01
  0.214861869812E+00  0.000000000000E+00 -0.378986261785E-01
  0.214861869812E+00  0.000000000000E+00  0.378986261785E-01
  0.218413308263E+00  0.215333998203E+00 -0.288733895868E-01
  0.218413308263E+00  0.215333998203E+00  0.288733895868E-01
  0.218868702650E+00  0.263186007738E+00 -0.257460512221E-01
  0.218868702650E+00  0.263186007738E+00  0.257460512221E-01
  0.218993023038E+00  0.167482003570E+00 -0.315293334424E-01
  0.218993023038E+00  0.167482003570E+00  0.315293334424E-01
  0.220392733812E+00  0.311037987471E+00 -0.219882261008E-01
  0.220392733812E+00  0.311037987471E+00  0.219882261008E-01
  0.220589250326E+00  0.119630001485E+00 -0.338238403201E-01
  0.220589250326E+00  0.119630001485E+00  0.338238403201E-01
  0.221009910107E+00  0.382815986872E+00  0.000000000000E+00
  0.223191753030E+00  0.717779994011E-01 -0.358258113265E-01
  0.223191753030E+00  0.717779994011E-01  0.358258113265E-01
  0.223214715719E+00  0.358889997005E+00 -0.166491791606E-01
  0.223214715719E+00  0.358889997005E+00  0.166491791606E-01
  0.226795017719E+00  0.239259991795E-01 -0.375670231879E-01
  0.226795017719E+00  0.239259991795E-01  0.375670231879E-01
[...]
CELL_DATA                6372
SCALARS C_p_ise float 1
LOOKUP_TABLE default
 -0.403466578653E+00
 -0.270521699951E+00
 -0.250261011307E+00
 -0.253030828997E+00
 -0.257462192264E+00
 -0.263013810082E+00
 -0.270366509625E+00
 -0.279433468830E+00
 -0.289413520562E+00
 -0.299061375049E+00
 -0.306901101744E+00
 -0.311510920815E+00
 -0.311742579294E+00
 -0.306905721818E+00
 -0.296882501241E+00
 -0.282132268283E+00
 -0.263611396934E+00
 -0.242606983566E+00
 -0.220468150397E+00
 -0.198352718575E+00
 -0.176850539672E+00
 -0.155564600134E+00
 -0.132795345072E+00
 -0.105237472918E+00
 -0.679954565756E-01
 -0.147661310784E-01
  0.484624239092E-01
 -0.473458961062E+00
 -0.302112681449E+00
 -0.269233910037E+00
 -0.266072454323E+00
 -0.267202092214E+00
 -0.270843626495E+00
 -0.277020614211E+00
 -0.285226836449E+00
 -0.294394230212E+00
 -0.303120410541E+00
 -0.309862845171E+00
 -0.313205812322E+00
 -0.312063072279E+00
 -0.305840866878E+00
 -0.294529652590E+00
 -0.278683073045E+00
 -0.259319303784E+00
 -0.237736923716E+00
 -0.215243531340E+00
 -0.192900471127E+00
 -0.171154079667E+00
 -0.149439048331E+00
 -0.125891987964E+00
 -0.970971327122E-01
 -0.581640427059E-01
 -0.285940276387E-02
  0.631786404287E-01
 -0.517615958914E+00
 -0.327487771817E+00
 -0.286274935181E+00
 -0.278560411877E+00
 -0.276897151707E+00
 -0.278729797568E+00
 -0.283639149072E+00
 -0.290832508310E+00
 -0.299056679409E+00
 -0.306800959150E+00
 -0.312476830582E+00
 -0.314673141976E+00
 -0.312345626766E+00
 -0.304964638593E+00
 -0.292589543862E+00
 -0.275831160227E+00
 -0.255738977813E+00
 -0.233608150231E+00
 -0.210705115079E+00
 -0.188015349136E+00
 -0.165884823831E+00
 -0.143642654569E+00
 -0.119340582950E+00
 -0.895387861597E-01
 -0.494309705603E-01
  0.697303969102E-02
  0.728424976749E-01
 -0.548839740712E+00
 -0.347744021445E+00
 -0.300978806148E+00
 -0.289892378781E+00
 -0.285968954093E+00
 -0.286201300564E+00
 -0.289890545417E+00
 -0.296055370164E+00
 -0.303317984590E+00
 -0.310095290621E+00
 -0.314769161392E+00
 -0.315933057970E+00
 -0.312572455936E+00
 -0.304200821191E+00
 -0.290922094480E+00
 -0.273381234626E+00
 -0.252641861257E+00
 -0.229988899328E+00
 -0.206652831502E+00
 -0.183562835394E+00
 -0.160998805154E+00
 -0.138230682539E+00
 -0.113283371109E+00
 -0.827557655080E-01
 -0.419961890445E-01
  0.145942982307E-01
  0.792704257808E-01
 -0.572656116197E+00
 -0.364295798034E+00
 -0.313635538792E+00
 -0.300005614208E+00
 -0.294248501225E+00
 -0.293087240415E+00
 -0.295647831772E+00
 -0.300825620202E+00
 -0.307160250938E+00
 -0.313021059842E+00
 -0.316771030760E+00
 -0.317008657227E+00
 -0.312740486990E+00
 -0.303509407233E+00
 -0.289447845543E+00
 -0.271220644618E+00
 -0.249896566853E+00
 -0.226748254364E+00
 -0.202978055911E+00
 -0.179476096619E+00
 -0.156483345323E+00
 -0.133245020226E+00
 -0.107796395583E+00
 -0.768102185350E-01
 -0.358120960669E-01
  0.204612879647E-01
  0.838985531713E-01
 -0.591766825917E+00
 -0.378136624089E+00
 -0.324594518654E+00
 -0.308986226094E+00
 -0.301717639827E+00
 -0.299342949201E+00
 -0.300876255192E+00
 -0.305132190475E+00
 -0.310596139584E+00
 -0.315606145595E+00
 -0.318513554134E+00
 -0.317921349459E+00
 -0.312851271204E+00
 -0.302865845002E+00
 -0.288116015753E+00
 -0.269277868985E+00
 -0.247420803718E+00
 -0.223806671503E+00
 -0.199617696452E+00
 -0.175719903078E+00
 -0.152335237795E+00
 -0.128707468219E+00
 -0.102903610633E+00
 -0.716798792171E-01
 -0.307148530035E-01
  0.250544348551E-01
  0.874790739789E-01
 -0.607649043768E+00
 -0.389931886663E+00
 -0.334153044861E+00
 -0.316955662272E+00
 -0.308417862803E+00
 -0.304980669458E+00
 -0.305585090660E+00
 -0.308992611677E+00
 -0.313652417513E+00
 -0.317881912898E+00
 -0.320025594937E+00
 -0.318689857001E+00
 -0.312907292178E+00
 -0.302253912605E+00
 -0.286892344008E+00
 -0.267505434360E+00
 -0.245161486745E+00
 -0.221114390364E+00
 -0.196534103799E+00
 -0.172273963952E+00
 -0.148550938311E+00
 -0.124621096333E+00
 -0.985905182336E-01
 -0.672905073012E-01
 -0.265061336959E-01
  0.287305478284E-01
  0.903291318368E-01
 -0.621183075756E+00
 -0.400134638267E+00
 -0.342547511674E+00
 -0.324035602002E+00
 -0.314412418648E+00
 -0.310038383568E+00
 -0.309804844855E+00
 -0.312437436756E+00
 -0.316361370974E+00
 -0.319879862942E+00
 -0.321332999476E+00
 -0.319330377171E+00
 -0.312911916666E+00
 -0.301662780127E+00
 -0.285753578260E+00
 -0.265871371717E+00
 -0.243083735271E+00
 -0.218639927746E+00
 -0.193703424770E+00
 -0.169123862249E+00
 -0.145121870341E+00
 -0.120971318905E+00
 -0.948158422100E-01
 -0.635436815739E-01
 -0.230028462490E-01
  0.317410227179E-01
  0.926766550955E-01
 -0.632928824896E+00
 -0.409062869804E+00
 -0.349963895408E+00
 -0.330336575142E+00
 -0.319770555674E+00
 -0.314564347334E+00
 -0.313574768914E+00
 -0.315502909572E+00
 -0.318756383166E+00
 -0.321629425309E+00
 -0.322459180169E+00
 -0.319857167657E+00
 -0.312868738372E+00
 -0.301085718936E+00
 -0.284684336959E+00
 -0.264354459011E+00
 -0.241164600964E+00
 -0.216362202319E+00
 -0.191108877841E+00
 -0.166255954216E+00
 -0.142032322819E+00
 -0.117729960317E+00
 -0.915232761235E-01
 -0.603379839289E-01
 -0.200539298969E-01
  0.342600644872E-01
  0.946297678038E-01
 -0.643263453852E+00
 -0.416947179339E+00
 -0.356549353170E+00
 -0.335955715558E+00
 -0.324559449252E+00
 -0.318609626355E+00
 -0.316937125514E+00
 -0.318225466460E+00
 -0.320869907832E+00
 -0.323157987468E+00
 -0.323424699252E+00
 -0.320282944659E+00
 -0.312782190926E+00
 -0.300519073648E+00
 -0.283674230542E+00
 -0.262940630743E+00
 -0.239388409063E+00
 -0.214265926586E+00
 -0.188736107642E+00
 -0.163654738878E+00
 -0.139260076835E+00
 -0.114860299309E+00
 -0.886511758535E-01
 -0.575804919623E-01
 -0.175405849773E-01
  0.364084163797E-01
  0.963268104895E-01
 -0.652450807175E+00
 -0.423959676825E+00
 -0.362422345668E+00
 -0.340977134849E+00
 -0.328841605421E+00
 -0.322223447669E+00
 -0.319933268025E+00
 -0.320640658007E+00
 -0.322732183013E+00
 -0.324490295994E+00
 -0.324248037677E+00
 -0.320619341644E+00
 -0.312656794221E+00
 -0.299961334872E+00
 -0.282716910574E+00
 -0.261620191315E+00
 -0.237743850055E+00
 -0.212338462463E+00
 -0.186570975875E+00
 -0.161302171990E+00
 -0.136778676813E+00
 -0.112321372659E+00
 -0.861392372416E-01
 -0.551911096717E-01
 -0.153717160111E-01
  0.382717284454E-01
  0.978317702891E-01
 -0.660684433948E+00
 -0.430232704101E+00
 -0.367678997658E+00
 -0.345473433513E+00
 -0.332674062766E+00
 -0.325452053441E+00
 -0.322601550471E+00
 -0.322781423859E+00
 -0.324371059217E+00
 -0.325648579063E+00
 -0.324945557990E+00
 -0.320876960801E+00
 -0.312497787788E+00
 -0.299412290534E+00
 -0.281808226589E+00
 -0.260385889592E+00
 -0.236221437890E+00
 -0.210568678109E+00
 -0.184598680407E+00
 -0.159177628178E+00
 -0.134559145192E+00
 -0.110071773183E+00
 -0.839321671844E-01
 -0.531034694842E-01
 -0.134776735921E-01
  0.399106210151E-01
  0.991772620889E-01
 -0.668110552224E+00
 -0.435870544692E+00
 -0.372398901396E+00
 -0.349507219551E+00
 -0.336107340479E+00
 -0.328337515261E+00
 -0.324977628367E+00
 -0.324677763453E+00
 -0.325811317539E+00
 -0.326652734060E+00
 -0.325532231284E+00
 -0.321065539600E+00
 -0.312309882129E+00
 -0.298872706884E+00
 -0.280945378710E+00
 -0.259232029214E+00
 -0.234812553184E+00
 -0.208944810752E+00
 -0.182803675588E+00
 -0.157259404561E+00
 -0.132571288012E+00
 -0.108072023167E+00
 -0.819812063651E-01
 -0.512631025778E-01
 -0.118045431803E-01
  0.413688662266E-01
  0.100384439088E+00
 -0.674842253823E+00
 -0.440957144564E+00
 -0.376648603960E+00
 -0.353132894415E+00
 -0.339186274209E+00
 -0.330917346896E+00
 -0.327093601776E+00
 -0.326356907230E+00
 -0.327075292615E+00
 -0.327520507089E+00
 -0.326021037650E+00
 -0.321193759261E+00
 -0.312097961914E+00
 -0.298343521618E+00
 -0.280125926351E+00
 -0.258153227257E+00
 -0.233509051494E+00
 -0.207454732639E+00
 -0.181169040846E+00
 -0.155525472201E+00
 -0.130786021656E+00
 -0.106285545446E+00
 -0.802443982570E-01
 -0.496253591906E-01
 -0.103096179886E-01
  0.426820472912E-01
  0.101477643258E+00
 -0.680969625146E+00
 -0.445561671535E+00
 -0.380484363213E+00
 -0.356396840977E+00
 -0.341950435384E+00
 -0.333225599908E+00
 -0.328977975903E+00
 -0.327842757150E+00
 -0.328183023209E+00
 -0.328267467814E+00
 -0.326423814726E+00
 -0.321269550849E+00
 -0.311865844764E+00
 -0.297825544608E+00
 -0.279347683511E+00
 -0.257143930081E+00
 -0.232301932402E+00
 -0.206086106055E+00
 -0.179677850983E+00
 -0.153953374437E+00
 -0.129175700450E+00
 -0.104679980038E+00
 -0.786857785304E-01
 -0.481530444393E-01
 -0.895836697600E-02
  0.438828354902E-01
  0.102486751364E+00
 -0.686566825093E+00
 -0.449741402792E+00
 -0.383953708713E+00
 -0.359340129683E+00
 -0.344434704638E+00
 -0.335291906713E+00
 -0.330656447446E+00
 -0.329156781628E+00
 -0.329151689293E+00
 -0.328907462485E+00
 -0.326750714595E+00
 -0.321299667198E+00
 -0.311617223665E+00
 -0.297319024483E+00
 -0.278607777409E+00
 -0.256198404800E+00
 -0.231181955382E+00
 -0.204825863844E+00
 -0.178313226652E+00
 -0.152521733674E+00
 -0.127714798907E+00
 -0.103226483662E+00
 -0.772744606771E-01
 -0.468155923771E-01
 -0.772174838527E-02
  0.450024369353E-01
  0.103510128382E+00
 -0.691694639958E+00
 -0.453545158063E+00
 -0.387097819047E+00
 -0.361997922902E+00
 -0.346669672639E+00
 -0.337142709416E+00
 -0.332151248970E+00
 -0.330317789348E+00
 -0.329996970908E+00
 -0.329452489675E+00
 -0.327010611806E+00
 -0.321289671600E+00
 -0.311354559363E+00
 -0.296823675637E+00
 -0.277902834841E+00
 -0.255310218494E+00
 -0.230139527277E+00
 -0.203660607870E+00
 -0.177058347078E+00
 -0.151210524366E+00
 -0.126379865165E+00
 -0.101899316528E+00
 -0.759842397749E-01
 -0.455880753203E-01
 -0.657754704436E-02
  0.460531891970E-01
  0.104493835045E+00
 -0.696404203374E+00
 -0.457013614053E+00
 -0.389952078040E+00
 -0.364401309086E+00
 -0.348682131550E+00
 -0.338800950365E+00
 -0.333482349137E+00
 -0.331342254831E+00
 -0.330732057391E+00
 -0.329913140333E+00
 -0.327210681010E+00
 -0.321244105726E+00
 -0.311079662474E+00
 -0.296338259429E+00
 -0.277228824644E+00
 -0.254472163488E+00
 -0.229164405008E+00
 -0.202577470519E+00
 -0.175896998447E+00
 -0.150000449816E+00
 -0.125149658649E+00
 -0.100676100641E+00
 -0.747927773295E-01
 -0.444496436187E-01
 -0.550995548427E-02
  0.470371595350E-01
  0.105388139300E+00
 -0.700738619061E+00
 -0.460182641173E+00
 -0.392547390018E+00
 -0.366576861022E+00
 -0.350495587724E+00
 -0.340287214890E+00
 -0.334666850250E+00
 -0.332244710870E+00
 -0.331368467512E+00
 -0.330297986558E+00
 -0.327357268699E+00
 -0.321166259565E+00
 -0.310793013030E+00
 -0.295860823059E+00
 -0.276580956069E+00
 -0.253676668132E+00
 -0.228246438135E+00
 -0.201563376002E+00
 -0.174813592587E+00
 -0.148873921627E+00
 -0.124005070770E+00
 -0.995371129264E-01
 -0.736805807366E-01
 -0.433831882035E-01
 -0.450612224716E-02
  0.479627639153E-01
  0.106246486152E+00
 -0.704735245112E+00
 -0.463082617068E+00
 -0.394910250174E+00
 -0.368548548631E+00
 -0.352130736174E+00
 -0.341619090792E+00
 -0.335719607588E+00
 -0.333037455126E+00
 -0.331916346559E+00
 -0.330614246597E+00
 -0.327454955382E+00
 -0.321058333907E+00
 -0.310494388358E+00
 -0.295388420889E+00
 -0.275953613801E+00
 -0.252915720469E+00
 -0.227375023973E+00
 -0.200605517133E+00
 -0.173792953570E+00
 -0.147814291870E+00
 -0.122928784424E+00
 -0.984646213042E-01
 -0.726307490892E-01
 -0.423735227743E-01
 -0.355350601995E-02
  0.488375972409E-01
  0.106996259321E+00
 -0.708425528709E+00
 -0.465740558602E+00
 -0.397064103990E+00
 -0.370336584950E+00
 -0.353605360186E+00
 -0.342812053155E+00
 -0.336653973789E+00
 -0.333730854491E+00
 -0.332383663100E+00
 -0.330867966609E+00
 -0.327506958564E+00
 -0.320921433232E+00
 -0.310182422632E+00
 -0.294917030252E+00
 -0.275340574256E+00
 -0.252180856076E+00
 -0.226539441715E+00
 -0.199690792253E+00
 -0.172820991115E+00
 -0.146806179813E+00
 -0.121904440508E+00
 -0.974425138578E-01
 -0.716281373487E-01
 -0.414065475781E-01
 -0.263872008723E-02
  0.496802100065E-01
  0.107729137678E+00
 -0.711837866314E+00
 -0.468179280202E+00
 -0.399029263235E+00
 -0.371959128564E+00
 -0.354935119793E+00
 -0.343879314458E+00
 -0.337480951927E+00
 -0.334334121003E+00
 -0.332776836408E+00
 -0.331063299824E+00
 -0.327515719821E+00
 -0.320755297581E+00
 -0.309854532500E+00
 -0.294442116752E+00
 -0.274735095922E+00
 -0.251462980200E+00
 -0.225728591253E+00
 -0.198806901574E+00
 -0.171883887868E+00
 -0.145834832066E+00
 -0.120917063162E+00
 -0.964560120468E-01
 -0.706584978285E-01
 -0.404689211676E-01
 -0.174721710581E-02
  0.505132091222E-01
  0.108508256346E+00
 -0.714996513584E+00
 -0.470418810482E+00
 -0.400823481748E+00
 -0.373431519549E+00
 -0.356133376046E+00
 -0.344832608972E+00
 -0.338209601887E+00
 -0.334854387098E+00
 -0.333101325534E+00
 -0.331203174629E+00
 -0.327481843025E+00
 -0.320558708572E+00
 -0.309507307326E+00
 -0.293957904526E+00
 -0.274129409735E+00
 -0.250752611525E+00
 -0.224931327193E+00
 -0.197941194489E+00
 -0.170967830142E+00
 -0.144886255565E+00
 -0.119952445867E+00
 -0.954911956439E-01
 -0.697084370086E-01
 -0.395476682993E-01
 -0.866974462238E-03
  0.513450806134E-01
  0.109297813963E+00
 -0.717921368990E+00
 -0.472477204277E+00
 -0.402462008697E+00
 -0.374767427066E+00
 -0.357212023752E+00
 -0.345681324589E+00
 -0.338847863565E+00
 -0.335297193785E+00
 -0.333360718328E+00
 -0.331289512951E+00
 -0.327404978614E+00
 -0.320329017397E+00
 -0.309136157974E+00
 -0.293457990739E+00
 -0.273515080479E+00
 -0.250039710440E+00
 -0.224136275915E+00
 -0.197080984918E+00
 -0.170059576770E+00
 -0.143946467437E+00
 -0.118997004118E+00
 -0.945346698961E-01
 -0.687654740255E-01
 -0.386316095701E-01
  0.103545144564E-04
  0.521769977492E-01
  0.110102463314E+00
 -0.720630825120E+00
 -0.474369525963E+00
 -0.403958464304E+00
 -0.375978527856E+00
 -0.358180662349E+00
 -0.346433568330E+00
 -0.339401954472E+00
 -0.335666906182E+00
 -0.333557287456E+00
 -0.331322467418E+00
 -0.327283422501E+00
 -0.320062517864E+00
 -0.308735268067E+00
 -0.292934821990E+00
 -0.272882941828E+00
 -0.249313175713E+00
 -0.223331241545E+00
 -0.196213419200E+00
 -0.169145713321E+00
 -0.143001785437E+00
 -0.118036676787E+00
 -0.935735586080E-01
 -0.678176718643E-01
 -0.377106233180E-01
  0.891112238904E-03
  0.530038897120E-01
  0.110865038255E+00
 -0.723141492496E+00
 -0.476109436569E+00
 -0.405324225981E+00
 -0.377074637115E+00
 -0.359047671478E+00
 -0.347095745839E+00
 -0.339876444233E+00
 -0.335966447653E+00
 -0.333691933878E+00
 -0.331300873095E+00
 -0.327114042640E+00
 -0.319754171837E+00
 -0.308297784977E+00
 -0.292379476147E+00
 -0.272222435838E+00
 -0.248561586802E+00
 -0.222503481747E+00
 -0.195324950987E+00
 -0.168212053347E+00
 -0.142038376627E+00
 -0.117058142787E+00
 -0.925949723982E-01
 -0.668531539676E-01
 -0.367746389049E-01
  0.178200855981E-02
  0.538268418321E-01
  0.111560127805E+00
 -0.725465439049E+00
 -0.477707417228E+00
 -0.406569562363E+00
 -0.378064090597E+00
 -0.359819705493E+00
 -0.347673167072E+00
 -0.340274660843E+00
 -0.336197018474E+00
 -0.333764060741E+00
 -0.331222271445E+00
 -0.326892307622E+00
 -0.319397448340E+00
 -0.307815357745E+00
 -0.291781958707E+00
 -0.271522062682E+00
 -0.247772080956E+00
 -0.221639344589E+00
 -0.194401255555E+00
 -0.167244230653E+00
 -0.141041758320E+00
 -0.116047726423E+00
 -0.915857104647E-01
 -0.658599519957E-01
 -0.358134363683E-01
  0.269339456831E-02
  0.546659278000E-01
  0.112292690106E+00
 -0.727613936586E+00
 -0.479174223673E+00
 -0.407702399497E+00
 -0.378954066821E+00
 -0.360502227654E+00
 -0.348169038842E+00
 -0.340598455254E+00
 -0.336358707824E+00
 -0.333771486741E+00
 -0.331082533756E+00
 -0.326612051585E+00
 -0.318984211037E+00
 -0.307277857115E+00
 -0.291130604013E+00
 -0.270768870305E+00
 -0.246930386792E+00
 -0.220723845866E+00
 -0.193427102289E+00
 -0.166226812941E+00
 -0.139996776277E+00
 -0.114990888037E+00
 -0.905322357371E-01
 -0.648256362203E-01
 -0.348148540298E-01
  0.363846438268E-02
  0.555390742484E-01
  0.113084852473E+00
 -0.729597845801E+00
 -0.480517797542E+00
 -0.408729887607E+00
 -0.379749936755E+00
 -0.361099158942E+00
 -0.348585999787E+00
 -0.340848025645E+00
 -0.336449738123E+00
 -0.333710550615E+00
 -0.330875664905E+00
 -0.326265220160E+00
 -0.318504295933E+00
 -0.306673333670E+00
 -0.290411682330E+00
 -0.269947761466E+00
 -0.246020588140E+00
 -0.219740211759E+00
 -0.192385479239E+00
 -0.165143046767E+00
 -0.138887265576E+00
 -0.113872065408E+00
 -0.894199381238E-01
 -0.637366022085E-01
 -0.337663756375E-01
  0.462967733553E-02
  0.564567817402E-01
  0.113920944289E+00
 -0.731424001853E+00
 -0.481745416289E+00
 -0.409657783428E+00
 -0.380456000411E+00
 -0.361613251727E+00
 -0.348924773224E+00
 -0.341022217829E+00
 -0.336466686920E+00
 -0.333575689891E+00
 -0.330593694642E+00
 -0.325841511176E+00
 -0.317945257638E+00
 -0.305987343439E+00
 -0.289609311952E+00
 -0.269041370324E+00
 -0.245024412661E+00
 -0.218669986629E+00
 -0.191257705479E+00
 -0.163974863136E+00
 -0.137695774732E+00
 -0.112674518472E+00
 -0.882335261971E-01
 -0.625788345364E-01
 -0.326552247768E-01
  0.567684232130E-02
  0.574244892983E-01
  0.114818813528E+00
 -0.733098316490E+00
 -0.482862614985E+00
 -0.410490839663E+00
 -0.381075393875E+00
 -0.362045724887E+00
 -0.349184660128E+00
 -0.341118040821E+00
 -0.336404279869E+00
 -0.333358922311E+00
 -0.330226144231E+00
 -0.325327907224E+00
 -0.317291768131E+00
 -0.305202531364E+00
 -0.288704231446E+00
 -0.268029529093E+00
 -0.243921108700E+00
 -0.217491839331E+00
 -0.190022929468E+00
 -0.162702088714E+00
 -0.136402929299E+00
 -0.111380124468E+00
 -0.869565032492E-01
 -0.613374296661E-01
 -0.314688107506E-01
  0.678830469784E-02
  0.584384069485E-01
  0.115706556963E+00
 -0.734626124540E+00
 -0.483873957133E+00
 -0.411232300073E+00
 -0.381609992308E+00
 -0.362396421295E+00
 -0.349363209797E+00
 -0.341130800377E+00
 -0.336254727711E+00
 -0.333049606440E+00
 -0.329759415319E+00
 -0.324707939095E+00
 -0.316524922390E+00
 -0.304297810892E+00
 -0.287673734261E+00
 -0.266888204289E+00
 -0.242686053096E+00
 -0.216181609627E+00
 -0.188657765501E+00
 -0.161301602837E+00
 -0.134987213834E+00
 -0.109969497049E+00
 -0.855706633522E-01
 -0.599966228946E-01
 -0.301936168919E-01
  0.797468760206E-02
  0.595022933967E-01
  0.116560395786E+00
 -0.736009739035E+00
 -0.484782823038E+00
 -0.411884682545E+00
 -0.382060242447E+00
 -0.362663902947E+00
 -0.349456240483E+00
 -0.341053132732E+00
 -0.336007554703E+00
 -0.332633587840E+00
 -0.329176097843E+00
 -0.323960939588E+00
 -0.315621022706E+00
 -0.303247198712E+00
 -0.286490383393E+00
 -0.265589069763E+00
 -0.241290908117E+00
 -0.214711730278E+00
 -0.187134821880E+00
 -0.159748251906E+00
 -0.133425297313E+00
 -0.108420812364E+00
 -0.840567922828E-01
 -0.585390946233E-01
 -0.288142818795E-01
  0.925262670180E-02
  0.606495010541E-01
  0.117525808368E+00
 -0.737251422450E+00
 -0.485591937235E+00
 -0.412449286174E+00
 -0.382425843026E+00
 -0.362844623866E+00
 -0.349457294125E+00
 -0.340874837134E+00
 -0.335648471694E+00
 -0.332092363258E+00
 -0.328453430551E+00
 -0.323060499437E+00
 -0.314550443439E+00
 -0.302018833109E+00
 -0.285120773248E+00
 -0.264098464424E+00
 -0.239702219329E+00
 -0.213049580412E+00
 -0.185423786586E+00
 -0.158013186812E+00
 -0.131691015548E+00
 -0.106710267116E+00
 -0.823936902373E-01
 -0.569459848630E-01
 -0.273131971853E-01
  0.106404478993E-01
  0.619098641332E-01
  0.118682425892E+00
 -0.738352613351E+00
 -0.486303917968E+00
 -0.412926918143E+00
 -0.382704603981E+00
 -0.362933489878E+00
 -0.349356901747E+00
 -0.340581570586E+00
 -0.335158154733E+00
 -0.331401646509E+00
 -0.327561991868E+00
 -0.321972647154E+00
 -0.313275917327E+00
 -0.300573086123E+00
 -0.283524406202E+00
 -0.262375950775E+00
 -0.237880718099E+00
 -0.211157421718E+00
 -0.183489685415E+00
 -0.156064585089E+00
 -0.129754739175E+00
 -0.104812123205E+00
 -0.805582046476E-01
 -0.551970965563E-01
 -0.256731986069E-01
  0.121515404250E-01
  0.632789945512E-01
  0.119915938099E+00
 -0.739309696166E+00
 -0.486919030361E+00
 -0.413317035662E+00