# vtk DataFile Version 3.0
MachLine results file. Generated by MachLine, USU AeroLab (c) 2022.
ASCII
DATASET POLYDATA
POINTS                 144 float
  0.568964789312E+00  0.000000000000E+00  0.772108502507E-16
  0.141397069721E+01  0.000000000000E+00 -0.282586358395E-01
  0.141397069721E+01  0.000000000000E+00  0.282586358395E-01
  0.244657817356E+01  0.140092929645E+01 -0.432768775862E-15
  0.329403441705E+01  0.168885481689E+01  0.471418788504E-01
  0.329403441705E+01  0.168885481689E+01 -0.471418788504E-01
  0.432287019764E+01  0.000000000000E+00 -0.144569128797E+00
  0.432287019764E+01  0.000000000000E+00  0.144569128797E+00
  0.628219146941E+01  0.465847186403E+01  0.480013096762E-15
  0.621373343781E+01  0.186405756854E+01 -0.634533532074E-01
  0.621373343781E+01  0.186405756854E+01  0.634533532074E-01
  0.695227544007E+01  0.512377110591E+01  0.382397111204E+00
  0.695227544007E+01  0.512377110591E+01 -0.382397111204E+00
  0.936371284868E+01  0.000000000000E+00 -0.192541187517E+00
  0.936371284868E+01  0.000000000000E+00  0.192541187517E+00
  0.978150062230E+01  0.538945111301E+01  0.299938956065E+00
  0.978150062230E+01  0.538945111301E+01 -0.299938956065E+00
  0.112617495294E+02  0.198085234413E+01 -0.106769808171E-01
  0.112617495294E+02  0.198085234413E+01  0.106769808171E-01
  0.125181926615E+02  0.102458111306E+02  0.537419370339E-15
  0.130001838556E+02  0.108992055848E+02  0.791434105449E+00
  0.130001838556E+02  0.108992055848E+02 -0.791434105449E+00
  0.144695064082E+02  0.000000000000E+00  0.227185821049E+00
  0.144695064082E+02  0.000000000000E+00 -0.227185821049E+00
  0.147930147489E+02  0.554275408268E+01  0.249663689096E+00
  0.147930147489E+02  0.554275408268E+01 -0.249663689096E+00
  0.157191928163E+02  0.112751085443E+02  0.746157898514E+00
  0.157191928163E+02  0.112751085443E+02 -0.746157898514E+00
  0.163886790030E+02  0.199904156994E+01  0.254080267006E+00
  0.163886790030E+02  0.199904156994E+01 -0.254080267006E+00
  0.175988183368E+02  0.000000000000E+00  0.336252333678E+00
  0.175988183368E+02  0.000000000000E+00 -0.336252333678E+00
  0.186109542155E+02  0.324917544294E-02 -0.113117838273E+00
  0.195112196311E+02  0.198680854485E+01  0.443190372781E+00
  0.195112196311E+02  0.198680854485E+01 -0.443190372781E+00
  0.210855904619E+02  0.184267995916E+02  0.157201256223E-15
  0.199047960450E+02  0.557609726668E+01  0.551090984975E+00
  0.199047960450E+02  0.557609726668E+01 -0.551090984975E+00
  0.206811680642E+02  0.114779590194E+02  0.649502125648E+00
  0.206811680642E+02  0.114779590194E+02 -0.649502125648E+00
  0.214756265934E+02  0.191721510566E+02  0.109541973521E+01
  0.214756265934E+02  0.191721510566E+02 -0.109541973521E+01
  0.204819162104E+02  0.236560542090E+01 -0.472107984864E-01
  0.230197423395E+02  0.557146245570E+01  0.797888358617E+00
  0.230197423395E+02  0.557146245570E+01 -0.797888358617E+00
  0.241127987830E+02  0.196298985676E+02  0.107899254435E+01
  0.241127987830E+02  0.196298985676E+02 -0.107899254435E+01
  0.237411115998E+02  0.619959016264E+01 -0.779195012371E-01
  0.257731798207E+02  0.115310813608E+02  0.973192020964E+00
  0.257731798207E+02  0.115310813608E+02 -0.973192020964E+00
  0.288838014997E+02  0.115307788061E+02  0.124173752004E+01
  0.288838014997E+02  0.115307788061E+02 -0.124173752004E+01
  0.290330410828E+02  0.198744973621E+02  0.102912946115E+01
  0.290330410828E+02  0.198744973621E+02 -0.102912946115E+01
  0.304991941974E+02  0.279884157125E+02 -0.940184487917E-15
  0.309633712662E+02  0.286596319067E+02  0.109580727182E+01
  0.309633712662E+02  0.286596319067E+02 -0.109580727182E+01
  0.293295905170E+02  0.124344903127E+02 -0.112455847521E+00
  0.336004622586E+02  0.291174681193E+02  0.107967846997E+01
  0.336004622586E+02  0.291174681193E+02 -0.107967846997E+01
  0.341140326885E+02  0.199386532251E+02  0.129847228634E+01
  0.341140326885E+02  0.199386532251E+02 -0.129847228634E+01
  0.372224547167E+02  0.199405598789E+02  0.157325761392E+01
  0.372224547167E+02  0.199405598789E+02 -0.157325761392E+01
  0.385907776285E+02  0.366452147338E+02  0.103528484894E-14
  0.385148267914E+02  0.293679600681E+02  0.112856242832E+01
  0.385148267914E+02  0.293679600681E+02 -0.112856242832E+01
  0.392365997558E+02  0.371347877953E+02  0.792665761665E+00
  0.392365997558E+02  0.371347877953E+02 -0.792665761665E+00
  0.375112117682E+02  0.210013080220E+02 -0.133037299014E+00
  0.419553443416E+02  0.375109838354E+02  0.748191850264E+00
  0.419553443416E+02  0.375109838354E+02 -0.748191850264E+00
  0.441854237464E+02  0.428739102780E+02 -0.542804227168E-15
  0.436014081202E+02  0.294265433216E+02  0.130120129723E+01
  0.436014081202E+02  0.294265433216E+02 -0.130120129723E+01
  0.450123389239E+02  0.431823941216E+02  0.384529470252E+00
  0.450123389239E+02  0.431823941216E+02 -0.384529470252E+00
  0.467100137338E+02  0.294282740068E+02  0.157422763126E+01
  0.467100137338E+02  0.294282740068E+02 -0.157422763126E+01
  0.469047853318E+02  0.377264106753E+02  0.861135520608E+00
  0.469047853318E+02  0.377264106753E+02 -0.861135520608E+00
  0.474936134205E+02  0.466588827835E+02  0.164511549010E-16
  0.478410674218E+02  0.434486097166E+02  0.302958394749E+00
  0.478410674218E+02  0.434486097166E+02 -0.302958394749E+00
  0.484474242579E+02  0.468404670455E+02  0.497793093522E-01
  0.484474242579E+02  0.468404670455E+02 -0.497793093522E-01
  0.470726430775E+02  0.304151533447E+02 -0.125155912156E+00
  0.492274077682E+02  0.487244831296E+02  0.128190791274E-16
  0.502757652090E+02  0.487836297762E+02 -0.212070844252E+00
  0.502757652090E+02  0.487836297762E+02  0.212070844252E+00
  0.506936738868E+02  0.491511809382E+02 -0.223650248268E+00
  0.506936738868E+02  0.491511809382E+02  0.223650248268E+00
  0.508600378638E+02  0.493379935477E+02 -0.590201444124E-15
  0.513664602192E+02  0.470163792352E+02 -0.605062134957E-01
  0.513664602192E+02  0.470163792352E+02  0.605062134957E-01
  0.520081507085E+02  0.377682250584E+02  0.984388353768E+00
  0.520081507085E+02  0.377682250584E+02 -0.984388353768E+00
  0.528422808998E+02  0.436122752770E+02  0.422705047164E+00
  0.528422808998E+02  0.436122752770E+02 -0.422705047164E+00
  0.532712220733E+02  0.488132571183E+02 -0.329603464639E+00
  0.532712220733E+02  0.488132571183E+02  0.329603464639E+00
  0.540275370717E+02  0.492912689691E+02 -0.308776578376E+00
  0.540275370717E+02  0.492912689691E+02  0.308776578376E+00
  0.543376717578E+02  0.494882573609E+02 -0.875913582033E-16
  0.551195355106E+02  0.377671841645E+02  0.124556471509E+01
  0.551195355106E+02  0.377671841645E+02 -0.124556471509E+01
  0.564100823215E+02  0.471376438637E+02  0.623138890792E-01
  0.564100823215E+02  0.471376438637E+02 -0.623138890792E-01
  0.557285115433E+02  0.385077190071E+02 -0.950647977907E-01
  0.579612589093E+02  0.436384846268E+02  0.580829229557E+00
  0.579612589093E+02  0.436384846268E+02 -0.580829229557E+00
  0.583454950417E+02  0.488834287873E+02 -0.150061724679E+00
  0.583454950417E+02  0.488834287873E+02  0.150061724679E+00
  0.590396185137E+02  0.491949726267E+02 -0.150833784210E+00
  0.590396185137E+02  0.491949726267E+02  0.150833784210E+00
  0.593184771628E+02  0.491995735824E+02 -0.390744613640E-15
  0.610781195262E+02  0.436319755256E+02  0.808858270102E+00
  0.610781195262E+02  0.436319755256E+02 -0.808858270102E+00
  0.615374339572E+02  0.471554871877E+02  0.292578745605E+00
  0.615374339572E+02  0.471554871877E+02 -0.292578745605E+00
  0.619555315599E+02  0.441040727898E+02 -0.613740464713E-01
  0.634783901535E+02  0.489394759703E+02  0.124654610420E+00
  0.634783901535E+02  0.489394759703E+02 -0.124654610420E+00
  0.638209122952E+02  0.489906339722E+02  0.586327274410E-01
  0.638209122952E+02  0.489906339722E+02 -0.586327274410E-01
  0.639672883530E+02  0.490235527920E+02  0.277676140102E-15
  0.646609390522E+02  0.471423373736E+02  0.471455588607E+00
  0.646609390522E+02  0.471423373736E+02 -0.471455588607E+00
  0.657363005924E+02  0.474164874337E+02 -0.363537316218E-01
  0.666076930394E+02  0.489615615107E+02  0.257264682985E+00
  0.666076930394E+02  0.489615615107E+02 -0.257264682985E+00
  0.667197153211E+02  0.489145683604E+02  0.113016213698E+00
  0.667197153211E+02  0.489145683604E+02 -0.113016213698E+00
  0.667696724652E+02  0.489334458426E+02  0.698201196615E-17
  0.677018201472E+02  0.489355666281E+02 -0.148411887243E-14
  0.186109542155E+02  0.324917544294E-02  0.113117838273E+00
  0.204819162104E+02  0.236560542090E+01  0.472107984864E-01
  0.237411115998E+02  0.619959016264E+01  0.779195012371E-01
  0.293295905170E+02  0.124344903127E+02  0.112455847521E+00
  0.375112117682E+02  0.210013080220E+02  0.133037299014E+00
  0.470726430775E+02  0.304151533447E+02  0.125155912156E+00
  0.557285115433E+02  0.385077190071E+02  0.950647977907E-01
  0.619555315599E+02  0.441040727898E+02  0.613740464713E-01
  0.657363005924E+02  0.474164874337E+02  0.363537316218E-01
VERTICES                 144                 288
1                   0
1                   1
1                   2
1                   3
1                   4
1                   5
1                   6
1                   7
1                   8
1                   9
1                  10
1                  11
1                  12
1                  13
1                  14
1                  15
1                  16
1                  17
1                  18
1                  19
1                  20
1                  21
1                  22
1                  23
1                  24
1                  25
1                  26
1                  27
1                  28
1                  29
1                  30
1                  31
1                  32
1                  33
1                  34
1                  35
1                  36
1                  37
1                  38
1                  39
1                  40
1                  41
1                  42
1                  43
1                  44
1                  45
1                  46
1                  47
1                  48
1                  49
1                  50
1                  51
1                  52
1                  53
1                  54
1                  55
1                  56
1                  57
1                  58
1                  59
1                  60
1                  61
1                  62
1                  63
1                  64
1                  65
1                  66
1                  67
1                  68
1                  69
1                  70
1                  71
1                  72
1                  73
1                  74
1                  75
1                  76
1                  77
1                  78
1                  79
1                  80
1                  81
1                  82
1                  83
1                  84
1                  85
1                  86
1                  87
1                  88
1                  89
1                  90
1                  91
1                  92
1                  93
1                  94
1                  95
1                  96
1                  97
1                  98
1                  99
1                 100
1                 101
1                 102
1                 103
1                 104
1                 105
1                 106
1                 107
1                 108
1                 109
1                 110
1                 111
1                 112
1                 113
1                 114
1                 115
1                 116
1                 117
1                 118
1                 119
1                 120
1                 121
1                 122
1                 123
1                 124
1                 125
1                 126
1                 127
1                 128
1                 129
1                 130
1                 131
1                 132
1                 133
1                 134
1                 135
1                 136
1                 137
1                 138
1                 139
1                 140
1                 141
1                 142
1                 143
POINT_DATA                 144
SCALARS BC_type int 1
LOOKUP_TABLE default
           1
           1
           1
           1
           1
           1
           1
           1
           1
           1
           1
           1
           1
           1
           1
           1
           1
           1
           1
           1
           1
           1
           1
           1
           1
           1
           1
           1
           1
           1
           1
           1
           1
           1
           1
           1
           1
           1
           1
           1
           1
           1
           1
           1
           1
           1
           1
           1
           1
           1
           1
           1
           1
           1
           1
           1
           1
           1
           1
           1
           1
           1
           1
           1
           1
           1
           1
           1
           1
           1
           1
           1
           1
           1
           1
           1
           1
           1
           1
           1
           1
           1
           1
           1
           1
           1
           1
           1
           1
           1
           1
           1
           1
           1
           1
           1
           1
           1
           1
           1
           1
           1
           1
           1
           1
           1
           1
           1
           1
           1
           1
           1
           1
           1
           1
           1
           1
           1
           1
           1
           1
           1
           1
           1
           1
           1
           1
           1
           1
           1
           1
           1
           1
           1
           1
           1
           1
           1
           1
           1
           1
           1
           1
           1
SCALARS residual float 1
LOOKUP_TABLE default
  0.676535827360E-09
 -0.401080640033E-06
  0.399474670898E-06
 -0.128157695567E-08
  0.830805946261E-08
 -0.198094451953E-08
 -0.177923232814E-07
  0.172724566871E-07
 -0.226212569787E-07
 -0.431908653287E-08
  0.425458546172E-08
  0.144184285622E-07
  0.461353300008E-08
 -0.120390475922E-07
  0.120688593008E-07
  0.199672226531E-07
 -0.220853167976E-07
 -0.469716263899E-05
  0.469733629289E-05
  0.175355058252E-07
 -0.530835547741E-08
 -0.890300400069E-08
  0.935291055715E-08
 -0.936816452191E-08
  0.214127178627E-07
 -0.213444808009E-07
  0.127954818963E-08
 -0.278754119787E-08
  0.101120893881E-07
 -0.101475164938E-07
 -0.704846014887E-09
  0.704639957494E-09
 -0.297052382692E-09
  0.220569484899E-08
  0.359150931217E-09
 -0.162143465321E-09
  0.220254703365E-09
  0.295162772002E-08
 -0.297042581504E-08
 -0.125393473382E-09
  0.402198274685E-09
  0.366109946248E-07
 -0.139333727889E-08
  0.640107827854E-10
 -0.132604538461E-09
  0.407614281217E-08
  0.357631035897E-09
 -0.236810238086E-09
  0.103667247009E-08
 -0.958839674325E-10
  0.158478993817E-09
  0.175290615356E-09
  0.996763782624E-10
  0.144547818159E-09
  0.536947991625E-08
 -0.245233833240E-10
 -0.532306976275E-10
  0.362426033629E-09
 -0.143197892433E-08
  0.236043407043E-09
  0.242102449199E-09
  0.126872068407E-09
 -0.198823180142E-10
  0.258200960612E-09
  0.234001928945E-09
  0.507474445799E-08
  0.956728307688E-10
  0.232852903626E-09
 -0.163889213312E-08
 -0.185775839157E-09
  0.127297650199E-08
  0.163035374090E-08
  0.510254116737E-09
 -0.798038191085E-09
  0.117560183810E-09
 -0.143330847191E-09
  0.368489028180E-08
 -0.238035291478E-08
 -0.172306852120E-08
 -0.332465593944E-08
 -0.572406083643E-08
 -0.221487816976E-08
 -0.438801461833E-08
  0.147234519576E-07
  0.133843125749E-07
 -0.112514489947E-07
 -0.115367600473E-07
  0.763258051761E-07
 -0.476167946878E-07
  0.158540031103E-08
 -0.117686510537E-08
 -0.151982620933E-08
  0.147826020869E-08
 -0.133947433416E-06
 -0.124869372863E-06
  0.284923151989E-06
  0.281900424129E-06
 -0.271683894534E-06
 -0.462367710785E-08
  0.265169242120E-08
  0.792655580062E-08
 -0.258756560623E-08
  0.111429246386E-07
 -0.278460809966E-09
  0.626713025920E-08
  0.418530705204E-06
  0.262727647693E-06
 -0.342296362038E-05
 -0.330930630749E-05
  0.151891845213E-07
 -0.279982728668E-07
 -0.106275503398E-07
 -0.210207202755E-07
 -0.162682091354E-06
 -0.145151517106E-05
 -0.124623639952E-05
  0.330350500333E-05
  0.310761372785E-05
 -0.397595176971E-05
  0.266196532595E-07
  0.757025823694E-07
 -0.106326110971E-06
 -0.111572307393E-06
 -0.103535586549E-06
 -0.152116865382E-06
  0.260551439535E-06
 -0.496998420196E-08
  0.306569547526E-09
 -0.366166824084E-07
 -0.540657063564E-08
 -0.519869836069E-08
  0.218166884558E-08
 -0.114622161762E-07
  0.160721015108E-06
 -0.126669359790E-05
 -0.217565421234E-08
  0.129450639097E-08
 -0.140226585899E-08
 -0.119455445535E-09
  0.375616038273E-09
  0.915479048125E-08
  0.627038220802E-05
  0.127078658785E-05
 -0.409750905428E-08
