# vtk DataFile Version 3.0
MachLine results file. Generated by MachLine, USU AeroLab (c) 2022.
ASCII
DATASET POLYDATA
POINTS                3696 float
  0.000000000000E+00  0.000000000000E+00  0.000000000000E+00
  0.989525789069E+04  0.000000000000E+00  0.144356201001E+04
  0.147665724158E+00  0.000000000000E+00 -0.234920635819E+00
  0.989529452490E+04  0.000000000000E+00  0.144331089163E+04
  0.147665724158E+00  0.000000000000E+00  0.234920635819E+00
  0.989522741081E+04  0.000000000000E+00  0.144377094201E+04
  0.339639574289E+00  0.339639574289E+00  0.000000000000E+00
  0.989526496834E+04  0.339639574289E+00  0.144351349447E+04
  0.473465979099E+00  0.000000000000E+00 -0.436293870211E+00
  0.989533007915E+04  0.000000000000E+00  0.144306717608E+04
  0.473465979099E+00  0.000000000000E+00  0.436293870211E+00
  0.989520543507E+04  0.000000000000E+00  0.144392158022E+04
  0.487305283546E+00  0.339639574289E+00 -0.234920650721E+00
  0.989530160255E+04  0.339639574289E+00  0.144326237608E+04
  0.487305283546E+00  0.339639574289E+00  0.234920650721E+00
  0.989523448846E+04  0.339639574289E+00  0.144372242649E+04
  0.735364913940E+00  0.735364913940E+00  0.000000000000E+00
  0.989527321475E+04  0.735364913940E+00  0.144345696741E+04
  0.813105583191E+00  0.339639574289E+00 -0.436293929815E+00
  0.989533715681E+04  0.339639574289E+00  0.144301866048E+04
  0.813105583191E+00  0.339639574289E+00  0.436293929815E+00
  0.989521251271E+04  0.339639574289E+00  0.144387306473E+04
  0.883030653000E+00  0.735364913940E+00 -0.234920680523E+00
  0.989530984896E+04  0.735364913940E+00  0.144320584898E+04
  0.883030653000E+00  0.735364913940E+00  0.234920680523E+00
  0.989524273486E+04  0.735364913940E+00  0.144366589945E+04
  0.944064557552E+00  0.000000000000E+00 -0.604293465614E+00
  0.989536388359E+04  0.000000000000E+00  0.144283545511E+04
  0.944064557552E+00  0.000000000000E+00  0.604293465614E+00
  0.989519124397E+04  0.000000000000E+00  0.144401885665E+04
  0.119528055191E+01  0.119528055191E+01  0.000000000000E+00
  0.989528279880E+04  0.119528055191E+01  0.144339127113E+04
  0.120883107185E+01  0.735364913940E+00 -0.436293989420E+00
  0.989534540323E+04  0.735364913940E+00  0.144296213334E+04
  0.120883107185E+01  0.735364913940E+00  0.436293989420E+00
  0.989522075911E+04  0.735364913940E+00  0.144381653771E+04
  0.128370416164E+01  0.339639574289E+00 -0.604293525219E+00
  0.989537096125E+04  0.339639574289E+00  0.144278693951E+04
  0.128370416164E+01  0.339639574289E+00  0.604293525219E+00
  0.989519832162E+04  0.339639574289E+00  0.144397034116E+04
  0.134294629097E+01  0.119528055191E+01 -0.234920725226E+00
  0.989531943302E+04  0.119528055191E+01  0.144314015266E+04
  0.134294629097E+01  0.119528055191E+01  0.234920725226E+00
  0.989525231890E+04  0.119528055191E+01  0.144360020322E+04
  0.157641971111E+01  0.000000000000E+00 -0.760520398617E+00
  0.989539937716E+04  0.000000000000E+00  0.144259215549E+04
  0.157641971111E+01  0.000000000000E+00  0.760520398617E+00
  0.989518210533E+04  0.000000000000E+00  0.144408149976E+04
  0.166874670982E+01  0.119528055191E+01 -0.436294049025E+00
  0.989535498729E+04  0.119528055191E+01  0.144289643701E+04
  0.166874670982E+01  0.119528055191E+01  0.436294049025E+00
  0.989523034316E+04  0.119528055191E+01  0.144375084149E+04
  0.167942965031E+01  0.735364913940E+00 -0.604293584824E+00
  0.989537920767E+04  0.735364913940E+00  0.144273041237E+04
  0.167942965031E+01  0.735364913940E+00  0.604293584824E+00
  0.989520656802E+04  0.735364913940E+00  0.144391381414E+04
  0.172824025154E+01  0.172824025154E+01  0.000000000000E+00
  0.989529390499E+04  0.172824025154E+01  0.144331514094E+04
  0.187590610981E+01  0.172824025154E+01 -0.234920769930E+00
  0.989533053922E+04  0.172824025154E+01  0.144306402241E+04
  0.187590610981E+01  0.172824025154E+01  0.234920769930E+00
  0.989526342509E+04  0.172824025154E+01  0.144352407306E+04
  0.191605937481E+01  0.339639574289E+00 -0.760520458221E+00
  0.989540645482E+04  0.339639574289E+00  0.144254363988E+04
  0.191605937481E+01  0.339639574289E+00  0.760520458221E+00
  0.989518918298E+04  0.339639574289E+00  0.144403298426E+04
  0.213934540749E+01  0.119528055191E+01 -0.604293704033E+00
  0.989538879174E+04  0.119528055191E+01  0.144266471596E+04
  0.213934540749E+01  0.119528055191E+01  0.604293704033E+00
  0.989521615205E+04  0.119528055191E+01  0.144384811796E+04
  0.220170640945E+01  0.172824025154E+01 -0.436294138432E+00
  0.989536609350E+04  0.172824025154E+01  0.144282030672E+04
  0.220170640945E+01  0.172824025154E+01  0.436294138432E+00
  0.989524144934E+04  0.172824025154E+01  0.144367471139E+04
  0.231178498268E+01  0.735364913940E+00 -0.760520577431E+00
  0.989541470125E+04  0.735364913940E+00  0.144248711266E+04
  0.231178498268E+01  0.735364913940E+00  0.760520577431E+00
  0.989519742937E+04  0.735364913940E+00  0.144397645728E+04
  0.234375929832E+01  0.234375929832E+01  0.000000000000E+00
  0.989530673162E+04  0.234375929832E+01  0.144322721763E+04
  0.239635515213E+01  0.000000000000E+00 -0.902061045170E+00
  0.989543668182E+04  0.000000000000E+00  0.144233644136E+04
  0.239635515213E+01  0.000000000000E+00  0.902061045170E+00
  0.989517897347E+04  0.000000000000E+00  0.144410296787E+04
  0.249142503738E+01  0.234375929832E+01 -0.234920814633E+00
  0.989534336585E+04  0.234375929832E+01  0.144297609907E+04
  0.249142503738E+01  0.234375929832E+01  0.234920814633E+00
  0.989527625171E+04  0.234375929832E+01  0.144343614980E+04
  0.267230534554E+01  0.172824025154E+01 -0.604293823242E+00
  0.989539989795E+04  0.172824025154E+01  0.144258858562E+04
  0.267230534554E+01  0.172824025154E+01  0.604293823242E+00
  0.989522725824E+04  0.172824025154E+01  0.144377198785E+04
  0.273599505424E+01  0.339639574289E+00 -0.902061164379E+00
  0.989544375950E+04  0.339639574289E+00  0.144228792566E+04
  0.273599505424E+01  0.339639574289E+00  0.902061164379E+00
  0.989518605111E+04  0.339639574289E+00  0.144405445240E+04
  0.277170085907E+01  0.119528055191E+01 -0.760520696640E+00
  0.989542428533E+04  0.119528055191E+01  0.144242141624E+04
  0.277170085907E+01  0.119528055191E+01  0.760520696640E+00
  0.989520701341E+04  0.119528055191E+01  0.144391076109E+04
  0.281722569466E+01  0.234375929832E+01 -0.436294227839E+00
  0.989537892014E+04  0.234375929832E+01  0.144273238329E+04
  0.281722569466E+01  0.234375929832E+01  0.436294227839E+00
  0.989525427595E+04  0.234375929832E+01  0.144358678812E+04
  0.305185556412E+01  0.305185556412E+01  0.000000000000E+00
  0.989532148743E+04  0.305185556412E+01  0.144312607019E+04
  0.313172078133E+01  0.735364913940E+00 -0.902061283588E+00
  0.989545200593E+04  0.735364913940E+00  0.144223139842E+04
  0.313172078133E+01  0.735364913940E+00  0.902061283588E+00
  0.989519429751E+04  0.735364913940E+00  0.144399792540E+04
  0.319952154160E+01  0.305185556412E+01 -0.234920859337E+00
  0.989535812168E+04  0.305185556412E+01  0.144287495156E+04
  0.319952154160E+01  0.305185556412E+01  0.234920859337E+00
  0.989529100752E+04  0.305185556412E+01  0.144333500238E+04
  0.328782463074E+01  0.234375929832E+01 -0.604293942451E+00
  0.989541272460E+04  0.234375929832E+01  0.144250066215E+04
  0.328782463074E+01  0.234375929832E+01  0.604293942451E+00
  0.989524008485E+04  0.234375929832E+01  0.144368406462E+04
  0.330466079712E+01  0.172824025154E+01 -0.760520815849E+00
  0.989543539154E+04  0.172824025154E+01  0.144234528589E+04
  0.330466079712E+01  0.172824025154E+01  0.760520815849E+00
  0.989521811959E+04  0.172824025154E+01  0.144383463098E+04
  0.342464399338E+01  0.000000000000E+00 -0.102348911762E+01
  0.989547545533E+04  0.000000000000E+00  0.144207065861E+04
  0.342464399338E+01  0.000000000000E+00  0.102348911762E+01
  0.989518305639E+04  0.000000000000E+00  0.144407498046E+04
  0.352532196045E+01  0.305185556412E+01 -0.436294317245E+00
  0.989539367597E+04  0.305185556412E+01  0.144263123577E+04
  0.352532196045E+01  0.305185556412E+01  0.436294317245E+00
  0.989526903176E+04  0.305185556412E+01  0.144348564078E+04
  0.359163665771E+01  0.119528055191E+01 -0.902061402798E+00
  0.989546159000E+04  0.119528055191E+01  0.144216570200E+04
  0.359163665771E+01  0.119528055191E+01  0.902061402798E+00
  0.989520388155E+04  0.119528055191E+01  0.144393222921E+04
  0.376428389549E+01  0.339639574289E+00 -0.102348923683E+01
  0.989548253301E+04  0.339639574289E+00  0.144202214291E+04
  0.376428389549E+01  0.339639574289E+00  0.102348923683E+01
  0.989519013404E+04  0.339639574289E+00  0.144402646499E+04
  0.386280250549E+01  0.386280250549E+01  0.000000000000E+00
  0.989533838652E+04  0.386280250549E+01  0.144301023114E+04
  0.392018008232E+01  0.234375929832E+01 -0.760520994663E+00
  0.989544821820E+04  0.234375929832E+01  0.144225736237E+04
  0.392018008232E+01  0.234375929832E+01  0.760520994663E+00
  0.989523094620E+04  0.234375929832E+01  0.144374670780E+04
  0.399592113495E+01  0.305185556412E+01 -0.604294061661E+00
  0.989542748043E+04  0.305185556412E+01  0.144239951457E+04
  0.399592113495E+01  0.305185556412E+01  0.604294061661E+00
  0.989525484065E+04  0.305185556412E+01  0.144358291727E+04
  0.401046848297E+01  0.386280250549E+01 -0.234920918941E+00
  0.989537502078E+04  0.386280250549E+01  0.144275911244E+04
  0.401046848297E+01  0.386280250549E+01  0.234920918941E+00
  0.989530790660E+04  0.386280250549E+01  0.144321916338E+04
  0.412459707260E+01  0.172824025154E+01 -0.902061522007E+00
  0.989547269623E+04  0.172824025154E+01  0.144208957159E+04
  0.412459707260E+01  0.172824025154E+01  0.902061522007E+00
  0.989521498774E+04  0.172824025154E+01  0.144385609903E+04
  0.416000986099E+01  0.735364913940E+00 -0.102348935604E+01
  0.989549077944E+04  0.735364913940E+00  0.144196561564E+04
  0.416000986099E+01  0.735364913940E+00  0.102348935604E+01
  0.989519838044E+04  0.735364913940E+00  0.144396993795E+04
  0.433626890182E+01  0.386280250549E+01 -0.436294436455E+00
[...]
CELL_DATA                  78
NORMALS normals float
  0.142875191844E+00 -0.142876031794E+00 -0.979373840315E+00
  0.142875191844E+00 -0.142876031794E+00 -0.979373840315E+00
  0.142875195591E+00 -0.142875851955E+00 -0.979373866005E+00
  0.142875195591E+00 -0.142875851956E+00 -0.979373866005E+00
  0.142875187823E+00 -0.142876224768E+00 -0.979373812750E+00
  0.142875187823E+00 -0.142876224768E+00 -0.979373812750E+00
  0.142875192029E+00 -0.142876022904E+00 -0.979373841585E+00
  0.142875192029E+00 -0.142876022904E+00 -0.979373841585E+00
  0.142875193174E+00 -0.142875967977E+00 -0.979373849431E+00
  0.142875193174E+00 -0.142875967977E+00 -0.979373849431E+00
  0.142875188368E+00 -0.142876198608E+00 -0.979373816487E+00
  0.142875188368E+00 -0.142876198608E+00 -0.979373816487E+00
  0.142875193556E+00 -0.142875949651E+00 -0.979373852049E+00
  0.142875193556E+00 -0.142875949651E+00 -0.979373852049E+00
  0.142875187918E+00 -0.142876220188E+00 -0.979373813404E+00
  0.142875187918E+00 -0.142876220188E+00 -0.979373813404E+00
  0.142875193044E+00 -0.142875974181E+00 -0.979373848545E+00
  0.142875193044E+00 -0.142875974180E+00 -0.979373848545E+00
  0.142875191276E+00 -0.142876059027E+00 -0.979373836425E+00
  0.142875191276E+00 -0.142876059026E+00 -0.979373836426E+00
  0.142875188901E+00 -0.142876173035E+00 -0.979373820140E+00
  0.142875188901E+00 -0.142876173035E+00 -0.979373820140E+00
  0.142875193716E+00 -0.142875941941E+00 -0.979373853151E+00
  0.142875193716E+00 -0.142875941942E+00 -0.979373853151E+00
  0.142875188114E+00 -0.142876210803E+00 -0.979373814745E+00
  0.142875188114E+00 -0.142876210803E+00 -0.979373814745E+00
  0.142875191375E+00 -0.142876054283E+00 -0.979373837103E+00
  0.142875191375E+00 -0.142876054283E+00 -0.979373837103E+00
  0.142875191107E+00 -0.142876067168E+00 -0.979373835263E+00
  0.142875191107E+00 -0.142876067168E+00 -0.979373835263E+00
  0.142875193553E+00 -0.142875949773E+00 -0.979373852032E+00
  0.142875193553E+00 -0.142875949773E+00 -0.979373852032E+00
  0.142875192932E+00 -0.142875979578E+00 -0.979373847774E+00
  0.142875192932E+00 -0.142875979578E+00 -0.979373847774E+00
  0.142875190890E+00 -0.142876077572E+00 -0.979373833776E+00
  0.142875190890E+00 -0.142876077572E+00 -0.979373833776E+00
  0.142875188731E+00 -0.142876181174E+00 -0.979373818977E+00
  0.142875188731E+00 -0.142876181174E+00 -0.979373818977E+00
  0.142875188872E+00 -0.142876174414E+00 -0.979373819943E+00
  0.142875188872E+00 -0.142876174414E+00 -0.979373819943E+00
  0.142875188731E+00 -0.142876181174E+00 -0.979373818977E+00
  0.142875188731E+00 -0.142876181174E+00 -0.979373818977E+00
  0.142875196062E+00 -0.142875829398E+00 -0.979373869227E+00
  0.142875196062E+00 -0.142875829398E+00 -0.979373869227E+00
  0.142875187579E+00 -0.142876236440E+00 -0.979373811083E+00
  0.142875187579E+00 -0.142876236440E+00 -0.979373811083E+00
  0.142875192150E+00 -0.142876017119E+00 -0.979373842412E+00
  0.142875192150E+00 -0.142876017119E+00 -0.979373842412E+00
  0.142875191107E+00 -0.142876067168E+00 -0.979373835263E+00
  0.142875191107E+00 -0.142876067167E+00 -0.979373835263E+00
  0.142875189774E+00 -0.142876131138E+00 -0.979373826125E+00
  0.142875189774E+00 -0.142876131138E+00 -0.979373826125E+00
  0.142875195073E+00 -0.142875876856E+00 -0.979373862448E+00
  0.142875195073E+00 -0.142875876856E+00 -0.979373862448E+00
  0.142875193716E+00 -0.142875941954E+00 -0.979373853149E+00
  0.142875193716E+00 -0.142875941954E+00 -0.979373853149E+00
  0.142875192073E+00 -0.142876020805E+00 -0.979373841885E+00
  0.142875192073E+00 -0.142876020805E+00 -0.979373841885E+00
  0.142875180648E+00 -0.142876569049E+00 -0.979373763571E+00
  0.142875180648E+00 -0.142876569049E+00 -0.979373763571E+00
  0.142875198360E+00 -0.142875719116E+00 -0.979373884980E+00
  0.142875198360E+00 -0.142875719116E+00 -0.979373884980E+00
  0.142875196949E+00 -0.142875786821E+00 -0.979373875309E+00
  0.142875196949E+00 -0.142875786821E+00 -0.979373875309E+00
  0.142875181551E+00 -0.142876525728E+00 -0.979373769759E+00
  0.142875181551E+00 -0.142876525728E+00 -0.979373769759E+00
  0.142875208990E+00 -0.142875208990E+00 -0.979373957849E+00
  0.142875208990E+00 -0.142875208990E+00 -0.979373957849E+00
  0.142875172839E+00 -0.142876943793E+00 -0.979373710041E+00
  0.142875172839E+00 -0.142876943793E+00 -0.979373710041E+00
  0.142875167239E+00 -0.142877212521E+00 -0.979373671654E+00
  0.142875167239E+00 -0.142877212521E+00 -0.979373671654E+00
  0.142875233181E+00 -0.142874048133E+00 -0.979374123670E+00
  0.142875233181E+00 -0.142874048133E+00 -0.979374123670E+00
  0.142875180876E+00 -0.142876558123E+00 -0.979373765132E+00
  0.142875180876E+00 -0.142876558124E+00 -0.979373765132E+00
  0.142875208989E+00 -0.142875209031E+00 -0.979373957843E+00
  0.142875208989E+00 -0.142875209031E+00 -0.979373957843E+00
POINT_DATA                3696
SCALARS mu float 1
LOOKUP_TABLE default
  0.000000000000E+00
  0.000000000000E+00
  0.000000000000E+00
  0.000000000000E+00
  0.000000000000E+00
  0.000000000000E+00
  0.000000000000E+00
  0.000000000000E+00
  0.000000000000E+00
  0.000000000000E+00
  0.000000000000E+00
  0.000000000000E+00
  0.000000000000E+00
  0.000000000000E+00
  0.000000000000E+00
  0.000000000000E+00
  0.000000000000E+00
  0.000000000000E+00
  0.000000000000E+00
  0.000000000000E+00
  0.000000000000E+00
  0.000000000000E+00
  0.000000000000E+00
  0.000000000000E+00
  0.000000000000E+00
  0.000000000000E+00
  0.000000000000E+00
  0.000000000000E+00
  0.000000000000E+00
  0.000000000000E+00
  0.000000000000E+00
  0.000000000000E+00
  0.000000000000E+00
  0.000000000000E+00
  0.000000000000E+00
  0.000000000000E+00
  0.000000000000E+00
  0.000000000000E+00
  0.000000000000E+00
  0.000000000000E+00
  0.000000000000E+00
  0.000000000000E+00
  0.000000000000E+00
  0.000000000000E+00
  0.000000000000E+00
  0.000000000000E+00
  0.000000000000E+00
  0.000000000000E+00
  0.000000000000E+00
  0.000000000000E+00
  0.000000000000E+00
  0.000000000000E+00
  0.000000000000E+00
  0.000000000000E+00
  0.000000000000E+00
  0.000000000000E+00
  0.000000000000E+00
  0.000000000000E+00
  0.000000000000E+00
  0.000000000000E+00
  0.000000000000E+00
  0.000000000000E+00
  0.000000000000E+00
  0.000000000000E+00
  0.000000000000E+00
  0.000000000000E+00
  0.000000000000E+00
  0.000000000000E+00
  0.000000000000E+00
  0.000000000000E+00
  0.000000000000E+00
  0.000000000000E+00
  0.000000000000E+00
  0.000000000000E+00
  0.000000000000E+00
  0.000000000000E+00
  0.000000000000E+00
  0.000000000000E+00
  0.000000000000E+00
  0.000000000000E+00
  0.000000000000E+00
  0.000000000000E+00
  0.000000000000E+00
  0.000000000000E+00
  0.000000000000E+00
  0.000000000000E+00
  0.000000000000E+00
  0.000000000000E+00
  0.000000000000E+00
  0.000000000000E+00
  0.000000000000E+00
  0.000000000000E+00
  0.000000000000E+00
  0.000000000000E+00
  0.000000000000E+00
  0.000000000000E+00
  0.000000000000E+00
  0.000000000000E+00
  0.000000000000E+00
  0.000000000000E+00
  0.000000000000E+00
  0.000000000000E+00
  0.000000000000E+00
  0.000000000000E+00
  0.000000000000E+00
  0.000000000000E+00
  0.000000000000E+00
  0.000000000000E+00
  0.000000000000E+00
  0.000000000000E+00
  0.000000000000E+00
  0.000000000000E+00
  0.000000000000E+00
  0.000000000000E+00
  0.000000000000E+00
  0.000000000000E+00
  0.000000000000E+00
  0.000000000000E+00
  0.000000000000E+00
  0.000000000000E+00
  0.000000000000E+00
  0.000000000000E+00
  0.000000000000E+00
  0.000000000000E+00
  0.000000000000E+00
  0.000000000000E+00
  0.000000000000E+00
  0.000000000000E+00
  0.000000000000E+00
  0.000000000000E+00
  0.000000000000E+00
  0.000000000000E+00
  0.000000000000E+00
  0.000000000000E+00
  0.000000000000E+00
  0.000000000000E+00
  0.000000000000E+00
  0.000000000000E+00
  0.000000000000E+00
  0.000000000000E+00
  0.000000000000E+00
  0.000000000000E+00
  0.000000000000E+00
  0.000000000000E+00
  0.000000000000E+00
  0.000000000000E+00
  0.000000000000E+00
  0.000000000000E+00
  0.000000000000E+00
  0.000000000000E+00
  0.000000000000E+00
  0.000000000000E+00
  0.000000000000E+00
  0.000000000000E+00
  0.000000000000E+00
  0.000000000000E+00
  0.000000000000E+00
  0.000000000000E+00
  0.000000000000E+00
  0.000000000000E+00
  0.000000000000E+00
  0.000000000000E+00
  0.000000000000E+00
  0.000000000000E+00
  0.000000000000E+00
  0.000000000000E+00
  0.000000000000E+00
  0.000000000000E+00
  0.000000000000E+00
  0.000000000000E+00
  0.000000000000E+00
  0.000000000000E+00
  0.000000000000E+00
  0.000000000000E+00
  0.000000000000E+00
  0.000000000000E+00
  0.000000000000E+00
  0.000000000000E+00
  0.000000000000E+00
  0.000000000000E+00
  0.000000000000E+00
  0.000000000000E+00
  0.000000000000E+00
  0.000000000000E+00
  0.000000000000E+00
  0.000000000000E+00
  0.000000000000E+00
  0.000000000000E+00
  0.000000000000E+00
  0.000000000000E+00
  0.000000000000E+00
  0.000000000000E+00
  0.000000000000E+00
  0.000000000000E+00
  0.000000000000E+00
  0.000000000000E+00
  0.000000000000E+00
  0.000000000000E+00
  0.000000000000E+00
  0.000000000000E+00
  0.000000000000E+00
  0.000000000000E+00
  0.000000000000E+00
  0.000000000000E+00
  0.000000000000E+00
  0.000000000000E+00
  0.000000000000E+00
  0.000000000000E+00
  0.000000000000E+00
  0.000000000000E+00
  0.000000000000E+00
  0.000000000000E+00
  0.000000000000E+00
  0.000000000000E+00
  0.000000000000E+00
  0.000000000000E+00
  0.000000000000E+00
  0.000000000000E+00
  0.000000000000E+00
  0.000000000000E+00
  0.000000000000E+00
  0.000000000000E+00
  0.000000000000E+00
  0.000000000000E+00
  0.000000000000E+00
  0.000000000000E+00
  0.000000000000E+00
  0.000000000000E+00
  0.000000000000E+00
  0.000000000000E+00
  0.000000000000E+00
  0.000000000000E+00
  0.000000000000E+00
  0.000000000000E+00
  0.000000000000E+00
  0.000000000000E+00
  0.000000000000E+00
  0.000000000000E+00
  0.000000000000E+00
  0.000000000000E+00
  0.000000000000E+00
  0.000000000000E+00
  0.000000000000E+00
  0.000000000000E+00
  0.000000000000E+00
  0.000000000000E+00
  0.000000000000E+00
  0.000000000000E+00
  0.000000000000E+00
  0.000000000000E+00
  0.000000000000E+00
  0.000000000000E+00
  0.000000000000E+00
  0.000000000000E+00
  0.000000000000E+00
  0.000000000000E+00
  0.000000000000E+00
  0.000000000000E+00
  0.000000000000E+00
  0.000000000000E+00
  0.000000000000E+00
  0.000000000000E+00
  0.000000000000E+00
  0.000000000000E+00
  0.000000000000E+00
  0.000000000000E+00
  0.000000000000E+00
  0.000000000000E+00
  0.000000000000E+00
  0.000000000000E+00
  0.000000000000E+00
  0.000000000000E+00
  0.000000000000E+00
  0.000000000000E+00
  0.000000000000E+00
  0.000000000000E+00
  0.000000000000E+00
  0.000000000000E+00
  0.000000000000E+00
  0.000000000000E+00
  0.000000000000E+00
  0.000000000000E+00
  0.000000000000E+00
  0.000000000000E+00
  0.000000000000E+00
  0.000000000000E+00
  0.000000000000E+00
  0.000000000000E+00
  0.000000000000E+00
  0.000000000000E+00
  0.000000000000E+00
  0.000000000000E+00
  0.000000000000E+00
  0.000000000000E+00
  0.000000000000E+00
  0.000000000000E+00
  0.000000000000E+00
  0.000000000000E+00
  0.000000000000E+00
  0.000000000000E+00
  0.000000000000E+00
  0.000000000000E+00
  0.000000000000E+00
  0.000000000000E+00
  0.000000000000E+00
  0.000000000000E+00
  0.000000000000E+00
  0.000000000000E+00
  0.000000000000E+00
  0.000000000000E+00
  0.000000000000E+00
  0.000000000000E+00
  0.000000000000E+00
  0.000000000000E+00
  0.000000000000E+00
  0.000000000000E+00
  0.000000000000E+00
  0.000000000000E+00
  0.000000000000E+00
  0.000000000000E+00
  0.000000000000E+00
  0.000000000000E+00
  0.000000000000E+00
  0.000000000000E+00
  0.000000000000E+00
  0.000000000000E+00
  0.000000000000E+00
  0.000000000000E+00
  0.000000000000E+00
  0.000000000000E+00
  0.000000000000E+00
  0.000000000000E+00
  0.000000000000E+00
  0.000000000000E+00
  0.000000000000E+00
  0.000000000000E+00
  0.000000000000E+00
  0.000000000000E+00
  0.000000000000E+00
  0.000000000000E+00
  0.000000000000E+00
  0.000000000000E+00
  0.000000000000E+00
  0.000000000000E+00
  0.000000000000E+00
  0.000000000000E+00
  0.000000000000E+00
  0.000000000000E+00
  0.000000000000E+00
  0.000000000000E+00
  0.000000000000E+00
  0.000000000000E+00
  0.000000000000E+00
  0.000000000000E+00
  0.000000000000E+00
  0.000000000000E+00
  0.000000000000E+00
  0.000000000000E+00
  0.000000000000E+00
  0.000000000000E+00
  0.000000000000E+00
  0.000000000000E+00
  0.000000000000E+00
  0.000000000000E+00
  0.000000000000E+00
  0.000000000000E+00
  0.000000000000E+00
  0.000000000000E+00
  0.000000000000E+00
  0.000000000000E+00
  0.000000000000E+00
  0.000000000000E+00
  0.000000000000E+00
  0.000000000000E+00
  0.000000000000E+00
  0.000000000000E+00
  0.000000000000E+00
  0.000000000000E+00
  0.000000000000E+00
  0.000000000000E+00
  0.000000000000E+00
  0.000000000000E+00
  0.000000000000E+00
  0.000000000000E+00
  0.000000000000E+00
  0.000000000000E+00
  0.000000000000E+00
  0.000000000000E+00
  0.000000000000E+00
  0.000000000000E+00
  0.000000000000E+00
  0.000000000000E+00
  0.000000000000E+00
  0.000000000000E+00
  0.000000000000E+00
  0.000000000000E+00
  0.000000000000E+00
  0.000000000000E+00
  0.000000000000E+00
  0.000000000000E+00
  0.000000000000E+00
  0.000000000000E+00
  0.000000000000E+00
  0.000000000000E+00
  0.000000000000E+00
  0.000000000000E+00
  0.000000000000E+00
  0.000000000000E+00
  0.000000000000E+00
  0.000000000000E+00
  0.000000000000E+00
  0.000000000000E+00
  0.000000000000E+00
  0.000000000000E+00
  0.000000000000E+00
  0.000000000000E+00
  0.000000000000E+00
  0.000000000000E+00
  0.000000000000E+00
  0.000000000000E+00
  0.000000000000E+00
  0.000000000000E+00
  0.000000000000E+00
  0.000000000000E+00
  0.000000000000E+00
  0.000000000000E+00
  0.000000000000E+00
  0.000000000000E+00
  0.000000000000E+00
  0.000000000000E+00
  0.000000000000E+00
  0.000000000000E+00
  0.000000000000E+00
  0.000000000000E+00
  0.000000000000E+00
  0.000000000000E+00
  0.000000000000E+00
  0.000000000000E+00
  0.000000000000E+00
  0.000000000000E+00
  0.000000000000E+00
  0.000000000000E+00
  0.000000000000E+00
  0.000000000000E+00
  0.000000000000E+00
  0.000000000000E+00
  0.000000000000E+00
  0.000000000000E+00
  0.000000000000E+00
  0.000000000000E+00
  0.000000000000E+00
  0.000000000000E+00
  0.000000000000E+00
  0.000000000000E+00
  0.000000000000E+00
  0.000000000000E+00
  0.000000000000E+00
  0.000000000000E+00
  0.000000000000E+00
  0.000000000000E+00
  0.000000000000E+00
  0.000000000000E+00
  0.000000000000E+00
  0.000000000000E+00
  0.000000000000E+00
  0.000000000000E+00
  0.000000000000E+00
  0.000000000000E+00
  0.000000000000E+00
  0.000000000000E+00
  0.000000000000E+00
  0.000000000000E+00
  0.000000000000E+00
  0.000000000000E+00
  0.000000000000E+00
  0.000000000000E+00
  0.000000000000E+00
  0.000000000000E+00
  0.000000000000E+00
  0.000000000000E+00
  0.000000000000E+00
  0.000000000000E+00
  0.000000000000E+00
  0.000000000000E+00
  0.000000000000E+00
  0.000000000000E+00
  0.000000000000E+00
  0.000000000000E+00
  0.000000000000E+00
  0.000000000000E+00
  0.000000000000E+00
  0.000000000000E+00
  0.000000000000E+00
  0.000000000000E+00
  0.000000000000E+00
  0.000000000000E+00
  0.000000000000E+00
  0.000000000000E+00
  0.000000000000E+00
  0.000000000000E+00
  0.000000000000E+00
  0.000000000000E+00
  0.000000000000E+00
  0.000000000000E+00
  0.000000000000E+00
  0.000000000000E+00
  0.000000000000E+00
  0.000000000000E+00
  0.000000000000E+00
  0.000000000000E+00
  0.000000000000E+00
  0.000000000000E+00
  0.000000000000E+00
  0.000000000000E+00
  0.000000000000E+00
  0.000000000000E+00
  0.000000000000E+00
  0.000000000000E+00
  0.000000000000E+00
  0.000000000000E+00
  0.000000000000E+00
  0.000000000000E+00
  0.000000000000E+00
  0.000000000000E+00
  0.000000000000E+00
  0.000000000000E+00
  0.000000000000E+00
  0.000000000000E+00
  0.000000000000E+00
  0.000000000000E+00
  0.000000000000E+00
  0.000000000000E+00
  0.000000000000E+00
  0.000000000000E+00
  0.000000000000E+00
  0.000000000000E+00
  0.000000000000E+00
  0.000000000000E+00
  0.000000000000E+00
  0.000000000000E+00
  0.000000000000E+00
  0.000000000000E+00
  0.000000000000E+00
  0.000000000000E+00
  0.000000000000E+00
  0.000000000000E+00
  0.000000000000E+00
  0.000000000000E+00
  0.000000000000E+00
  0.000000000000E+00
  0.000000000000E+00
  0.000000000000E+00
  0.000000000000E+00
  0.000000000000E+00
  0.000000000000E+00
  0.000000000000E+00
  0.000000000000E+00
  0.000000000000E+00
  0.000000000000E+00
  0.000000000000E+00
  0.000000000000E+00
  0.000000000000E+00
  0.000000000000E+00
  0.000000000000E+00
  0.000000000000E+00
  0.000000000000E+00
  0.000000000000E+00
  0.000000000000E+00
  0.000000000000E+00
  0.000000000000E+00
  0.000000000000E+00
  0.000000000000E+00
  0.000000000000E+00
  0.000000000000E+00
  0.000000000000E+00
  0.000000000000E+00
  0.000000000000E+00
  0.000000000000E+00
  0.000000000000E+00
  0.000000000000E+00
  0.000000000000E+00
  0.000000000000E+00
  0.000000000000E+00
  0.000000000000E+00
  0.000000000000E+00
  0.000000000000E+00
  0.000000000000E+00
  0.000000000000E+00
  0.000000000000E+00
  0.000000000000E+00
  0.000000000000E+00
  0.000000000000E+00
  0.000000000000E+00
  0.000000000000E+00
  0.000000000000E+00
  0.000000000000E+00
  0.000000000000E+00
  0.000000000000E+00
  0.000000000000E+00
  0.000000000000E+00
  0.000000000000E+00
  0.000000000000E+00
  0.000000000000E+00
  0.000000000000E+00
  0.000000000000E+00
  0.000000000000E+00
  0.000000000000E+00
  0.000000000000E+00
  0.000000000000E+00
  0.000000000000E+00
  0.000000000000E+00
  0.000000000000E+00
  0.000000000000E+00
  0.000000000000E+00
  0.000000000000E+00
  0.000000000000E+00
  0.000000000000E+00
  0.000000000000E+00
  0.000000000000E+00
  0.000000000000E+00
  0.000000000000E+00
  0.000000000000E+00
  0.000000000000E+00
  0.000000000000E+00
  0.000000000000E+00
  0.000000000000E+00
  0.000000000000E+00
  0.000000000000E+00
  0.000000000000E+00
  0.000000000000E+00
  0.000000000000E+00
  0.000000000000E+00
  0.000000000000E+00
  0.000000000000E+00
  0.000000000000E+00
  0.000000000000E+00
  0.000000000000E+00
  0.000000000000E+00
  0.000000000000E+00
  0.000000000000E+00
  0.000000000000E+00
  0.000000000000E+00
  0.000000000000E+00
  0.000000000000E+00
  0.000000000000E+00
  0.000000000000E+00
  0.000000000000E+00
  0.000000000000E+00
  0.000000000000E+00
  0.000000000000E+00
  0.000000000000E+00
  0.000000000000E+00
  0.000000000000E+00
  0.000000000000E+00
  0.000000000000E+00
  0.000000000000E+00
  0.000000000000E+00
  0.000000000000E+00
  0.000000000000E+00
  0.000000000000E+00
  0.000000000000E+00
  0.000000000000E+00
  0.000000000000E+00
  0.000000000000E+00
  0.000000000000E+00
  0.000000000000E+00
  0.000000000000E+00
  0.000000000000E+00
  0.000000000000E+00
  0.000000000000E+00
  0.000000000000E+00
  0.000000000000E+00
  0.000000000000E+00
  0.000000000000E+00
  0.000000000000E+00
  0.000000000000E+00
  0.000000000000E+00
  0.000000000000E+00
  0.000000000000E+00
  0.000000000000E+00
  0.000000000000E+00
  0.000000000000E+00
  0.000000000000E+00
  0.000000000000E+00
  0.000000000000E+00
  0.000000000000E+00
  0.000000000000E+00
  0.000000000000E+00
  0.000000000000E+00
  0.000000000000E+00
  0.000000000000E+00
  0.000000000000E+00
  0.000000000000E+00
  0.000000000000E+00
  0.000000000000E+00
  0.000000000000E+00
  0.000000000000E+00
  0.000000000000E+00
  0.000000000000E+00
  0.000000000000E+00
  0.000000000000E+00
  0.000000000000E+00
  0.000000000000E+00
  0.000000000000E+00
  0.000000000000E+00
  0.000000000000E+00
  0.000000000000E+00
  0.000000000000E+00
  0.000000000000E+00
  0.000000000000E+00
  0.000000000000E+00
  0.000000000000E+00
  0.000000000000E+00
  0.000000000000E+00
  0.000000000000E+00
  0.000000000000E+00
  0.000000000000E+00
  0.000000000000E+00
  0.000000000000E+00