# vtk DataFile Version 3.0
MachLine results file. Generated by MachLine, USU AeroLab (c) 2022.
ASCII
DATASET POLYDATA
POINTS                 144 float
  0.000000000000E+00  0.000000000000E+00  0.000000000000E+00
  0.113538098335E+01  0.000000000000E+00 -0.658124566078E+00
  0.113538098335E+01  0.000000000000E+00  0.658124566078E+00
  0.192375373840E+01  0.192375373840E+01  0.000000000000E+00
  0.305913543701E+01  0.192375373840E+01 -0.658124983311E+00
  0.305913543701E+01  0.192375373840E+01  0.658124983311E+00
  0.423028087616E+01  0.000000000000E+00 -0.108747220039E+01
  0.423028087616E+01  0.000000000000E+00  0.108747220039E+01
  0.547033166885E+01  0.547033166885E+01  0.000000000000E+00
  0.615403699875E+01  0.192375373840E+01 -0.108747279644E+01
  0.615403699875E+01  0.192375373840E+01  0.108747279644E+01
  0.660571479797E+01  0.547033166885E+01 -0.658125698566E+00
  0.660571479797E+01  0.547033166885E+01  0.658125698566E+00
  0.939508819580E+01  0.000000000000E+00 -0.980745851994E+00
  0.939508819580E+01  0.000000000000E+00  0.980745851994E+00
  0.970061969757E+01  0.547033166885E+01 -0.108747410774E+01
  0.970061969757E+01  0.547033166885E+01  0.108747410774E+01
  0.113188476562E+02  0.192375373840E+01 -0.980746448040E+00
  0.113188476562E+02  0.192375373840E+01  0.980746448040E+00
  0.113820018768E+02  0.113820018768E+02  0.000000000000E+00
  0.125173873901E+02  0.113820018768E+02 -0.658127009869E+00
  0.125173873901E+02  0.113820018768E+02  0.658127009869E+00
  0.145402030945E+02  0.000000000000E+00 -0.479613035917E+00
  0.145402030945E+02  0.000000000000E+00  0.479613035917E+00
  0.148654365540E+02  0.547033166885E+01 -0.980747580528E+00
  0.148654365540E+02  0.547033166885E+01  0.980747580528E+00
  0.156122989655E+02  0.113820018768E+02 -0.108747613430E+01
  0.156122989655E+02  0.113820018768E+02  0.108747613430E+01
  0.164639663696E+02  0.192375373840E+01 -0.479613333941E+00
  0.164639663696E+02  0.192375373840E+01  0.479613333941E+00
  0.176505107880E+02  0.000000000000E+00 -0.144198849797E+00
  0.176505107880E+02  0.000000000000E+00  0.144198849797E+00
  0.190000000000E+02  0.000000000000E+00  0.000000000000E+00
  0.195742740631E+02  0.192375373840E+01 -0.144198939204E+00
  0.195742740631E+02  0.192375373840E+01  0.144198939204E+00
  0.197561950684E+02  0.197561950684E+02  0.000000000000E+00
  0.200105609894E+02  0.547033166885E+01 -0.479613870382E+00
  0.200105609894E+02  0.547033166885E+01  0.479613870382E+00
  0.207771244049E+02  0.113820018768E+02 -0.980749428272E+00
  0.207771244049E+02  0.113820018768E+02  0.980749428272E+00
  0.208915824890E+02  0.197561950684E+02 -0.658128738403E+00
  0.208915824890E+02  0.197561950684E+02  0.658128738403E+00
  0.209237651825E+02  0.192375373840E+01  0.000000000000E+00
  0.231208724976E+02  0.547033166885E+01 -0.144199103117E+00
  0.231208724976E+02  0.547033166885E+01  0.144199103117E+00
  0.239865016937E+02  0.197561950684E+02 -0.108747911453E+01
  0.239865016937E+02  0.197561950684E+02  0.108747911453E+01
  0.244703655243E+02  0.547033166885E+01  0.000000000000E+00
  0.259222583771E+02  0.113820018768E+02 -0.479614794254E+00
  0.259222583771E+02  0.113820018768E+02  0.479614794254E+00
  0.290325775146E+02  0.113820018768E+02 -0.144199386239E+00
  0.290325775146E+02  0.113820018768E+02  0.144199386239E+00
  0.291513423920E+02  0.197561950684E+02 -0.980752110481E+00
  0.291513423920E+02  0.197561950684E+02  0.980752110481E+00
  0.292438049316E+02  0.292438049316E+02  0.000000000000E+00
  0.303791980743E+02  0.292438049316E+02 -0.658130764961E+00
  0.303791980743E+02  0.292438049316E+02  0.658130764961E+00
  0.303820724487E+02  0.113820018768E+02  0.000000000000E+00
  0.334741249084E+02  0.292438049316E+02 -0.108748245239E+01
  0.334741249084E+02  0.292438049316E+02  0.108748245239E+01
  0.342964897156E+02  0.197561950684E+02 -0.479616105556E+00
  0.342964897156E+02  0.197561950684E+02  0.479616105556E+00
  0.374068183899E+02  0.197561950684E+02 -0.144199773669E+00
  0.374068183899E+02  0.197561950684E+02  0.144199773669E+00
  0.376179962158E+02  0.376179962158E+02  0.000000000000E+00
  0.386389808655E+02  0.292438049316E+02 -0.980755090714E+00
  0.386389808655E+02  0.292438049316E+02  0.980755090714E+00
  0.387533912659E+02  0.376179962158E+02 -0.658132553101E+00
  0.387533912659E+02  0.376179962158E+02  0.658132553101E+00
  0.387563171387E+02  0.197561950684E+02  0.000000000000E+00
  0.418483314514E+02  0.376179962158E+02 -0.108748543262E+01
  0.418483314514E+02  0.376179962158E+02  0.108748543262E+01
  0.435296669006E+02  0.435296669006E+02  0.000000000000E+00
  0.437841453552E+02  0.292438049316E+02 -0.479617565870E+00
  0.437841453552E+02  0.292438049316E+02  0.479617565870E+00
  0.446650657654E+02  0.435296669006E+02 -0.658133804798E+00
  0.446650657654E+02  0.435296669006E+02  0.658133804798E+00
  0.468944816589E+02  0.292438049316E+02 -0.144200220704E+00
  0.468944816589E+02  0.292438049316E+02  0.144200220704E+00
  0.470131988525E+02  0.376179962158E+02 -0.980757772923E+00
  0.470131988525E+02  0.376179962158E+02  0.980757772923E+00
  0.470762481689E+02  0.470762481689E+02  0.000000000000E+00
  0.477600097656E+02  0.435296669006E+02 -0.108748745918E+01
  0.477600097656E+02  0.435296669006E+02  0.108748745918E+01
  0.482116432190E+02  0.470762481689E+02 -0.658134579659E+00
  0.482116432190E+02  0.470762481689E+02  0.658134579659E+00
  0.482439842224E+02  0.292438049316E+02  0.000000000000E+00
  0.490000000000E+02  0.490000000000E+02  0.000000000000E+00
  0.501353988647E+02  0.490000000000E+02 -0.658134996891E+00
  0.501353988647E+02  0.490000000000E+02  0.658134996891E+00
  0.506007728577E+02  0.494653701782E+02 -0.465371757746E+00
  0.506007728577E+02  0.494653701782E+02  0.465371757746E+00
  0.507935333252E+02  0.496581344604E+02 -0.771266485397E-15
  0.513065910339E+02  0.470762481689E+02 -0.108748877048E+01
  0.513065910339E+02  0.470762481689E+02  0.108748877048E+01
  0.521583786011E+02  0.376179962158E+02 -0.479618877172E+00
  0.521583786011E+02  0.376179962158E+02  0.479618877172E+00
  0.529248886108E+02  0.435296669006E+02 -0.980759620667E+00
  0.529248886108E+02  0.435296669006E+02  0.980759620667E+00
  0.532303466797E+02  0.490000000000E+02 -0.108748936653E+01
  0.532303466797E+02  0.490000000000E+02  0.108748936653E+01
  0.539993209839E+02  0.497689704895E+02 -0.768971264362E+00
  0.539993209839E+02  0.497689704895E+02  0.768971264362E+00
  0.543178405762E+02  0.500874900818E+02 -0.157378642191E-15
  0.552687225342E+02  0.376179962158E+02 -0.144200608134E+00
  0.552687225342E+02  0.376179962158E+02  0.144200608134E+00
  0.564714775085E+02  0.470762481689E+02 -0.980760753155E+00
  0.564714775085E+02  0.470762481689E+02  0.980760753155E+00
  0.566182289124E+02  0.376179962158E+02  0.000000000000E+00
  0.580700759888E+02  0.435296669006E+02 -0.479619771242E+00
  0.580700759888E+02  0.435296669006E+02  0.479619771242E+00
  0.583952369690E+02  0.490000000000E+02 -0.980761349201E+00
  0.583952369690E+02  0.490000000000E+02  0.980761349201E+00
  0.590887413025E+02  0.496935043335E+02 -0.693503141403E+00
  0.590887413025E+02  0.496935043335E+02  0.693503141403E+00
  0.593759994507E+02  0.499807624817E+02  0.000000000000E+00
  0.611804275513E+02  0.435296669006E+02 -0.144200876355E+00
  0.611804275513E+02  0.435296669006E+02  0.144200876355E+00
  0.616166725159E+02  0.470762481689E+02 -0.479620337486E+00
  0.616166725159E+02  0.470762481689E+02  0.479620337486E+00
  0.625299339294E+02  0.435296669006E+02  0.000000000000E+00
  0.635404319763E+02  0.490000000000E+02 -0.479620635509E+00
  0.635404319763E+02  0.490000000000E+02  0.479620635509E+00
  0.638795776367E+02  0.493391418457E+02 -0.339143037796E+00
  0.638795776367E+02  0.493391418457E+02  0.339143037796E+00
  0.640200576782E+02  0.494796218872E+02  0.296956834055E-15
  0.647270278931E+02  0.470762481689E+02 -0.144201040268E+00
  0.647270278931E+02  0.470762481689E+02  0.144201040268E+00
  0.660765380859E+02  0.470762481689E+02  0.000000000000E+00
  0.666507873535E+02  0.490000000000E+02 -0.144201144576E+00
  0.666507873535E+02  0.490000000000E+02  0.144201144576E+00
  0.667527542114E+02  0.491019668579E+02 -0.101965606213E+00
  0.667527542114E+02  0.491019668579E+02  0.101965606213E+00
  0.667949905396E+02  0.491441993713E+02 -0.260488604752E-16
  0.680002975464E+02  0.490000000000E+02  0.000000000000E+00
  0.190000000000E+02  0.000000000000E+00  0.000000000000E+00
  0.209237651825E+02  0.192375373840E+01  0.000000000000E+00
  0.244703655243E+02  0.547033166885E+01  0.000000000000E+00
  0.303820724487E+02  0.113820018768E+02  0.000000000000E+00
  0.387563171387E+02  0.197561950684E+02  0.000000000000E+00
  0.482439842224E+02  0.292438049316E+02  0.000000000000E+00
  0.566182289124E+02  0.376179962158E+02  0.000000000000E+00
  0.625299339294E+02  0.435296669006E+02  0.000000000000E+00
  0.660765380859E+02  0.470762481689E+02  0.000000000000E+00
POLYGONS                 256                1024
3                  32                  33                  42
3                  32                  30                  33
3                  30                  28                  33
3                  30                  22                  28
3                  22                  17                  28
3                  22                  13                  17
3                  13                   6                  17
3                  17                   6                   9
3                   6                   1                   9
3                   9                   1                   4
3                   1                   0                   4
3                   4                   0                   3
3                   0                   5                   3
3                   0                   2                   5
3                   2                  10                   5
3                   2                   7                  10
[...]
CELL_DATA                 256
SCALARS C_p_inc float 1
LOOKUP_TABLE default
  0.133676588383E+00
  0.112224613863E+00
  0.732772955643E-01
  0.540764664567E-01
  0.193372657702E-01
  0.576395167624E-02
  0.454265688878E-01
  0.230294173892E-01
  0.241146629943E+00
  0.174187058012E+00
  0.591227736221E+00
  0.592739063711E+00
 -0.515796250339E+00
  0.225916329745E-01
 -0.648192568762E+00
 -0.453686839266E+00
 -0.462187561999E+00
 -0.472688913861E+00
 -0.333570839371E+00
 -0.272895280703E+00
 -0.149170410013E+00
 -0.711416358480E-01
  0.129310626910E-01
  0.985985431879E-01
  0.129251508472E+00
  0.132330593708E+00
  0.759777574927E-01
  0.731515065527E-01
  0.277527878401E-01
  0.194618079832E-01
  0.236884760915E-01
  0.190303480442E-01
  0.169284051538E+00
  0.170880959481E+00
  0.520294327841E+00
  0.508273900200E+00
 -0.795275457846E+00
 -0.492229271107E+00
 -0.783916326190E+00
 -0.642839791377E+00
 -0.474881229251E+00
 -0.479519070275E+00
 -0.273562424155E+00
 -0.219709683416E+00
 -0.708982496079E-01
 -0.254484850343E-01
  0.954882545297E-01
  0.111618136107E+00
  0.127777529636E+00
  0.128491592676E+00
  0.738529664874E-01
  0.757030558256E-01
  0.300494694645E-01
  0.278895233145E-01
  0.191999612481E-01
  0.292173148040E-01
  0.169524701667E+00
  0.190732832827E+00
  0.511083996562E+00
  0.496600915143E+00
 -0.981425342679E+00
 -0.789973614230E+00
 -0.861236643337E+00
 -0.788016292744E+00
 -0.477166229975E+00
 -0.490353738949E+00
 -0.221079023241E+00
 -0.195570971309E+00
 -0.254467877416E-01
 -0.108590718554E-01
  0.111706325604E+00
  0.118729393936E+00
  0.124935832484E+00
  0.126902515919E+00
  0.704507311567E-01
  0.734861904696E-01
  0.289538645379E-01
  0.300516034263E-01
  0.292294749094E-01
  0.347950369651E-01
  0.191332399714E+00
  0.208016118117E+00
  0.506947325153E+00
  0.495637685301E+00
 -0.107679562945E+01
 -0.981485254179E+00
 -0.897735980754E+00
 -0.867964712702E+00
 -0.482753900909E+00
 -0.485738281487E+00
 -0.196968819230E+00
 -0.188898108043E+00
 -0.108019303953E-01
 -0.312727999080E-02
  0.119841345319E+00
  0.126105124042E+00
  0.114859997861E+00
  0.123525134037E+00
  0.587616013847E-01
  0.698461229665E-01
  0.197524850222E-01
  0.288387103458E-01
  0.347095544862E-01
  0.298506400043E-01
  0.207833615540E+00
  0.209865180066E+00
  0.499647494306E+00
  0.496185748807E+00
 -0.110146715964E+01
 -0.107734903863E+01
 -0.902867205822E+00
 -0.901635649820E+00
 -0.476519966358E+00
 -0.487280957180E+00
 -0.190314512735E+00
 -0.176788864165E+00
 -0.317482236189E-02
  0.127260465356E-01
  0.127667031797E+00
  0.142123202642E+00
  0.939254095493E-01
  0.111761880660E+00
  0.322518562995E-01
  0.574024164195E-01
 -0.578288302362E-02
  0.194357214588E-01
  0.294552903149E-01
  0.709336706004E-02
  0.208143206455E+00
  0.193076791646E+00
  0.493800024094E+00
  0.499552807052E+00
 -0.105818982667E+01
 -0.110230712750E+01
 -0.870823241525E+00
 -0.907485235444E+00
 -0.445467400382E+00
 -0.482693399140E+00
 -0.178512786682E+00
 -0.142418934502E+00
  0.123740603481E-01
  0.523893467499E-01
  0.144613205909E+00
  0.180667320166E+00
  0.604545898234E-01
  0.865278702342E-01
 -0.346123885484E-02
  0.286746156613E-01
 -0.417073578756E-01
 -0.690073019868E-02
  0.559784115510E-02
 -0.376633342108E-01
  0.188044085811E+00
  0.152541123876E+00
  0.488184961062E+00
  0.502366630870E+00
 -0.960013507292E+00
 -0.105973408707E+01
 -0.803229624844E+00
 -0.879393107558E+00
 -0.379889482419E+00
 -0.458954951485E+00
 -0.145111116756E+00
 -0.727972921668E-01
  0.506357062552E-01
  0.124644626530E+00
  0.184168781203E+00
  0.253883871689E+00
 -0.239791992596E-01
  0.422484612901E-01
 -0.599110371492E-01
 -0.122077411544E-01
 -0.718321121540E-01
 -0.461316389723E-01
 -0.428619323440E-01
 -0.758590011734E-01
  0.137328039257E+00
  0.760478902409E-01
  0.468707432153E+00
  0.493594323583E+00
 -0.827469245773E+00
 -0.961742644861E+00
 -0.700095358264E+00
 -0.820131210518E+00
 -0.266127019746E+00
 -0.416644437508E+00
 -0.797129754631E-01
  0.443928980699E-02
  0.115414815809E+00
  0.205089898503E+00
  0.250322084156E+00
  0.363869716852E+00
 -0.234625297826E+00
 -0.754621437444E-01
 -0.158469727657E+00
 -0.872978216231E-01
 -0.121286649945E+00
 -0.905487663643E-01
 -0.976456179480E-01
 -0.979990096375E-01
  0.269315196250E-01
  0.530689468917E-02
  0.339281566783E+00
  0.417431236790E+00
 -0.627950234748E+00
 -0.826284436638E+00
 -0.459628394562E+00
 -0.769821998426E+00
 -0.161310616996E+00
 -0.382166724075E+00
 -0.301760081752E-01
  0.127795759693E-01
  0.149208810764E+00
  0.213841532540E+00
  0.306678980688E+00
  0.470260732388E+00
 -0.784313768073E+00
 -0.786283040683E+00
 -0.382190931005E+00
 -0.397684086956E+00
 -0.227472180150E+00
 -0.231824464621E+00
 -0.219526922462E+00
 -0.181208411558E+00
 -0.216489274488E+00
 -0.635875918020E-01
 -0.628098924310E+00
 -0.399567358696E+00
 -0.623936366137E+00
 -0.235421088750E+00
 -0.493207403021E+00
 -0.169540794579E+00
 -0.426604582171E+00
 -0.234123388777E+00
 -0.777855433469E+00
 -0.424659498328E+00
 -0.162619057856E+01
 -0.168068069524E+01
 -0.748617957113E+00
 -0.814373913590E+00
 -0.412743586922E+00
 -0.457639696919E+00
 -0.396542796291E+00
 -0.407238764482E+00
 -0.444142926711E+00
 -0.330731873925E+00
 -0.526370688441E+00
 -0.504618914933E+00
 -0.546371405897E+00
 -0.382980633856E+00
 -0.576213831679E+00
 -0.415833664825E+00
 -0.795116418375E+00
 -0.728703269399E+00
 -0.164669761350E+01
 -0.149757807330E+01
SCALARS sigma float 1
LOOKUP_TABLE default
  0.000000000000E+00
  0.000000000000E+00
  0.000000000000E+00
  0.000000000000E+00
  0.000000000000E+00
  0.000000000000E+00
  0.000000000000E+00
  0.000000000000E+00
  0.000000000000E+00
  0.000000000000E+00
  0.000000000000E+00
  0.000000000000E+00
  0.000000000000E+00
  0.000000000000E+00
  0.000000000000E+00
  0.000000000000E+00
  0.000000000000E+00
  0.000000000000E+00
  0.000000000000E+00
  0.000000000000E+00
  0.000000000000E+00
  0.000000000000E+00
  0.000000000000E+00
  0.000000000000E+00
  0.000000000000E+00
  0.000000000000E+00
  0.000000000000E+00
  0.000000000000E+00
  0.000000000000E+00
  0.000000000000E+00
  0.000000000000E+00
  0.000000000000E+00
  0.000000000000E+00
  0.000000000000E+00
  0.000000000000E+00
  0.000000000000E+00
  0.000000000000E+00
  0.000000000000E+00
  0.000000000000E+00
  0.000000000000E+00
  0.000000000000E+00
  0.000000000000E+00
  0.000000000000E+00
  0.000000000000E+00
  0.000000000000E+00
  0.000000000000E+00
  0.000000000000E+00
  0.000000000000E+00
  0.000000000000E+00
  0.000000000000E+00
  0.000000000000E+00
  0.000000000000E+00
  0.000000000000E+00
  0.000000000000E+00
  0.000000000000E+00
  0.000000000000E+00
  0.000000000000E+00
  0.000000000000E+00
  0.000000000000E+00
  0.000000000000E+00
  0.000000000000E+00
  0.000000000000E+00
  0.000000000000E+00
  0.000000000000E+00
  0.000000000000E+00
  0.000000000000E+00
  0.000000000000E+00
  0.000000000000E+00
  0.000000000000E+00
  0.000000000000E+00
  0.000000000000E+00
  0.000000000000E+00
  0.000000000000E+00
  0.000000000000E+00
  0.000000000000E+00
  0.000000000000E+00
  0.000000000000E+00
  0.000000000000E+00
  0.000000000000E+00
  0.000000000000E+00
  0.000000000000E+00
  0.000000000000E+00
  0.000000000000E+00
  0.000000000000E+00
  0.000000000000E+00
  0.000000000000E+00
  0.000000000000E+00
  0.000000000000E+00
  0.000000000000E+00
  0.000000000000E+00
  0.000000000000E+00
  0.000000000000E+00
  0.000000000000E+00
  0.000000000000E+00
  0.000000000000E+00
  0.000000000000E+00
  0.000000000000E+00
  0.000000000000E+00
  0.000000000000E+00
  0.000000000000E+00
  0.000000000000E+00
  0.000000000000E+00
  0.000000000000E+00
  0.000000000000E+00
  0.000000000000E+00
  0.000000000000E+00
  0.000000000000E+00
  0.000000000000E+00
  0.000000000000E+00
  0.000000000000E+00
  0.000000000000E+00
  0.000000000000E+00
  0.000000000000E+00
  0.000000000000E+00
  0.000000000000E+00
  0.000000000000E+00
  0.000000000000E+00
  0.000000000000E+00
  0.000000000000E+00
  0.000000000000E+00
  0.000000000000E+00
  0.000000000000E+00
  0.000000000000E+00
  0.000000000000E+00
  0.000000000000E+00
  0.000000000000E+00
  0.000000000000E+00
  0.000000000000E+00
  0.000000000000E+00
  0.000000000000E+00
  0.000000000000E+00
  0.000000000000E+00
  0.000000000000E+00
  0.000000000000E+00
  0.000000000000E+00
  0.000000000000E+00
  0.000000000000E+00
  0.000000000000E+00
  0.000000000000E+00
  0.000000000000E+00
  0.000000000000E+00
  0.000000000000E+00
  0.000000000000E+00
  0.000000000000E+00
  0.000000000000E+00
  0.000000000000E+00
  0.000000000000E+00
  0.000000000000E+00
  0.000000000000E+00
  0.000000000000E+00
  0.000000000000E+00
  0.000000000000E+00
  0.000000000000E+00
  0.000000000000E+00
  0.000000000000E+00
  0.000000000000E+00
  0.000000000000E+00
  0.000000000000E+00
  0.000000000000E+00
  0.000000000000E+00
  0.000000000000E+00
  0.000000000000E+00
  0.000000000000E+00
  0.000000000000E+00
  0.000000000000E+00
  0.000000000000E+00
  0.000000000000E+00
  0.000000000000E+00
  0.000000000000E+00
  0.000000000000E+00
  0.000000000000E+00
  0.000000000000E+00
  0.000000000000E+00
  0.000000000000E+00
  0.000000000000E+00
  0.000000000000E+00
  0.000000000000E+00
  0.000000000000E+00
  0.000000000000E+00
  0.000000000000E+00
  0.000000000000E+00
  0.000000000000E+00
  0.000000000000E+00
  0.000000000000E+00
  0.000000000000E+00
  0.000000000000E+00
  0.000000000000E+00
  0.000000000000E+00
  0.000000000000E+00
  0.000000000000E+00
  0.000000000000E+00
  0.000000000000E+00
  0.000000000000E+00
  0.000000000000E+00
  0.000000000000E+00
  0.000000000000E+00
  0.000000000000E+00
  0.000000000000E+00
  0.000000000000E+00
  0.000000000000E+00
  0.000000000000E+00
  0.000000000000E+00
  0.000000000000E+00
  0.000000000000E+00
  0.000000000000E+00
  0.000000000000E+00
  0.000000000000E+00
  0.000000000000E+00
  0.000000000000E+00
  0.000000000000E+00
  0.000000000000E+00
  0.000000000000E+00
  0.000000000000E+00
  0.000000000000E+00
  0.000000000000E+00
  0.000000000000E+00
  0.000000000000E+00
  0.000000000000E+00
  0.000000000000E+00
  0.000000000000E+00
  0.000000000000E+00
  0.000000000000E+00
  0.000000000000E+00
  0.000000000000E+00
  0.000000000000E+00
  0.000000000000E+00
  0.000000000000E+00
  0.000000000000E+00
  0.000000000000E+00
  0.000000000000E+00
  0.000000000000E+00
  0.000000000000E+00
  0.000000000000E+00
  0.000000000000E+00
  0.000000000000E+00
  0.000000000000E+00
  0.000000000000E+00
  0.000000000000E+00
  0.000000000000E+00
  0.000000000000E+00
  0.000000000000E+00
  0.000000000000E+00
  0.000000000000E+00
  0.000000000000E+00
  0.000000000000E+00
  0.000000000000E+00
  0.000000000000E+00
  0.000000000000E+00
  0.000000000000E+00
  0.000000000000E+00
  0.000000000000E+00
  0.000000000000E+00
  0.000000000000E+00
  0.000000000000E+00
  0.000000000000E+00
  0.000000000000E+00
SCALARS inclination float 1
LOOKUP_TABLE default
  0.100000000000E+01
  0.100000000000E+01
  0.100000000000E+01
  0.100000000000E+01
  0.100000000000E+01
  0.100000000000E+01
  0.100000000000E+01
  0.100000000000E+01
  0.100000000000E+01
  0.100000000000E+01
  0.100000000000E+01
  0.100000000000E+01
  0.100000000000E+01
  0.100000000000E+01
  0.100000000000E+01
  0.100000000000E+01
  0.100000000000E+01
  0.100000000000E+01
  0.100000000000E+01
  0.100000000000E+01
  0.100000000000E+01
  0.100000000000E+01
  0.100000000000E+01
  0.100000000000E+01
  0.100000000000E+01
  0.100000000000E+01
  0.100000000000E+01
  0.100000000000E+01
  0.100000000000E+01
  0.100000000000E+01
  0.100000000000E+01
  0.100000000000E+01
  0.100000000000E+01
  0.100000000000E+01
  0.100000000000E+01
  0.100000000000E+01
  0.100000000000E+01
  0.100000000000E+01
  0.100000000000E+01
  0.100000000000E+01
  0.100000000000E+01
  0.100000000000E+01
  0.100000000000E+01
  0.100000000000E+01
  0.100000000000E+01
  0.100000000000E+01
  0.100000000000E+01
  0.100000000000E+01
  0.100000000000E+01
  0.100000000000E+01
  0.100000000000E+01
  0.100000000000E+01
  0.100000000000E+01
  0.100000000000E+01
  0.100000000000E+01
  0.100000000000E+01
  0.100000000000E+01
  0.100000000000E+01
  0.100000000000E+01
  0.100000000000E+01
  0.100000000000E+01
  0.100000000000E+01
  0.100000000000E+01
  0.100000000000E+01
  0.100000000000E+01
  0.100000000000E+01
  0.100000000000E+01
  0.100000000000E+01
  0.100000000000E+01
  0.100000000000E+01
  0.100000000000E+01
  0.100000000000E+01
  0.100000000000E+01
  0.100000000000E+01
  0.100000000000E+01
  0.100000000000E+01
  0.100000000000E+01
  0.100000000000E+01
  0.100000000000E+01
  0.100000000000E+01
  0.100000000000E+01
  0.100000000000E+01
  0.100000000000E+01
  0.100000000000E+01
  0.100000000000E+01
  0.100000000000E+01
  0.100000000000E+01
  0.100000000000E+01
  0.100000000000E+01
  0.100000000000E+01
  0.100000000000E+01
  0.100000000000E+01
  0.100000000000E+01
  0.100000000000E+01
  0.100000000000E+01
  0.100000000000E+01
  0.100000000000E+01
  0.100000000000E+01
  0.100000000000E+01
  0.100000000000E+01
  0.100000000000E+01
  0.100000000000E+01
  0.100000000000E+01
  0.100000000000E+01
  0.100000000000E+01
  0.100000000000E+01
  0.100000000000E+01
  0.100000000000E+01
  0.100000000000E+01
  0.100000000000E+01
  0.100000000000E+01
  0.100000000000E+01
  0.100000000000E+01
  0.100000000000E+01
  0.100000000000E+01
  0.100000000000E+01
  0.100000000000E+01
  0.100000000000E+01
  0.100000000000E+01
  0.100000000000E+01
  0.100000000000E+01
  0.100000000000E+01
  0.100000000000E+01
  0.100000000000E+01
  0.100000000000E+01
  0.100000000000E+01
  0.100000000000E+01
  0.100000000000E+01
  0.100000000000E+01
  0.100000000000E+01
  0.100000000000E+01
  0.100000000000E+01
  0.100000000000E+01
  0.100000000000E+01
  0.100000000000E+01
  0.100000000000E+01
  0.100000000000E+01
  0.100000000000E+01
  0.100000000000E+01
  0.100000000000E+01
  0.100000000000E+01
  0.100000000000E+01
  0.100000000000E+01
  0.100000000000E+01
  0.100000000000E+01
  0.100000000000E+01
  0.100000000000E+01
  0.100000000000E+01
  0.100000000000E+01
  0.100000000000E+01
  0.100000000000E+01
  0.100000000000E+01
  0.100000000000E+01
  0.100000000000E+01
  0.100000000000E+01
  0.100000000000E+01
  0.100000000000E+01
  0.100000000000E+01
  0.100000000000E+01
  0.100000000000E+01
  0.100000000000E+01
  0.100000000000E+01
  0.100000000000E+01
  0.100000000000E+01
  0.100000000000E+01
  0.100000000000E+01
  0.100000000000E+01
  0.100000000000E+01
  0.100000000000E+01
  0.100000000000E+01
  0.100000000000E+01
  0.100000000000E+01
  0.100000000000E+01
  0.100000000000E+01
  0.100000000000E+01
  0.100000000000E+01
  0.100000000000E+01
  0.100000000000E+01
  0.100000000000E+01
  0.100000000000E+01
  0.100000000000E+01
  0.100000000000E+01
  0.100000000000E+01
  0.100000000000E+01
  0.100000000000E+01
  0.100000000000E+01
  0.100000000000E+01
  0.100000000000E+01
  0.100000000000E+01
  0.100000000000E+01
  0.100000000000E+01
  0.100000000000E+01
  0.100000000000E+01
  0.100000000000E+01
  0.100000000000E+01
  0.100000000000E+01
  0.100000000000E+01
  0.100000000000E+01
  0.100000000000E+01
  0.100000000000E+01
  0.100000000000E+01
  0.100000000000E+01
  0.100000000000E+01
  0.100000000000E+01
  0.100000000000E+01
  0.100000000000E+01
  0.100000000000E+01
  0.100000000000E+01
  0.100000000000E+01
  0.100000000000E+01
  0.100000000000E+01
  0.100000000000E+01
  0.100000000000E+01
  0.100000000000E+01
  0.100000000000E+01
  0.100000000000E+01
  0.100000000000E+01
  0.100000000000E+01
  0.100000000000E+01
  0.100000000000E+01
  0.100000000000E+01
  0.100000000000E+01
  0.100000000000E+01
  0.100000000000E+01
  0.100000000000E+01
  0.100000000000E+01
  0.100000000000E+01
  0.100000000000E+01
  0.100000000000E+01
  0.100000000000E+01
  0.100000000000E+01
  0.100000000000E+01
  0.100000000000E+01
  0.100000000000E+01
  0.100000000000E+01
  0.100000000000E+01
  0.100000000000E+01
  0.100000000000E+01
  0.100000000000E+01
  0.100000000000E+01
  0.100000000000E+01
  0.100000000000E+01
  0.100000000000E+01
  0.100000000000E+01
  0.100000000000E+01
  0.100000000000E+01
  0.100000000000E+01
  0.100000000000E+01
  0.100000000000E+01
  0.100000000000E+01
  0.100000000000E+01
  0.100000000000E+01
  0.100000000000E+01
  0.100000000000E+01
  0.100000000000E+01
  0.100000000000E+01
VECTORS v float
  0.150856886736E+03  0.331706428251E+01  0.157652634662E+02
  0.152718315764E+03  0.278060209883E+01  0.160215016892E+02
  0.156003155477E+03 -0.504253858026E+00  0.168776995906E+02
  0.157622676235E+03  0.506095771527E+00  0.169433811925E+02
  0.160613504850E+03 -0.248474783318E+01  0.158857254764E+02
  0.161757468335E+03 -0.588256411539E+00  0.158124305554E+02
  0.159209491440E+03  0.195972416963E+01  0.324943190523E+01
  0.161007884907E+03 -0.467658993698E+01  0.342372804382E+01
  0.140003607220E+03  0.163277074053E+02 -0.171572470240E+02
  0.146673585706E+03 -0.184188954166E+01 -0.206031734125E+02
  0.829710054984E+02  0.618607161657E+02 -0.122365975005E+02
  0.836678470865E+02  0.603061477670E+02 -0.135416292103E+02
  0.166560311106E+03 -0.225863162529E+02  0.109639006095E+03
  0.143811692145E+03  0.281630723703E+02  0.670358222188E+02
  0.204157163654E+03 -0.321824141472E+02  0.327867825182E+02
  0.194467803114E+03 -0.578776021213E+01  0.277809470029E+02
  0.196884698388E+03 -0.820464856152E+01 -0.423799685257E+01
  0.197486092065E+03 -0.104238724399E+02 -0.429628637105E+01
  0.187343543216E+03 -0.281289092276E+00 -0.182746086919E+02
  0.182793995904E+03 -0.782364134158E+01 -0.185661091898E+02
  0.173737513720E+03  0.123288574482E+01 -0.186028208306E+02
  0.167677341347E+03 -0.254780099375E+01 -0.183570158706E+02
  0.161019962208E+03  0.410961107405E+01 -0.167665578636E+02
  0.153825277491E+03  0.618311547827E+01 -0.157761970671E+02
  0.151169787069E+03  0.664171338333E+01  0.154434384886E+02
  0.150896309721E+03  0.680921708344E+01  0.153963219997E+02
  0.155792542654E+03  0.191295589880E+01  0.165943127104E+02
  0.156030637479E+03  0.188636601746E+01  0.166228581685E+02
  0.159933590510E+03 -0.201660550861E+01  0.157739059441E+02
  0.160620863541E+03 -0.170170996001E+01  0.158101740137E+02
  0.161008989010E+03 -0.208984060203E+01  0.337029715195E+01
  0.161378012544E+03 -0.299706055712E+01  0.339667162521E+01
  0.146924680381E+03  0.114562828342E+02 -0.187931879482E+02
  0.146764132452E+03  0.117648093903E+02 -0.187281198557E+02
  0.865927453743E+02  0.719362228012E+02 -0.849566367120E+01
  0.814081700656E+02  0.802303839361E+02 -0.682704630120E+00
  0.182590918018E+03 -0.209523640160E+02  0.117984018999E+03
  0.171452579038E+03 -0.313351565920E+01  0.101198980849E+03
  0.210649722950E+03 -0.423306620493E+02  0.350953293508E+02
  0.204199592482E+03 -0.299353539947E+02  0.324809394635E+02
  0.196634693008E+03 -0.223704306672E+02 -0.452556264246E+01
  0.196878396242E+03 -0.229695588428E+02 -0.454297678429E+01
  0.182784113513E+03 -0.887522801887E+01 -0.186675714115E+02
  0.178748093805E+03 -0.107244569726E+02 -0.184545810643E+02
  0.167710233655E+03  0.313455058253E+00 -0.180520045168E+02
  0.164116194529E+03  0.714831619542E+00 -0.176211381007E+02
  0.153879113215E+03  0.109519720088E+02 -0.152723734420E+02
  0.152438990009E+03  0.118340401822E+02 -0.150242324150E+02
  0.151249275023E+03  0.795564969506E+01  0.153115400266E+02
  0.151185175221E+03  0.800482197810E+01  0.152994278585E+02
  0.155965036524E+03  0.322493258641E+01  0.164714214741E+02
  0.155808461643E+03  0.329772642324E+01  0.164466954310E+02
  0.159768604061E+03 -0.662434330590E+00  0.156259394222E+02
  0.159946115607E+03 -0.683810014557E+00  0.156453111524E+02
  0.161378388572E+03 -0.211609108777E+01  0.337847451468E+01
  0.160565514253E+03 -0.592163080260E+00  0.333018596659E+01
  0.146790900511E+03  0.131824642764E+02 -0.185351656100E+02
  0.144608163739E+03  0.165639837520E+02 -0.177632425773E+02
  0.813144494891E+02  0.798577272813E+02 -0.844389186196E+00
  0.761035518585E+02  0.868573752790E+02  0.623346129530E+01