# vtk DataFile Version 3.0
MachLine results file. Generated by MachLine, USU AeroLab (c) 2022.
ASCII
DATASET POLYDATA
POINTS                1848 float
  0.000000000000E+00  0.000000000000E+00  0.000000000000E+00
  0.147665724158E+00  0.000000000000E+00 -0.234920635819E+00
  0.147665724158E+00  0.000000000000E+00  0.234920635819E+00
  0.339639574289E+00  0.339639574289E+00  0.000000000000E+00
  0.473465979099E+00  0.000000000000E+00 -0.436293870211E+00
  0.473465979099E+00  0.000000000000E+00  0.436293870211E+00
  0.487305283546E+00  0.339639574289E+00 -0.234920650721E+00
  0.487305283546E+00  0.339639574289E+00  0.234920650721E+00
  0.735364913940E+00  0.735364913940E+00  0.000000000000E+00
  0.813105583191E+00  0.339639574289E+00 -0.436293929815E+00
  0.813105583191E+00  0.339639574289E+00  0.436293929815E+00
  0.883030653000E+00  0.735364913940E+00 -0.234920680523E+00
  0.883030653000E+00  0.735364913940E+00  0.234920680523E+00
  0.944064557552E+00  0.000000000000E+00 -0.604293465614E+00
  0.944064557552E+00  0.000000000000E+00  0.604293465614E+00
  0.119528055191E+01  0.119528055191E+01  0.000000000000E+00
  0.120883107185E+01  0.735364913940E+00 -0.436293989420E+00
  0.120883107185E+01  0.735364913940E+00  0.436293989420E+00
  0.128370416164E+01  0.339639574289E+00 -0.604293525219E+00
  0.128370416164E+01  0.339639574289E+00  0.604293525219E+00
  0.134294629097E+01  0.119528055191E+01 -0.234920725226E+00
  0.134294629097E+01  0.119528055191E+01  0.234920725226E+00
  0.157641971111E+01  0.000000000000E+00 -0.760520398617E+00
  0.157641971111E+01  0.000000000000E+00  0.760520398617E+00
  0.166874670982E+01  0.119528055191E+01 -0.436294049025E+00
  0.166874670982E+01  0.119528055191E+01  0.436294049025E+00
  0.167942965031E+01  0.735364913940E+00 -0.604293584824E+00
  0.167942965031E+01  0.735364913940E+00  0.604293584824E+00
  0.172824025154E+01  0.172824025154E+01  0.000000000000E+00
  0.187590610981E+01  0.172824025154E+01 -0.234920769930E+00
  0.187590610981E+01  0.172824025154E+01  0.234920769930E+00
  0.191605937481E+01  0.339639574289E+00 -0.760520458221E+00
  0.191605937481E+01  0.339639574289E+00  0.760520458221E+00
  0.213934540749E+01  0.119528055191E+01 -0.604293704033E+00
  0.213934540749E+01  0.119528055191E+01  0.604293704033E+00
  0.220170640945E+01  0.172824025154E+01 -0.436294138432E+00
  0.220170640945E+01  0.172824025154E+01  0.436294138432E+00
  0.231178498268E+01  0.735364913940E+00 -0.760520577431E+00
  0.231178498268E+01  0.735364913940E+00  0.760520577431E+00
  0.234375929832E+01  0.234375929832E+01  0.000000000000E+00
  0.239635515213E+01  0.000000000000E+00 -0.902061045170E+00
  0.239635515213E+01  0.000000000000E+00  0.902061045170E+00
  0.249142503738E+01  0.234375929832E+01 -0.234920814633E+00
  0.249142503738E+01  0.234375929832E+01  0.234920814633E+00
  0.267230534554E+01  0.172824025154E+01 -0.604293823242E+00
  0.267230534554E+01  0.172824025154E+01  0.604293823242E+00
  0.273599505424E+01  0.339639574289E+00 -0.902061164379E+00
  0.273599505424E+01  0.339639574289E+00  0.902061164379E+00
  0.277170085907E+01  0.119528055191E+01 -0.760520696640E+00
  0.277170085907E+01  0.119528055191E+01  0.760520696640E+00
  0.281722569466E+01  0.234375929832E+01 -0.436294227839E+00
  0.281722569466E+01  0.234375929832E+01  0.436294227839E+00
  0.305185556412E+01  0.305185556412E+01  0.000000000000E+00
  0.313172078133E+01  0.735364913940E+00 -0.902061283588E+00
  0.313172078133E+01  0.735364913940E+00  0.902061283588E+00
  0.319952154160E+01  0.305185556412E+01 -0.234920859337E+00
  0.319952154160E+01  0.305185556412E+01  0.234920859337E+00
  0.328782463074E+01  0.234375929832E+01 -0.604293942451E+00
  0.328782463074E+01  0.234375929832E+01  0.604293942451E+00
  0.330466079712E+01  0.172824025154E+01 -0.760520815849E+00
  0.330466079712E+01  0.172824025154E+01  0.760520815849E+00
  0.342464399338E+01  0.000000000000E+00 -0.102348911762E+01
  0.342464399338E+01  0.000000000000E+00  0.102348911762E+01
  0.352532196045E+01  0.305185556412E+01 -0.436294317245E+00
  0.352532196045E+01  0.305185556412E+01  0.436294317245E+00
  0.359163665771E+01  0.119528055191E+01 -0.902061402798E+00
  0.359163665771E+01  0.119528055191E+01  0.902061402798E+00
  0.376428389549E+01  0.339639574289E+00 -0.102348923683E+01
  0.376428389549E+01  0.339639574289E+00  0.102348923683E+01
  0.386280250549E+01  0.386280250549E+01  0.000000000000E+00
  0.392018008232E+01  0.234375929832E+01 -0.760520994663E+00
  0.392018008232E+01  0.234375929832E+01  0.760520994663E+00
  0.399592113495E+01  0.305185556412E+01 -0.604294061661E+00
  0.399592113495E+01  0.305185556412E+01  0.604294061661E+00
  0.401046848297E+01  0.386280250549E+01 -0.234920918941E+00
  0.401046848297E+01  0.386280250549E+01  0.234920918941E+00
  0.412459707260E+01  0.172824025154E+01 -0.902061522007E+00
  0.412459707260E+01  0.172824025154E+01  0.902061522007E+00
  0.416000986099E+01  0.735364913940E+00 -0.102348935604E+01
  0.416000986099E+01  0.735364913940E+00  0.102348935604E+01
  0.433626890182E+01  0.386280250549E+01 -0.436294436455E+00
  0.433626890182E+01  0.386280250549E+01  0.436294436455E+00
  0.461992597580E+01  0.119528055191E+01 -0.102348947525E+01
  0.461992597580E+01  0.119528055191E+01  0.102348947525E+01
  0.462827682495E+01  0.305185556412E+01 -0.760521173477E+00
  0.462827682495E+01  0.305185556412E+01  0.760521173477E+00
  0.466872262955E+01  0.000000000000E+00 -0.111146688461E+01
  0.466872262955E+01  0.000000000000E+00  0.111146688461E+01
  0.474011659622E+01  0.234375929832E+01 -0.902061700821E+00
  0.474011659622E+01  0.234375929832E+01  0.902061700821E+00
  0.478677463531E+01  0.478677463531E+01  0.000000000000E+00
  0.480686807632E+01  0.386280250549E+01 -0.604294240475E+00
  0.480686807632E+01  0.386280250549E+01  0.604294240475E+00
  0.493444061279E+01  0.478677463531E+01 -0.234920993447E+00
  0.493444061279E+01  0.478677463531E+01  0.234920993447E+00
  0.500836277008E+01  0.339639574289E+00 -0.111146700382E+01
  0.500836277008E+01  0.339639574289E+00  0.111146700382E+01
  0.515288639069E+01  0.172824025154E+01 -0.102348971367E+01
  0.515288639069E+01  0.172824025154E+01  0.102348971367E+01
  0.526024150848E+01  0.478677463531E+01 -0.436294555664E+00
  0.526024150848E+01  0.478677463531E+01  0.436294555664E+00
  0.540408849716E+01  0.735364913940E+00 -0.111146712303E+01
  0.540408849716E+01  0.735364913940E+00  0.111146712303E+01
  0.543922424316E+01  0.386280250549E+01 -0.760521352291E+00
  0.543922424316E+01  0.386280250549E+01  0.760521352291E+00
  0.544821310043E+01  0.305185556412E+01 -0.902061939240E+00
  0.544821310043E+01  0.305185556412E+01  0.902061939240E+00
  0.573084068298E+01  0.478677463531E+01 -0.604294419289E+00
  0.573084068298E+01  0.478677463531E+01  0.604294419289E+00
  0.576840591431E+01  0.234375929832E+01 -0.102348983288E+01
  0.576840591431E+01  0.234375929832E+01  0.102348983288E+01
  0.583337688446E+01  0.583337688446E+01  0.000000000000E+00
  0.586400508881E+01  0.119528055191E+01 -0.111146736145E+01
  0.586400508881E+01  0.119528055191E+01  0.111146736145E+01
  0.598104286194E+01  0.583337688446E+01 -0.234921067953E+00
  0.598104286194E+01  0.583337688446E+01  0.234921067953E+00
  0.611307668686E+01  0.000000000000E+00 -0.114008128643E+01
  0.611307668686E+01  0.000000000000E+00  0.114008128643E+01
  0.625916051865E+01  0.386280250549E+01 -0.902062177658E+00
  0.625916051865E+01  0.386280250549E+01  0.902062177658E+00
  0.630684375763E+01  0.583337688446E+01 -0.436294704676E+00
  0.630684375763E+01  0.583337688446E+01  0.436294704676E+00
  0.636319684982E+01  0.478677463531E+01 -0.760521590710E+00
  0.636319684982E+01  0.478677463531E+01  0.760521590710E+00
  0.639696550369E+01  0.172824025154E+01 -0.111146748066E+01
  0.639696550369E+01  0.172824025154E+01  0.111146748066E+01
  0.645271682739E+01  0.339639574289E+00 -0.114008140564E+01
  0.645271682739E+01  0.339639574289E+00  0.114008140564E+01
  0.647650289536E+01  0.305185556412E+01 -0.102349007130E+01
  0.647650289536E+01  0.305185556412E+01  0.102349007130E+01
  0.677744340897E+01  0.583337688446E+01 -0.604294598103E+00
  0.677744340897E+01  0.583337688446E+01  0.604294598103E+00
  0.684844303131E+01  0.735364913940E+00 -0.114008152485E+01
  0.684844303131E+01  0.735364913940E+00  0.114008152485E+01
  0.701104879379E+01  0.701104879379E+01  0.000000000000E+00
  0.701248550415E+01  0.234375929832E+01 -0.111146771908E+01
  0.701248550415E+01  0.234375929832E+01  0.111146771908E+01
  0.715871477127E+01  0.701104879379E+01 -0.234921157360E+00
  0.715871477127E+01  0.701104879379E+01  0.234921157360E+00
  0.718313360214E+01  0.478677463531E+01 -0.902062416077E+00
  0.718313360214E+01  0.478677463531E+01  0.902062416077E+00
  0.728745079041E+01  0.386280250549E+01 -0.102349042892E+01
  0.728745079041E+01  0.386280250549E+01  0.102349042892E+01
  0.730835962296E+01  0.119528055191E+01 -0.114008176327E+01
  0.730835962296E+01  0.119528055191E+01  0.114008176327E+01
  0.740979957581E+01  0.583337688446E+01 -0.760521829128E+00
  0.740979957581E+01  0.583337688446E+01  0.760521829128E+00
  0.748451566696E+01  0.701104879379E+01 -0.436294883490E+00
  0.748451566696E+01  0.701104879379E+01  0.436294883490E+00
  0.771254587173E+01  0.000000000000E+00 -0.108925735950E+01
  0.771254587173E+01  0.000000000000E+00  0.108925735950E+01
  0.772058296204E+01  0.305185556412E+01 -0.111146795750E+01
  0.772058296204E+01  0.305185556412E+01  0.111146795750E+01
  0.784132003784E+01  0.172824025154E+01 -0.114008188248E+01
  0.784132003784E+01  0.172824025154E+01  0.114008188248E+01
  0.795511531830E+01  0.701104879379E+01 -0.604294836521E+00
  0.795511531830E+01  0.701104879379E+01  0.604294836521E+00
  0.805218601227E+01  0.339639574289E+00 -0.108925747871E+01
  0.805218601227E+01  0.339639574289E+00  0.108925747871E+01
  0.821142387390E+01  0.478677463531E+01 -0.102349066734E+01
  0.821142387390E+01  0.478677463531E+01  0.102349066734E+01
[...]
CELL_DATA                3576
SCALARS C_p_inc float 1
LOOKUP_TABLE default
  0.197998636293E+00
  0.170001121031E+00
  0.142511220692E+00
  0.121647230149E+00
  0.113650754950E+00
  0.102111117088E+00
  0.949012400554E-01
  0.882114054865E-01
  0.807752301721E-01
  0.761180443078E-01
  0.682137480381E-01
  0.645828464521E-01
  0.558093433623E-01
  0.525694941312E-01
  0.428177223900E-01
  0.397486203090E-01
  0.298347673453E-01
  0.270604538875E-01
  0.212282574245E-01
  0.199140958974E-01
  0.220944698049E-01
  0.212180625053E-01
  0.396418333346E-01
  0.343769636666E-01
  0.913725454055E-01
  0.764318697659E-01
  0.164497476048E+00
  0.144246553105E+00
  0.242563828836E+00
  0.218958573919E+00
  0.327372336940E+00
  0.298216950834E+00
  0.429059434306E+00
  0.393419963056E+00
  0.555323381820E+00
  0.519412704104E+00
  0.714191950321E+00
  0.707344605979E+00
  0.766241319554E+00
  0.726460010656E+00
  0.552698178538E-01
  0.307560563732E+00
 -0.424672499549E+00
 -0.122534005260E+00
 -0.503228031779E+00
 -0.339863211068E+00
 -0.498650417868E+00
 -0.416938278449E+00
 -0.504631036751E+00
 -0.462913762480E+00
 -0.514186694477E+00
 -0.490628403357E+00
 -0.531775363798E+00
 -0.515930759293E+00
 -0.544494635604E+00
 -0.538029597501E+00
 -0.522231823999E+00
 -0.530251473771E+00
 -0.466303916116E+00
 -0.478487512569E+00
 -0.415349540309E+00
 -0.402344180146E+00
 -0.349363586108E+00
 -0.335327218917E+00
 -0.284465609421E+00
 -0.270513153658E+00
 -0.226514191642E+00
 -0.212223579434E+00
 -0.175065433543E+00
 -0.159546712819E+00
 -0.128288235032E+00
 -0.110038824113E+00
 -0.836761294181E-01
 -0.604799019118E-01
 -0.384147224355E-01
 -0.540628540266E-02
  0.140895196020E-01
  0.638730239482E-01
  0.106979983949E+00
  0.165248048308E+00
  0.195251287992E+00
  0.196351197165E+00
  0.145893762165E+00
  0.142233835056E+00
  0.122763467633E+00
  0.113591247982E+00
  0.102481846566E+00
  0.948822650069E-01
  0.860666773419E-01
  0.807688900759E-01
  0.721589852367E-01
  0.682148805324E-01
  0.590265956369E-01
  0.558169756089E-01
  0.455330320875E-01
  0.428294692782E-01
  0.318385209235E-01
  0.298352462419E-01
  0.216656765490E-01
  0.211657938630E-01
  0.211288965292E-01
  0.191263324910E-01
  0.344107952724E-01
  0.279663881213E-01
  0.769169499771E-01
  0.638501333070E-01
  0.144613270002E+00
  0.128012609332E+00
  0.218377385785E+00
  0.200899835333E+00
  0.295259603534E+00
  0.278335864806E+00
  0.383552494878E+00
  0.370076487584E+00
  0.490023529366E+00
  0.484663048359E+00
  0.619785849639E+00
  0.618602381542E+00
  0.586953835321E+00
  0.523169240668E+00
 -0.166747211568E+00
 -0.316916376067E-01
 -0.574970468742E+00
 -0.403889118792E+00
 -0.618744644396E+00
 -0.489409011984E+00
 -0.578504096520E+00
 -0.495381794034E+00
 -0.557129791592E+00
 -0.505174809782E+00
 -0.548141758754E+00
 -0.515656292094E+00
 -0.553684589126E+00
 -0.533496595666E+00
 -0.555185171339E+00
 -0.546840017442E+00
 -0.520377600935E+00
 -0.524777669017E+00
 -0.457447056570E+00
 -0.468036084472E+00
 -0.402257966932E+00
 -0.390889151109E+00
 -0.335120722007E+00
 -0.321954349780E+00
 -0.270346475737E+00
 -0.256180021497E+00
 -0.212117089723E+00
 -0.196766158608E+00
 -0.159491677433E+00
 -0.142104706868E+00
 -0.110029589208E+00
 -0.891719488485E-01
 -0.605310807431E-01
 -0.344847039181E-01
 -0.561084924404E-02
  0.241550069366E-01
  0.629743245235E-01
  0.841365739225E-01
  0.160889934285E+00
  0.165077028347E+00
  0.186195012807E+00
  0.194316540634E+00
  0.143397541094E+00
  0.145513882266E+00
  0.124856569981E+00
  0.122587647562E+00
  0.107841580812E+00
  0.102419529957E+00
  0.913930721524E-01
  0.860448145747E-01
  0.763833213849E-01
  0.721549246185E-01
  0.623779946460E-01
  0.590344667968E-01
  0.482202173755E-01
  0.455494093375E-01
  0.337014945009E-01
  0.318463234926E-01
  0.220257939233E-01
  0.216058592370E-01
  0.191300269563E-01
  0.171194550163E-01
  0.283164106647E-01
  0.224737054023E-01
  0.646545802089E-01
  0.539994091407E-01
  0.128288231145E+00
  0.114941684180E+00
  0.199549404006E+00
  0.186397697346E+00
  0.273997784377E+00
  0.263250682466E+00
  0.360004896559E+00
  0.353965345737E+00
  0.464754239866E+00
  0.464729129651E+00
  0.585440977593E+00
  0.581748905291E+00
  0.495316767064E+00
  0.432303312987E+00
 -0.322139674449E+00
 -0.205886083431E+00
 -0.706150145057E+00
 -0.564354134821E+00
 -0.717282035501E+00
 -0.604360473696E+00
 -0.649675356615E+00
 -0.570439324243E+00
 -0.607826903362E+00
 -0.553542606804E+00
 -0.583297351645E+00
 -0.547161892237E+00
 -0.576642493768E+00
 -0.554379142095E+00
 -0.566498491671E+00
 -0.557618104251E+00
 -0.520658602232E+00
 -0.523841656710E+00
 -0.450277182828E+00
 -0.460398733121E+00
 -0.390802654042E+00
 -0.379863635958E+00
 -0.321678012192E+00
 -0.308490510819E+00
 -0.255939926991E+00
 -0.241155003625E+00
 -0.196605831357E+00
 -0.180062816463E+00
 -0.142023231623E+00
 -0.123033655921E+00
 -0.891817347037E-01
 -0.672725089878E-01
 -0.346610229213E-01
 -0.119475660657E-01
  0.235622419288E-01
  0.409520213178E-01
  0.827994468105E-01
  0.926473147702E-01
  0.162724707802E+00
  0.171316329318E+00
  0.188415091596E+00
  0.185919037155E+00
  0.142004419508E+00
  0.143119938269E+00
  0.124254951445E+00
  0.124658343238E+00
  0.109732577455E+00
  0.107731353712E+00
  0.952806364480E-01
  0.913465141812E-01
  0.804472208925E-01
  0.763704647669E-01
  0.658109995848E-01
  0.623844833754E-01
  0.509470112587E-01
  0.482390506781E-01
  0.355729795728E-01
  0.337149143814E-01
  0.225179538046E-01
  0.219808265386E-01
  0.171557115559E-01
  0.155036162749E-01
  0.228441995757E-01
  0.180124865196E-01
  0.546575793313E-01
  0.463032835780E-01
  0.114961843613E+00
  0.104686448457E+00
  0.184765541893E+00
  0.175201772338E+00
  0.259012433119E+00
  0.252335838493E+00
  0.345735616140E+00
  0.343550729470E+00
  0.451180541649E+00
  0.453093188504E+00
  0.563759734712E+00
  0.558488720607E+00
  0.423204162101E+00
  0.361963325372E+00
 -0.455566821735E+00
 -0.346878855914E+00
 -0.823575544247E+00
 -0.697151800889E+00
 -0.806917490582E+00
 -0.704665745245E+00
 -0.716217169138E+00
 -0.641311936285E+00
 -0.657112979320E+00
 -0.603230094128E+00
 -0.618596693803E+00
 -0.581567862996E+00
 -0.599995810493E+00
 -0.577214864869E+00
 -0.578357531890E+00
 -0.569299175322E+00
 -0.522097452471E+00
 -0.524685107003E+00
 -0.444045447444E+00
 -0.453992432515E+00
 -0.379912012065E+00
 -0.369087231894E+00
 -0.308229199412E+00
 -0.294813880293E+00
 -0.240881228539E+00
 -0.225431848488E+00
 -0.179864129170E+00
 -0.162374308047E+00
 -0.122938062840E+00
 -0.103504584718E+00
 -0.673313522610E-01
 -0.477254991562E-01
 -0.122776835994E-01
  0.357184408710E-02
  0.402318607684E-01
  0.502462919387E-01
  0.914627838264E-01
  0.960934612969E-01
  0.168959706360E+00
  0.165572966755E+00
  0.186141264038E+00
  0.187861191330E+00
  0.140984462539E+00
  0.141763299949E+00
  0.123471788619E+00
  0.124081472120E+00
  0.109873831590E+00
  0.109609690018E+00
  0.971202161397E-01
  0.952096744095E-01
  0.835644405198E-01
  0.804200708587E-01
  0.690508157043E-01
  0.658128636703E-01
  0.536854942622E-01
  0.509670823040E-01
  0.375224418838E-01
  0.355939339957E-01
  0.232518943804E-01
  0.224962546506E-01
  0.155386628472E-01
  0.144556243976E-01
  0.183223797957E-01
  0.146964208600E-01
  0.467819611410E-01
  0.406402468838E-01
  0.104560810999E+00
  0.972518539975E-01
  0.173634674846E+00
  0.167229970914E+00
  0.248699879442E+00
  0.245058530032E+00
  0.337211447827E+00
  0.337411262898E+00
  0.443842275773E+00
  0.446647207879E+00
  0.548324828369E+00
  0.542068666087E+00
  0.360629366553E+00
  0.300972470447E+00
 -0.577334322912E+00
 -0.472476530376E+00
 -0.932436191354E+00
 -0.815708494939E+00
 -0.890527426658E+00
 -0.796142632956E+00
 -0.779014788997E+00
 -0.708558327432E+00
 -0.704381475426E+00
 -0.652585646480E+00
 -0.652836158296E+00
 -0.616879518659E+00
 -0.622765256761E+00
 -0.600824746298E+00
 -0.590331112239E+00
 -0.581564024230E+00
 -0.524142728324E+00
 -0.526579302913E+00
 -0.438369999490E+00
 -0.448332704705E+00
 -0.369320026951E+00
 -0.358452552942E+00
 -0.294616236334E+00
 -0.280919117742E+00
 -0.225159038964E+00
 -0.209240995819E+00
 -0.162162850679E+00
 -0.144558184332E+00
 -0.103423092424E+00
 -0.856313652044E-01
 -0.478475776393E-01
 -0.327530773201E-01
  0.319713718290E-02
  0.136548610695E-01
  0.496189870320E-01
  0.557395084754E-01
  0.952270122862E-01
  0.982580281948E-01
  0.164580047311E+00
  0.166584682286E+00
  0.186266648597E+00
  0.185788908867E+00
  0.140257300724E+00
  0.140759529552E+00
  0.122671800105E+00
  0.123308065009E+00
  0.109446132888E+00
  0.109753629831E+00
  0.976021089189E-01
  0.970378411155E-01
  0.853236201154E-01
  0.835216308755E-01
  0.716396172671E-01
  0.690438104057E-01
  0.562724869727E-01
  0.537046050889E-01
  0.395524834485E-01
  0.375518027717E-01
  0.242968661253E-01
  0.232578922032E-01
  0.144774627839E-01
  0.140913698007E-01
  0.149261011708E-01
  0.126157666729E-01
  0.409624197732E-01
  0.369380736397E-01
  0.970649763594E-01
  0.924616986185E-01
  0.165906425056E+00
  0.162290796293E+00
  0.242199221635E+00
  0.241014483275E+00
  0.332769619294E+00
  0.334667485785E+00
  0.440485982718E+00
  0.443784475945E+00
  0.536650244463E+00
  0.529721388838E+00
  0.303630898166E+00
  0.245320684842E+00
 -0.691562578184E+00
 -0.589255101080E+00
 -0.103501636778E+01
 -0.925588359592E+00
 -0.969226551071E+00
 -0.881562226236E+00
 -0.838176586720E+00
 -0.772533286739E+00
 -0.749049908857E+00
 -0.700567688637E+00
 -0.685243222981E+00
 -0.651641646551E+00
 -0.644358467959E+00
 -0.624074316220E+00
 -0.601867382191E+00
 -0.593926567492E+00
 -0.526269549493E+00
 -0.528979647469E+00
 -0.432923674635E+00
 -0.443063952118E+00
 -0.358867687677E+00
 -0.347879578152E+00
 -0.280804947009E+00
 -0.266954317066E+00
 -0.208993827133E+00
 -0.193204012069E+00
 -0.144362897726E+00
 -0.128056260892E+00
 -0.855862451541E-01
 -0.710710913706E-01
 -0.328986458444E-01
 -0.220123889520E-01
  0.133406836869E-01
  0.205464948212E-01
  0.552945017330E-01
  0.597130118471E-01
  0.976966709966E-01
  0.100034100394E+00
  0.165736501634E+00
  0.165684375834E+00
  0.184853539639E+00
  0.185870907579E+00
  0.139430810071E+00
  0.140042994842E+00
  0.121929402064E+00
  0.122515009953E+00
  0.108856660925E+00
  0.109327848929E+00
  0.974490053050E-01
  0.975156733145E-01
  0.860008711924E-01
  0.852694463927E-01
  0.732818403913E-01
  0.716207931423E-01
  0.584280738873E-01
  0.562868073242E-01
  0.415643428104E-01
  0.395883443597E-01
  0.256547436053E-01
  0.243293201503E-01
  0.140977767430E-01
  0.144427496211E-01
  0.127659753730E-01
  0.117786089004E-01
  0.371351867739E-01
  0.350771877035E-01
  0.922715712129E-01
  0.900569654544E-01
  0.161280122760E+00
  0.160084071582E+00
  0.238947981549E+00
  0.239812022988E+00
  0.331503604146E+00
  0.334720282073E+00
  0.439985303389E+00
  0.443592743876E+00
  0.527534156604E+00
  0.520091292579E+00
  0.250361139496E+00
  0.193294700379E+00
 -0.799851631858E+00
 -0.700014502738E+00
 -0.113202850512E+01
 -0.102918799881E+01
 -0.104319142538E+01
 -0.962042701388E+00
 -0.893446548220E+00
 -0.833103335524E+00
 -0.790598398382E+00
 -0.746284895309E+00
 -0.715266473372E+00
 -0.684832373273E+00
 -0.664321233895E+00
 -0.646248122979E+00
 -0.612494276404E+00
 -0.605842372075E+00
 -0.528061880841E+00
 -0.531371925411E+00
 -0.427482471955E+00
 -0.437862362815E+00
 -0.348441368687E+00
 -0.337405210038E+00
 -0.266923444153E+00
 -0.253345700329E+00
 -0.193003500946E+00
 -0.178343927888E+00
 -0.127905219060E+00
 -0.114166739888E+00
 -0.710589643165E-01
 -0.600293001262E-01
 -0.221335808760E-01
 -0.142595250075E-01
  0.203330830010E-01
  0.256286533939E-01
  0.594366844063E-01
  0.629111269956E-01
  0.997107877103E-01
  0.102032909487E+00
  0.165327138529E+00
  0.167277931860E+00
  0.184478596285E+00
  0.184543099307E+00
  0.138889436691E+00
  0.139231271319E+00
  0.121308737368E+00
  0.121776371414E+00
  0.108267190959E+00
  0.108738411324E+00
  0.970567966379E-01
  0.973594736472E-01
  0.860675292977E-01
  0.859391086139E-01
  0.740790785892E-01
  0.732514280446E-01
  0.599399200126E-01
  0.584334386225E-01
  0.433686235212E-01
  0.416018461739E-01
  0.272328623731E-01
  0.257074141577E-01
  0.144389394741E-01
  0.154496917298E-01
  0.118633975518E-01
  0.121000483586E-01
  0.351837468676E-01
  0.348788927287E-01
  0.898983133351E-01
  0.897329666543E-01
  0.159388084936E+00
  0.160222635236E+00
  0.238466535734E+00
  0.241015519473E+00
  0.332804084597E+00
  0.337059401286E+00
  0.441654881785E+00
  0.445448345578E+00
  0.520271939095E+00
  0.512410604266E+00
  0.199906849384E+00
  0.144171020840E+00
 -0.902554010831E+00
 -0.805777410648E+00
 -0.122335338307E+01
 -0.112724564072E+01
 -0.111214201493E+01
 -0.103773236274E+01
 -0.944451831203E+00
 -0.889840509455E+00
 -0.828609511769E+00
 -0.788989218212E+00
 -0.742511237524E+00
 -0.715709302390E+00
 -0.682269152987E+00
 -0.666790565838E+00
 -0.621836594585E+00
 -0.616795180304E+00
 -0.529245374496E+00
 -0.533309015876E+00
 -0.421989323736E+00
 -0.432477302577E+00
 -0.338060698474E+00
 -0.327292008892E+00
 -0.253391059140E+00
 -0.240819382922E+00
 -0.178211004025E+00
 -0.165673535301E+00
 -0.114073337900E+00
 -0.103322855278E+00
 -0.600317772176E-01
 -0.518551382707E-01
 -0.143341960357E-01
 -0.850331576534E-02
  0.255150660429E-01
  0.295898841806E-01
  0.627777338912E-01
  0.656143292559E-01
  0.101881669103E+00
  0.103808711506E+00
  0.167057314808E+00
  0.168144130073E+00
  0.184553119402E+00
  0.184169244239E+00
  0.138682852207E+00
  0.138696405773E+00
  0.120927858520E+00
  0.121158282301E+00
  0.107809547890E+00
  0.108147839999E+00
  0.966423498893E-01
  0.969635566834E-01
  0.858749454899E-01
  0.859993784535E-01
  0.743425340310E-01
  0.740387012560E-01
  0.608324398347E-01
  0.599340188569E-01
  0.447984263766E-01
  0.434015038453E-01
  0.288580809501E-01
  0.272961586399E-01
  0.154447489059E-01
  0.169583202417E-01
  0.121399809021E-01
  0.134007991879E-01
  0.349270681691E-01
  0.360919959311E-01
  0.896225910611E-01
  0.911407076536E-01
  0.159806828116E+00
  0.162274080757E+00
  0.240274063155E+00
  0.244146395274E+00
  0.336149793132E+00
  0.341177973252E+00
  0.444959722739E+00
  0.448822534444E+00
  0.514346704903E+00
  0.506157775546E+00
  0.151818358894E+00
  0.977048244023E-01
 -0.999387778467E+00
 -0.906616734119E+00
 -0.130849407077E+01
 -0.121961338288E+01
 -0.117564295043E+01
 -0.110828554046E+01
 -0.990838821889E+00
 -0.942232773532E+00
 -0.862773522423E+00
 -0.828100425940E+00
 -0.766699724020E+00
 -0.743746139221E+00
 -0.697938910972E+00
 -0.685233698737E+00
 -0.629679486771E+00
 -0.626343831752E+00
 -0.529745474138E+00
 -0.534462334339E+00
 -0.416622459006E+00
 -0.426810212432E+00
 -0.327989628977E+00
 -0.318050114429E+00
 -0.240937708551E+00
 -0.230145052223E+00
 -0.165621317936E+00
 -0.155673209278E+00
 -0.103282554476E+00
 -0.952227814049E-01
 -0.518584740422E-01
 -0.458237323466E-01
 -0.853061116992E-02
 -0.416190503596E-02
  0.295586330564E-01
  0.326861597990E-01
  0.655892422629E-01
  0.678001565617E-01
  0.103793818408E+00
  0.105278100739E+00
  0.168144451101E+00
  0.168901580075E+00
  0.184395274282E+00
  0.184231144670E+00
  0.138523883126E+00
  0.138484323698E+00
  0.120682192219E+00
  0.120773679726E+00
  0.107492317587E+00
  0.107686359893E+00
  0.963090194850E-01
  0.965442840382E-01
  0.856328342179E-01
  0.858004033500E-01
  0.743597370877E-01
  0.742933358253E-01
  0.613041723977E-01
  0.608151068981E-01
  0.458305729237E-01
  0.448216467890E-01
  0.303601811098E-01
  0.289215362757E-01
  0.169604438520E-01
  0.187485700247E-01
  0.134167052961E-01
  0.154194825857E-01
  0.361082276640E-01
  0.383948081510E-01
  0.910818118865E-01
  0.938872636870E-01
  0.162086307090E+00
  0.165780285310E+00
  0.243875574229E+00
  0.248705500465E+00
  0.341033264151E+00
  0.346562434900E+00
  0.449407699276E+00
  0.453218475885E+00
  0.509326407950E+00
  0.500927395795E+00
  0.105924487695E+00
  0.539049041013E-01
 -0.108978502649E+01
 -0.100209369610E+01
 -0.138685184242E+01
 -0.130573854006E+01
 -0.123327555611E+01
 -0.117319309104E+01
 -0.103234761392E+01
 -0.989823077375E+00
 -0.892911813761E+00
 -0.863199180671E+00
 -0.787704248947E+00
 -0.768570399122E+00
 -0.711249675140E+00
 -0.701234585211E+00
 -0.636031343647E+00
 -0.634202159591E+00
 -0.529735332550E+00
 -0.534704148481E+00
 -0.411779896449E+00
 -0.421018648662E+00
 -0.318755304051E+00
 -0.310257665729E+00
 -0.230335590348E+00
 -0.221755849832E+00
 -0.155699317915E+00
 -0.148228800276E+00
 -0.952238876986E-01
 -0.893229224077E-01
 -0.458232631677E-01
 -0.413907078927E-01
 -0.415035556659E-02
 -0.879281956917E-03
  0.327196049635E-01
  0.351344014284E-01
  0.678636465468E-01
  0.696626232852E-01
  0.105381548892E+00
  0.106743543939E+00
  0.169083338674E+00
  0.170170965362E+00
  0.184442599611E+00
  0.184082292802E+00
  0.138484144520E+00
  0.138322794945E+00
  0.120549900837E+00
  0.120523049013E+00
  0.107290234825E+00
  0.107363449355E+00
  0.960760079244E-01
  0.962048604498E-01
  0.854367248536E-01
  0.855514887293E-01
  0.743136438228E-01
  0.743022752107E-01
  0.615691416462E-01
  0.612761751188E-01
  0.465724860564E-01
  0.458417802512E-01
  0.316640424523E-01
  0.304153620497E-01
  0.187608155461E-01
  0.206079547178E-01
  0.154274652855E-01
  0.178536373277E-01
  0.383977368139E-01
  0.414180415706E-01
  0.938728173211E-01
  0.975472453155E-01
  0.165760692033E+00
  0.170269744552E+00
  0.248771304883E+00
  0.254192353164E+00
  0.346952614911E+00
  0.352709704058E+00
  0.454530410643E+00
  0.458170790944E+00
  0.504851463251E+00
  0.496394758378E+00
  0.622590057531E-01
  0.129188087098E-01
 -0.117311237513E+01
 -0.109153145875E+01
 -0.145791027332E+01
 -0.138496319176E+01
 -0.128475609717E+01
 -0.123197454503E+01
 -0.106887749056E+01
 -0.103227983884E+01
 -0.919028151362E+00
 -0.894032053654E+00
 -0.805599198723E+00
 -0.789983063546E+00
 -0.722350283437E+00
 -0.714646748752E+00
 -0.641143897358E+00
 -0.640327068593E+00
 -0.529590310400E+00
 -0.534191833575E+00
 -0.407901655273E+00
 -0.415544469269E+00
 -0.310955337091E+00
 -0.304272110220E+00
 -0.222011973910E+00
 -0.215622178326E+00
 -0.148319588430E+00
 -0.142920865521E+00
 -0.893549087737E-01
 -0.851078632654E-01
 -0.413873829294E-01
 -0.381494315526E-01
 -0.839816897063E-03
  0.161697840180E-02
  0.352145345424E-01
  0.370968105713E-01
  0.697885728101E-01
  0.712511788213E-01
  0.106923306117E+00
  0.108070138864E+00
  0.170444922095E+00
  0.171347087409E+00
  0.184666882895E+00
  0.184126222883E+00
  0.138563518070E+00
  0.138278616167E+00
  0.120525949237E+00
  0.120385453188E+00
  0.107193899622E+00
  0.107155377041E+00
  0.959414227802E-01
  0.959653569123E-01
  0.853164607246E-01
  0.853483820372E-01
  0.742909603249E-01
  0.742482830067E-01
  0.617701636780E-01
  0.615314126588E-01
  0.471593964603E-01
  0.465714829472E-01
  0.327934211050E-01
  0.317062558206E-01
  0.206274379119E-01
  0.224023714533E-01
  0.178621780033E-01
  0.204297856606E-01
  0.414179067068E-01
  0.447940411466E-01
  0.975635072920E-01
  0.101695414662E+00
  0.170357488024E+00
  0.175281028941E+00
  0.254469143607E+00
  0.260128277731E+00
  0.353425602643E+00
  0.359151075326E+00
  0.459896795951E+00
  0.463264026401E+00
  0.500644421515E+00
  0.492309129127E+00
  0.210035939077E-01
 -0.250509797458E-01
 -0.124884206715E+01
 -0.117420837652E+01
 -0.152138036282E+01
 -0.145672258540E+01
 -0.133003900605E+01
 -0.128430523010E+01
 -0.110054960887E+01
 -0.106945957619E+01
 -0.941350831206E+00
 -0.920558887680E+00
 -0.820682732382E+00
 -0.808018465201E+00
 -0.731603231177E+00
 -0.725591667114E+00
 -0.645433968673E+00
 -0.644973537813E+00
 -0.529715687625E+00
 -0.533358013346E+00
 -0.405239851852E+00
 -0.410941851279E+00
 -0.304956846172E+00
 -0.300098351021E+00
 -0.215929574846E+00
 -0.211413056990E+00
 -0.143059835261E+00
 -0.139270579671E+00
 -0.851632052117E-01
 -0.821488586939E-01