# vtk DataFile Version 3.0
TriPan results file. Generated by TriPan, USU AeroLab (c) 2021.
ASCII
DATASET POLYDATA
POINTS                  40 float
  0.190003013611E+02  0.000000000000E+00  0.000000000000E+00
  0.100000000000E+03  0.000000000000E+00  0.000000000000E+00
  0.197581977844E+02  0.757896304131E+00  0.000000000000E+00
  0.100000000000E+03  0.757896304131E+00  0.000000000000E+00
  0.207892742157E+02  0.178897356987E+01  0.000000000000E+00
  0.100000000000E+03  0.178897356987E+01  0.000000000000E+00
  0.221730995178E+02  0.317279767990E+01  0.000000000000E+00
  0.100000000000E+03  0.317279767990E+01  0.000000000000E+00
  0.239969177246E+02  0.499661636353E+01  0.000000000000E+00
  0.100000000000E+03  0.499661636353E+01  0.000000000000E+00
  0.263439254761E+02  0.734362459183E+01  0.000000000000E+00
  0.100000000000E+03  0.734362459183E+01  0.000000000000E+00
  0.292731380463E+02  0.102728376389E+02  0.000000000000E+00
  0.100000000000E+03  0.102728376389E+02  0.000000000000E+00
  0.327924232483E+02  0.137921218872E+02  0.000000000000E+00
  0.100000000000E+03  0.137921218872E+02  0.000000000000E+00
  0.368323059082E+02  0.178320064545E+02  0.000000000000E+00
  0.100000000000E+03  0.178320064545E+02  0.000000000000E+00
  0.412342338562E+02  0.222339305878E+02  0.000000000000E+00
  0.100000000000E+03  0.222339305878E+02  0.000000000000E+00
  0.457663688660E+02  0.267660694122E+02  0.000000000000E+00
  0.100000000000E+03  0.267660694122E+02  0.000000000000E+00
  0.501682968140E+02  0.311679935455E+02  0.000000000000E+00
  0.100000000000E+03  0.311679935455E+02  0.000000000000E+00
  0.542081794739E+02  0.352078781128E+02  0.000000000000E+00
  0.100000000000E+03  0.352078781128E+02  0.000000000000E+00
  0.577274627686E+02  0.387271614075E+02  0.000000000000E+00
  0.100000000000E+03  0.387271614075E+02  0.000000000000E+00
  0.606566772461E+02  0.416563758850E+02  0.000000000000E+00
  0.100000000000E+03  0.416563758850E+02  0.000000000000E+00
  0.630036849976E+02  0.440033836365E+02  0.000000000000E+00
  0.100000000000E+03  0.440033836365E+02  0.000000000000E+00
  0.648275070190E+02  0.458272018433E+02  0.000000000000E+00
  0.100000000000E+03  0.458272018433E+02  0.000000000000E+00
  0.662113265991E+02  0.472110252380E+02  0.000000000000E+00
  0.100000000000E+03  0.472110252380E+02  0.000000000000E+00
  0.672424011230E+02  0.482421035767E+02  0.000000000000E+00
  0.100000000000E+03  0.482421035767E+02  0.000000000000E+00
  0.680002975464E+02  0.490000000000E+02  0.000000000000E+00
  0.100000000000E+03  0.490000000000E+02  0.000000000000E+00
POLYGONS                  38                 152
3                   0                   1                   3
3                   0                   3                   2
3                   2                   3                   5
3                   2                   5                   4
3                   4                   5                   7
3                   4                   7                   6
3                   6                   7                   9
3                   6                   9                   8
3                   8                   9                  11
3                   8                  11                  10
3                  10                  11                  13
3                  10                  13                  12
3                  12                  13                  15
3                  12                  15                  14
3                  14                  15                  17
3                  14                  17                  16
3                  16                  17                  19
3                  16                  19                  18
3                  18                  19                  21
3                  18                  21                  20
3                  20                  21                  23
3                  20                  23                  22
3                  22                  23                  25
3                  22                  25                  24
3                  24                  25                  27
3                  24                  27                  26
3                  26                  27                  29
3                  26                  29                  28
3                  28                  29                  31
3                  28                  31                  30
3                  30                  31                  33
3                  30                  33                  32
3                  32                  33                  35
3                  32                  35                  34
3                  34                  35                  37
3                  34                  37                  36
3                  36                  37                  39
3                  36                  39                  38
POINT_DATA                  40
SCALARS mu float 1
LOOKUP_TABLE default
 -0.398152799196E-03
 -0.398152799196E-03
 -0.113491460674E-04
 -0.113491460674E-04
 -0.150391115668E-04
 -0.150391115668E-04
  0.143509899786E-05
  0.143509899786E-05
  0.484244093713E-06
  0.484244093713E-06
  0.128773701213E-04
  0.128773701213E-04
  0.123112392139E-04
  0.123112392139E-04
  0.166053407469E-05
  0.166053407469E-05
  0.545003781127E-05
  0.545003781127E-05
  0.577558514436E-05
  0.577558514436E-05
  0.820825936643E-05
  0.820825936643E-05
  0.571687410655E-05
  0.571687410655E-05
  0.544210642062E-05
  0.544210642062E-05
  0.411940838774E-05
  0.411940838774E-05
  0.321641880419E-05
  0.321641880419E-05
  0.269684843346E-05
  0.269684843346E-05
  0.195972333472E-06
  0.195972333472E-06
  0.591938621142E-05
  0.591938621142E-05
 -0.113442628560E-02
 -0.113442628560E-02
  0.000000000000E+00
  0.000000000000E+00
