# vtk DataFile Version 3.0
TriPan results file. Generated by TriPan, USU AeroLab (c) 2021.
ASCII
DATASET POLYDATA
POINTS                 144 float
  0.000000000000E+00  0.000000000000E+00  0.000000000000E+00
  0.113538098335E+01  0.000000000000E+00 -0.658124566078E+00
  0.113538098335E+01  0.000000000000E+00  0.658124566078E+00
  0.192375373840E+01  0.192375373840E+01  0.000000000000E+00
  0.305913543701E+01  0.192375373840E+01 -0.658124983311E+00
  0.305913543701E+01  0.192375373840E+01  0.658124983311E+00
  0.423028087616E+01  0.000000000000E+00 -0.108747220039E+01
  0.423028087616E+01  0.000000000000E+00  0.108747220039E+01
  0.547033166885E+01  0.547033166885E+01  0.000000000000E+00
  0.615403699875E+01  0.192375373840E+01 -0.108747279644E+01
  0.615403699875E+01  0.192375373840E+01  0.108747279644E+01
  0.660571479797E+01  0.547033166885E+01 -0.658125698566E+00
  0.660571479797E+01  0.547033166885E+01  0.658125698566E+00
  0.939508819580E+01  0.000000000000E+00 -0.980745851994E+00
  0.939508819580E+01  0.000000000000E+00  0.980745851994E+00
  0.970061969757E+01  0.547033166885E+01 -0.108747410774E+01
  0.970061969757E+01  0.547033166885E+01  0.108747410774E+01
  0.113188476562E+02  0.192375373840E+01 -0.980746448040E+00
  0.113188476562E+02  0.192375373840E+01  0.980746448040E+00
  0.113820018768E+02  0.113820018768E+02  0.000000000000E+00
  0.125173873901E+02  0.113820018768E+02 -0.658127009869E+00
  0.125173873901E+02  0.113820018768E+02  0.658127009869E+00
  0.145402030945E+02  0.000000000000E+00 -0.479613035917E+00
  0.145402030945E+02  0.000000000000E+00  0.479613035917E+00
  0.148654365540E+02  0.547033166885E+01 -0.980747580528E+00
  0.148654365540E+02  0.547033166885E+01  0.980747580528E+00
  0.156122989655E+02  0.113820018768E+02 -0.108747613430E+01
  0.156122989655E+02  0.113820018768E+02  0.108747613430E+01
  0.164639663696E+02  0.192375373840E+01 -0.479613333941E+00
  0.164639663696E+02  0.192375373840E+01  0.479613333941E+00
  0.176505107880E+02  0.000000000000E+00 -0.144198849797E+00
  0.176505107880E+02  0.000000000000E+00  0.144198849797E+00
  0.190000000000E+02  0.000000000000E+00  0.000000000000E+00
  0.195742740631E+02  0.192375373840E+01 -0.144198939204E+00
  0.195742740631E+02  0.192375373840E+01  0.144198939204E+00
  0.197561950684E+02  0.197561950684E+02  0.000000000000E+00
  0.200105609894E+02  0.547033166885E+01 -0.479613870382E+00
  0.200105609894E+02  0.547033166885E+01  0.479613870382E+00
  0.207771244049E+02  0.113820018768E+02 -0.980749428272E+00
  0.207771244049E+02  0.113820018768E+02  0.980749428272E+00
  0.208915824890E+02  0.197561950684E+02 -0.658128738403E+00
  0.208915824890E+02  0.197561950684E+02  0.658128738403E+00
  0.209237651825E+02  0.192375373840E+01  0.000000000000E+00
  0.231208724976E+02  0.547033166885E+01 -0.144199103117E+00
  0.231208724976E+02  0.547033166885E+01  0.144199103117E+00
  0.239865016937E+02  0.197561950684E+02 -0.108747911453E+01
  0.239865016937E+02  0.197561950684E+02  0.108747911453E+01
  0.244703655243E+02  0.547033166885E+01  0.000000000000E+00
  0.259222583771E+02  0.113820018768E+02 -0.479614794254E+00
  0.259222583771E+02  0.113820018768E+02  0.479614794254E+00
  0.290325775146E+02  0.113820018768E+02 -0.144199386239E+00
  0.290325775146E+02  0.113820018768E+02  0.144199386239E+00
  0.291513423920E+02  0.197561950684E+02 -0.980752110481E+00
  0.291513423920E+02  0.197561950684E+02  0.980752110481E+00
  0.292438049316E+02  0.292438049316E+02  0.000000000000E+00
  0.303791980743E+02  0.292438049316E+02 -0.658130764961E+00
  0.303791980743E+02  0.292438049316E+02  0.658130764961E+00
  0.303820724487E+02  0.113820018768E+02  0.000000000000E+00
  0.334741249084E+02  0.292438049316E+02 -0.108748245239E+01
  0.334741249084E+02  0.292438049316E+02  0.108748245239E+01
  0.342964897156E+02  0.197561950684E+02 -0.479616105556E+00
  0.342964897156E+02  0.197561950684E+02  0.479616105556E+00
  0.374068183899E+02  0.197561950684E+02 -0.144199773669E+00
  0.374068183899E+02  0.197561950684E+02  0.144199773669E+00
  0.376179962158E+02  0.376179962158E+02  0.000000000000E+00
  0.386389808655E+02  0.292438049316E+02 -0.980755090714E+00
  0.386389808655E+02  0.292438049316E+02  0.980755090714E+00
  0.387533912659E+02  0.376179962158E+02 -0.658132553101E+00
  0.387533912659E+02  0.376179962158E+02  0.658132553101E+00
  0.387563171387E+02  0.197561950684E+02  0.000000000000E+00
  0.418483314514E+02  0.376179962158E+02 -0.108748543262E+01
  0.418483314514E+02  0.376179962158E+02  0.108748543262E+01
  0.435296669006E+02  0.435296669006E+02  0.000000000000E+00
  0.437841453552E+02  0.292438049316E+02 -0.479617565870E+00
  0.437841453552E+02  0.292438049316E+02  0.479617565870E+00
  0.446650657654E+02  0.435296669006E+02 -0.658133804798E+00
  0.446650657654E+02  0.435296669006E+02  0.658133804798E+00
  0.468944816589E+02  0.292438049316E+02 -0.144200220704E+00
  0.468944816589E+02  0.292438049316E+02  0.144200220704E+00
  0.470131988525E+02  0.376179962158E+02 -0.980757772923E+00
  0.470131988525E+02  0.376179962158E+02  0.980757772923E+00
  0.470762481689E+02  0.470762481689E+02  0.000000000000E+00
  0.477600097656E+02  0.435296669006E+02 -0.108748745918E+01
  0.477600097656E+02  0.435296669006E+02  0.108748745918E+01
  0.482116432190E+02  0.470762481689E+02 -0.658134579659E+00
  0.482116432190E+02  0.470762481689E+02  0.658134579659E+00
  0.482439842224E+02  0.292438049316E+02  0.000000000000E+00
  0.490000000000E+02  0.490000000000E+02  0.000000000000E+00
  0.501353988647E+02  0.490000000000E+02 -0.658134996891E+00
  0.501353988647E+02  0.490000000000E+02  0.658134996891E+00
  0.506007728577E+02  0.494653701782E+02 -0.465371757746E+00
  0.506007728577E+02  0.494653701782E+02  0.465371757746E+00
  0.507935333252E+02  0.496581344604E+02 -0.771266485397E-15
  0.513065910339E+02  0.470762481689E+02 -0.108748877048E+01
  0.513065910339E+02  0.470762481689E+02  0.108748877048E+01
  0.521583786011E+02  0.376179962158E+02 -0.479618877172E+00
  0.521583786011E+02  0.376179962158E+02  0.479618877172E+00
  0.529248886108E+02  0.435296669006E+02 -0.980759620667E+00
  0.529248886108E+02  0.435296669006E+02  0.980759620667E+00
  0.532303466797E+02  0.490000000000E+02 -0.108748936653E+01
  0.532303466797E+02  0.490000000000E+02  0.108748936653E+01
  0.539993209839E+02  0.497689704895E+02 -0.768971264362E+00
  0.539993209839E+02  0.497689704895E+02  0.768971264362E+00
  0.543178405762E+02  0.500874900818E+02 -0.157378642191E-15
  0.552687225342E+02  0.376179962158E+02 -0.144200608134E+00
  0.552687225342E+02  0.376179962158E+02  0.144200608134E+00
  0.564714775085E+02  0.470762481689E+02 -0.980760753155E+00
  0.564714775085E+02  0.470762481689E+02  0.980760753155E+00
  0.566182289124E+02  0.376179962158E+02  0.000000000000E+00
  0.580700759888E+02  0.435296669006E+02 -0.479619771242E+00
  0.580700759888E+02  0.435296669006E+02  0.479619771242E+00
  0.583952369690E+02  0.490000000000E+02 -0.980761349201E+00
  0.583952369690E+02  0.490000000000E+02  0.980761349201E+00
  0.590887413025E+02  0.496935043335E+02 -0.693503141403E+00
  0.590887413025E+02  0.496935043335E+02  0.693503141403E+00
  0.593759994507E+02  0.499807624817E+02  0.000000000000E+00
  0.611804275513E+02  0.435296669006E+02 -0.144200876355E+00
  0.611804275513E+02  0.435296669006E+02  0.144200876355E+00
  0.616166725159E+02  0.470762481689E+02 -0.479620337486E+00
  0.616166725159E+02  0.470762481689E+02  0.479620337486E+00
  0.625299339294E+02  0.435296669006E+02  0.000000000000E+00
  0.635404319763E+02  0.490000000000E+02 -0.479620635509E+00
  0.635404319763E+02  0.490000000000E+02  0.479620635509E+00
  0.638795776367E+02  0.493391418457E+02 -0.339143037796E+00
  0.638795776367E+02  0.493391418457E+02  0.339143037796E+00
  0.640200576782E+02  0.494796218872E+02  0.296956834055E-15
  0.647270278931E+02  0.470762481689E+02 -0.144201040268E+00
  0.647270278931E+02  0.470762481689E+02  0.144201040268E+00
  0.660765380859E+02  0.470762481689E+02  0.000000000000E+00
  0.666507873535E+02  0.490000000000E+02 -0.144201144576E+00
  0.666507873535E+02  0.490000000000E+02  0.144201144576E+00
  0.667527542114E+02  0.491019668579E+02 -0.101965606213E+00
  0.667527542114E+02  0.491019668579E+02  0.101965606213E+00
  0.667949905396E+02  0.491441993713E+02 -0.260488604752E-16
  0.680002975464E+02  0.490000000000E+02  0.000000000000E+00
  0.190000000000E+02  0.000000000000E+00  0.000000000000E+00
  0.209237651825E+02  0.192375373840E+01  0.000000000000E+00
  0.244703655243E+02  0.547033166885E+01  0.000000000000E+00
  0.303820724487E+02  0.113820018768E+02  0.000000000000E+00
  0.387563171387E+02  0.197561950684E+02  0.000000000000E+00
  0.482439842224E+02  0.292438049316E+02  0.000000000000E+00
  0.566182289124E+02  0.376179962158E+02  0.000000000000E+00
  0.625299339294E+02  0.435296669006E+02  0.000000000000E+00
  0.660765380859E+02  0.470762481689E+02  0.000000000000E+00
POLYGONS                 256                1024
3                 135                  33                 136
3                  32                  30                  33
3                  30                  28                  33
3                  30                  22                  28
3                  22                  17                  28
3                  22                  13                  17
3                  13                   6                  17
3                  17                   6                   9
3                   6                   1                   9
3                   9                   1                   4
3                   1                   0                   4
3                   4                   0                   3
3                   0                   5                   3
3                   0                   2                   5
3                   2                  10                   5
3                   2                   7                  10
[...]
CELL_DATA                 256
SCALARS sigma float 1
LOOKUP_TABLE default
 -0.105654760477E+00
 -0.105654843088E+00
 -0.106606964792E+00
 -0.106606898775E+00
 -0.964886542673E-01
 -0.964886685135E-01
 -0.206553308267E-01
 -0.206553175055E-01
  0.136132301455E+00
  0.136132285860E+00
  0.448280261843E+00
  0.448280262703E+00
  0.448280262703E+00
  0.448280261843E+00
  0.136132285860E+00
  0.136132301455E+00
 -0.206553175055E-01
 -0.206553308267E-01
 -0.964886685135E-01
 -0.964886542673E-01
 -0.106606898775E+00
 -0.106606964792E+00
 -0.105654843088E+00
 -0.105654760477E+00
 -0.105654731465E+00
 -0.105654760164E+00
 -0.106606951730E+00
 -0.106606963920E+00
 -0.964886618445E-01
 -0.964886544263E-01
 -0.206553174851E-01
 -0.206553272858E-01
  0.136132286186E+00
  0.136132326108E+00
  0.448280257710E+00
  0.448280216285E+00
  0.448280216285E+00
  0.448280257710E+00
  0.136132326108E+00
  0.136132286186E+00
 -0.206553272858E-01
 -0.206553174851E-01
 -0.964886544263E-01
 -0.964886618445E-01
 -0.106606963920E+00
 -0.106606951730E+00
 -0.105654760164E+00
 -0.105654731465E+00
 -0.105654788404E+00
 -0.105654731445E+00
 -0.106606895054E+00
 -0.106606951928E+00
 -0.964886609487E-01
 -0.964886619031E-01
 -0.206553272958E-01
 -0.206553275773E-01
  0.136132325826E+00
  0.136132262096E+00
  0.448280214426E+00
  0.448280187487E+00
  0.448280187487E+00
  0.448280214426E+00
  0.136132262096E+00
  0.136132325826E+00
 -0.206553275773E-01
 -0.206553272958E-01
 -0.964886619031E-01
 -0.964886609487E-01
 -0.106606951928E+00
 -0.106606895054E+00
 -0.105654731445E+00
 -0.105654788404E+00
 -0.105654774016E+00
 -0.105654788503E+00
 -0.106606862826E+00
 -0.106606895447E+00
 -0.964886743022E-01
 -0.964886609062E-01
 -0.206553275743E-01
 -0.206553242316E-01
  0.136132262678E+00
  0.136132321277E+00
  0.448280199048E+00
  0.448280441274E+00
  0.448280441274E+00
  0.448280199048E+00
  0.136132321277E+00
  0.136132262678E+00
 -0.206553242316E-01
 -0.206553275743E-01
 -0.964886609062E-01
 -0.964886743022E-01
 -0.106606895447E+00
 -0.106606862826E+00
 -0.105654788503E+00
 -0.105654774016E+00
 -0.105654802392E+00
 -0.105654774110E+00
 -0.106606922075E+00
 -0.106606862670E+00
 -0.964886453533E-01
 -0.964886742325E-01
 -0.206553242328E-01
 -0.206553324137E-01
  0.136132320945E+00
  0.136132397673E+00
  0.448280420139E+00
  0.448279915642E+00
  0.448279915642E+00
  0.448280420139E+00
  0.136132397673E+00
  0.136132320945E+00
 -0.206553324137E-01
 -0.206553242328E-01
 -0.964886742325E-01
 -0.964886453533E-01
 -0.106606862670E+00
 -0.106606922075E+00
 -0.105654774110E+00
 -0.105654802392E+00
 -0.105654787522E+00
 -0.105654802010E+00
 -0.106606953139E+00
 -0.106606921594E+00
 -0.964886233743E-01
 -0.964886452886E-01
 -0.206553324115E-01
 -0.206553443083E-01
  0.136132397185E+00
  0.136132197077E+00
  0.448279928308E+00
  0.448280193687E+00
  0.448280193687E+00
  0.448279928308E+00
  0.136132197077E+00
  0.136132397185E+00
 -0.206553443083E-01
 -0.206553324115E-01
 -0.964886452886E-01
 -0.964886233743E-01
 -0.106606921594E+00
 -0.106606953139E+00
 -0.105654802010E+00
 -0.105654787522E+00
 -0.105654980338E+00
 -0.105654787694E+00
 -0.106606892128E+00
 -0.106606953661E+00
 -0.964886636557E-01
 -0.964886235387E-01
 -0.206553443144E-01
 -0.206553331677E-01
  0.136132196746E+00
  0.136132270993E+00
  0.448280168463E+00
  0.448279802806E+00
  0.448279802806E+00
  0.448280168463E+00
  0.136132270993E+00
  0.136132196746E+00
 -0.206553331677E-01
 -0.206553443144E-01
 -0.964886235387E-01
 -0.964886636557E-01
 -0.106606953661E+00
 -0.106606892128E+00
 -0.105654787694E+00
 -0.105654980338E+00
 -0.105654805002E+00
 -0.105654980335E+00
 -0.106606889829E+00
 -0.106606892667E+00
 -0.964886303530E-01
 -0.964886642307E-01
 -0.206553331701E-01
 -0.206553372586E-01
  0.136132275495E+00
  0.136132277667E+00
  0.448279933655E+00
  0.448281019270E+00
  0.448281019270E+00
  0.448279933655E+00
  0.136132277667E+00
  0.136132275495E+00
 -0.206553372586E-01
 -0.206553331701E-01
 -0.964886642307E-01
 -0.964886303530E-01
 -0.106606892667E+00
 -0.106606889829E+00
 -0.105654980335E+00
 -0.105654805002E+00
 -0.105654882648E+00
 -0.105654807338E+00
 -0.106606951620E+00
 -0.106606890319E+00
 -0.964886870133E-01
 -0.964886292702E-01
 -0.206553372492E-01
 -0.206553220248E-01
  0.136132271612E+00
  0.136132324512E+00
  0.448280874348E+00
  0.448280288466E+00
  0.448280288466E+00
  0.448280874348E+00
  0.136132324512E+00
  0.136132271612E+00
 -0.206553220248E-01
 -0.206553372492E-01
 -0.964886292702E-01
 -0.964886870133E-01
 -0.106606890319E+00
 -0.106606951620E+00
 -0.105654807338E+00
 -0.105654882648E+00
 -0.101610286279E+00
 -0.102564793005E+00
 -0.102565192756E+00
 -0.924538319223E-01
 -0.924537053004E-01
 -0.192250983091E-01
 -0.192249631426E-01
  0.120519202831E+00
  0.120519444594E+00
  0.380250333610E+00
  0.380250333610E+00
  0.120519444594E+00
  0.120519202831E+00
 -0.192249631426E-01
 -0.192250983091E-01
 -0.924537053004E-01
 -0.924538319223E-01
 -0.102565192756E+00
 -0.102564793005E+00
 -0.101610286279E+00
 -0.107900820304E+00
 -0.108983836399E+00
 -0.108981153368E+00
 -0.976071548827E-01
 -0.976079867512E-01
 -0.194293977144E-01
 -0.194296708736E-01
  0.113745043687E+00
  0.113744817044E+00
  0.334501446767E+00
  0.334501446767E+00
  0.113744817044E+00
  0.113745043687E+00
 -0.194296708736E-01
 -0.194293977144E-01
 -0.976079867512E-01
 -0.976071548827E-01
 -0.108981153368E+00
 -0.108983836399E+00
 -0.107900820304E+00
SCALARS C_p_inc float 1
LOOKUP_TABLE default
  0.991854228415E-01
  0.433723343469E-01
 -0.181008754708E-01
 -0.665144559087E-01
 -0.144645702842E+00
 -0.181228493040E+00
 -0.222806913063E+00
 -0.231904586878E+00
 -0.946185625831E-01
 -0.220249695798E+00
  0.368002246911E+00
  0.239429482481E+00
  0.239429171747E+00
  0.368002095976E+00
 -0.220249991826E+00
 -0.946187874151E-01
 -0.231904841152E+00
 -0.222807154797E+00
 -0.181228689384E+00
 -0.144645865212E+00
 -0.665142295430E-01
 -0.181006247487E-01
  0.433777175824E-01
  0.991871313750E-01
  0.105780097276E+00
  0.970119735296E-01
  0.704549285976E-02
 -0.180522798003E-01
 -0.113858507381E+00
 -0.144703285417E+00
 -0.236350174237E+00
 -0.237264749291E+00
 -0.212272099830E+00
 -0.263237577577E+00
  0.199645316994E+00
  0.161875433187E+00
  0.161875000462E+00
  0.199645025923E+00
 -0.263237976702E+00
 -0.212272387628E+00
 -0.237265060849E+00
 -0.236350428553E+00
 -0.144703445190E+00
 -0.113858744952E+00
 -0.180520357990E-01
  0.704562861443E-02
  0.970204445981E-01
  0.105782684659E+00
  0.109265244959E+00
  0.105271944643E+00
  0.144540474452E-01
  0.695847667061E-02
 -0.994942295268E-01
 -0.113918082402E+00
 -0.241152089951E+00
 -0.228585159342E+00
 -0.263150240326E+00
 -0.271856209316E+00
  0.158234494659E+00
  0.148703389599E+00
  0.148702754201E+00
  0.158234054413E+00
 -0.271856784388E+00
 -0.263150632980E+00
 -0.228585617259E+00
 -0.241152393921E+00
 -0.113918322813E+00
 -0.994946243431E-01
  0.695861051576E-02
  0.144542600843E-01
  0.105285207123E+00
  0.109269063479E+00
  0.110913140208E+00
  0.109171297191E+00
  0.170041991985E-01
  0.144370499659E-01
 -0.954966282458E-01
 -0.995133446991E-01
 -0.230605194833E+00
 -0.224839651156E+00
 -0.273350450880E+00
 -0.269093433683E+00
  0.150575422150E+00
  0.151830190734E+00
  0.151829285313E+00
  0.150574773419E+00
 -0.269094235690E+00
 -0.273351021913E+00
 -0.224840264738E+00
 -0.230605648367E+00
 -0.995137461249E-01
 -0.954971015273E-01
  0.144372634573E-01
  0.170045846199E-01
  0.109189891445E+00
  0.110917927710E+00
  0.112150295835E+00
  0.110856065716E+00
  0.183568875325E-01
  0.169924415623E-01
 -0.940820869067E-01
 -0.954772849402E-01
 -0.225300383356E+00
 -0.223673861931E+00
 -0.269641853386E+00
 -0.267857530915E+00
  0.152737447008E+00
  0.153697534111E+00
  0.153696440063E+00
  0.152736533155E+00
 -0.267858462598E+00
 -0.269642655594E+00
 -0.223674518105E+00
 -0.225301001826E+00
 -0.954777644151E-01
 -0.940825137354E-01
  0.169928286845E-01
  0.183574033303E-01
  0.110877941867E+00
  0.112155169765E+00
  0.117464904892E+00
  0.112105011738E+00
  0.228427939964E-01
  0.183242573905E-01
 -0.914887017368E-01
 -0.939707462368E-01
 -0.223522677881E+00
 -0.223388702467E+00
 -0.267738356734E+00
 -0.268154992131E+00
  0.153549159898E+00
  0.153383707734E+00
  0.153382600770E+00
  0.153548065770E+00
 -0.268155895447E+00
 -0.267739292433E+00
 -0.223389278752E+00
 -0.223523345575E+00
 -0.939711766710E-01
 -0.914890006354E-01
  0.183247751207E-01
  0.228433338791E-01
  0.112126013450E+00
  0.117469012057E+00
  0.132137974108E+00
  0.118061607078E+00
  0.389831397216E-01
  0.228688431711E-01
 -0.760655345558E-01
 -0.911640046441E-01
 -0.222620124980E+00
 -0.220327287848E+00
 -0.267158226852E+00
 -0.272176210342E+00
  0.151992789416E+00
  0.149825517720E+00
  0.149824509277E+00
  0.151991691822E+00
 -0.272176991198E+00
 -0.267159135444E+00
 -0.220327722861E+00
 -0.222620716631E+00
 -0.911643036524E-01
 -0.760656859544E-01
  0.228693864700E-01
  0.389836179545E-01
  0.118078402378E+00
  0.132140989591E+00
  0.125531029658E+00
  0.134537810890E+00
  0.632614679046E-01
  0.393398146719E-01
 -0.464028533001E-01
 -0.757466622522E-01
 -0.220599391855E+00
 -0.187223897422E+00
 -0.268679809068E+00
 -0.283125450202E+00
  0.144592302667E+00
  0.136025661697E+00
  0.136024788593E+00
  0.144591320654E+00
 -0.283126063081E+00
 -0.268680591837E+00
 -0.187224170037E+00
 -0.220599855654E+00
 -0.757468129538E-01
 -0.464028946196E-01
  0.393402980206E-01
  0.632618488662E-01
  0.134549600083E+00
  0.125533087570E+00
 -0.326505696644E+03
 -0.710348307660E-01
 -0.555998415954E+00
  0.627280593581E-01
 -0.172872249113E-01
 -0.468591013268E-01
 -0.195162496865E+00
 -0.128716089879E+00
 -0.278669119521E+00
 -0.212601622142E+00
  0.103955382234E+00
  0.690863167537E-01
  0.690856494402E-01
  0.103954618142E+00
 -0.212601982251E+00
 -0.278669745481E+00
 -0.128716218483E+00
 -0.195162852544E+00
 -0.468591552696E-01
 -0.172871969299E-01
  0.627284214945E-01
 -0.555997839918E+00
 -0.710290564928E-01
 -0.326505714851E+03
 -0.711757687794E+03
 -0.470993776435E+01
 -0.691436368810E+00
 -0.112257165651E-01
 -0.187206313320E-01
 -0.138661356131E+00
 -0.105336372261E+00
 -0.212824846445E+00
 -0.170571530562E+00
 -0.465559781506E-01
 -0.465563312132E-01
 -0.170571673849E+00
 -0.212825187619E+00
 -0.105336429842E+00
 -0.138661648497E+00
 -0.187206560347E-01
 -0.112258428815E-01
 -0.691436840366E+00
 -0.470993055622E+01
 -0.711757635990E+03
 -0.474082444920E+03
 -0.603374174079E+01
 -0.918289091066E+00
  0.134258608956E-03
 -0.839086076741E-02
 -0.106653796772E+00
 -0.977242530934E-01
 -0.171311595235E+00
 -0.157625995419E+00
 -0.877663024845E-01
 -0.877664250719E-01
 -0.157626032590E+00
 -0.171311707311E+00
 -0.977242426171E-01
 -0.106653934858E+00
 -0.839090602195E-02
  0.134213187363E-03
 -0.918289687146E+00
 -0.603372881984E+01
 -0.474082391058E+03
SCALARS inclination float 1
LOOKUP_TABLE default
  0.100000000000E+01
  0.100000000000E+01
  0.100000000000E+01
  0.100000000000E+01
  0.100000000000E+01
  0.100000000000E+01
  0.100000000000E+01
  0.100000000000E+01
  0.100000000000E+01
  0.100000000000E+01
  0.100000000000E+01
  0.100000000000E+01
  0.100000000000E+01
  0.100000000000E+01
  0.100000000000E+01
  0.100000000000E+01
  0.100000000000E+01
  0.100000000000E+01
  0.100000000000E+01
  0.100000000000E+01
  0.100000000000E+01
  0.100000000000E+01
  0.100000000000E+01
  0.100000000000E+01
  0.100000000000E+01
  0.100000000000E+01
  0.100000000000E+01
  0.100000000000E+01
  0.100000000000E+01
  0.100000000000E+01
  0.100000000000E+01
  0.100000000000E+01
  0.100000000000E+01
  0.100000000000E+01
  0.100000000000E+01
  0.100000000000E+01
  0.100000000000E+01
  0.100000000000E+01
  0.100000000000E+01
  0.100000000000E+01
  0.100000000000E+01
  0.100000000000E+01
  0.100000000000E+01
  0.100000000000E+01
  0.100000000000E+01
  0.100000000000E+01
  0.100000000000E+01
  0.100000000000E+01
  0.100000000000E+01
  0.100000000000E+01
  0.100000000000E+01
  0.100000000000E+01
  0.100000000000E+01
  0.100000000000E+01
  0.100000000000E+01
  0.100000000000E+01
  0.100000000000E+01
  0.100000000000E+01
  0.100000000000E+01
  0.100000000000E+01
  0.100000000000E+01
  0.100000000000E+01
  0.100000000000E+01
  0.100000000000E+01
  0.100000000000E+01
  0.100000000000E+01
  0.100000000000E+01
  0.100000000000E+01
  0.100000000000E+01
  0.100000000000E+01
  0.100000000000E+01
  0.100000000000E+01
  0.100000000000E+01
  0.100000000000E+01
  0.100000000000E+01
  0.100000000000E+01
  0.100000000000E+01
  0.100000000000E+01
  0.100000000000E+01
  0.100000000000E+01
  0.100000000000E+01
  0.100000000000E+01
  0.100000000000E+01
  0.100000000000E+01
  0.100000000000E+01
  0.100000000000E+01
  0.100000000000E+01
  0.100000000000E+01
  0.100000000000E+01
  0.100000000000E+01
  0.100000000000E+01
  0.100000000000E+01
  0.100000000000E+01
  0.100000000000E+01
  0.100000000000E+01
  0.100000000000E+01
  0.100000000000E+01
  0.100000000000E+01
  0.100000000000E+01
  0.100000000000E+01
  0.100000000000E+01
  0.100000000000E+01
  0.100000000000E+01
  0.100000000000E+01
  0.100000000000E+01
  0.100000000000E+01
  0.100000000000E+01
  0.100000000000E+01
  0.100000000000E+01
  0.100000000000E+01
  0.100000000000E+01
  0.100000000000E+01
  0.100000000000E+01
  0.100000000000E+01
  0.100000000000E+01
  0.100000000000E+01
  0.100000000000E+01
  0.100000000000E+01
  0.100000000000E+01
  0.100000000000E+01
  0.100000000000E+01
  0.100000000000E+01
  0.100000000000E+01
  0.100000000000E+01
  0.100000000000E+01
  0.100000000000E+01
  0.100000000000E+01
  0.100000000000E+01
  0.100000000000E+01
  0.100000000000E+01
  0.100000000000E+01
  0.100000000000E+01
  0.100000000000E+01
  0.100000000000E+01
  0.100000000000E+01
  0.100000000000E+01
  0.100000000000E+01
  0.100000000000E+01
  0.100000000000E+01
  0.100000000000E+01
  0.100000000000E+01
  0.100000000000E+01
  0.100000000000E+01
  0.100000000000E+01
  0.100000000000E+01
  0.100000000000E+01
  0.100000000000E+01
  0.100000000000E+01
  0.100000000000E+01
  0.100000000000E+01
  0.100000000000E+01
  0.100000000000E+01
  0.100000000000E+01
  0.100000000000E+01
  0.100000000000E+01
  0.100000000000E+01
  0.100000000000E+01
  0.100000000000E+01
  0.100000000000E+01
  0.100000000000E+01
  0.100000000000E+01
  0.100000000000E+01
  0.100000000000E+01
  0.100000000000E+01
  0.100000000000E+01
  0.100000000000E+01
  0.100000000000E+01
  0.100000000000E+01
  0.100000000000E+01
  0.100000000000E+01
  0.100000000000E+01
  0.100000000000E+01
  0.100000000000E+01
  0.100000000000E+01
  0.100000000000E+01
  0.100000000000E+01
  0.100000000000E+01
  0.100000000000E+01
  0.100000000000E+01
  0.100000000000E+01
  0.100000000000E+01
  0.100000000000E+01
  0.100000000000E+01
  0.100000000000E+01
  0.100000000000E+01
  0.100000000000E+01
  0.100000000000E+01
  0.100000000000E+01
  0.100000000000E+01
  0.100000000000E+01
  0.100000000000E+01
  0.100000000000E+01
  0.100000000000E+01
  0.100000000000E+01
  0.100000000000E+01
  0.100000000000E+01
  0.100000000000E+01
  0.100000000000E+01
  0.100000000000E+01
  0.100000000000E+01
  0.100000000000E+01
  0.100000000000E+01
  0.100000000000E+01
  0.100000000000E+01
  0.100000000000E+01
  0.100000000000E+01
  0.100000000000E+01
  0.100000000000E+01
  0.100000000000E+01
  0.100000000000E+01
  0.100000000000E+01
  0.100000000000E+01
  0.100000000000E+01
  0.100000000000E+01
  0.100000000000E+01
  0.100000000000E+01
  0.100000000000E+01
  0.100000000000E+01
  0.100000000000E+01
  0.100000000000E+01
  0.100000000000E+01
  0.100000000000E+01
  0.100000000000E+01
  0.100000000000E+01
  0.100000000000E+01
  0.100000000000E+01
  0.100000000000E+01
  0.100000000000E+01
  0.100000000000E+01
  0.100000000000E+01
  0.100000000000E+01
  0.100000000000E+01
  0.100000000000E+01
  0.100000000000E+01
  0.100000000000E+01
  0.100000000000E+01
  0.100000000000E+01
  0.100000000000E+01
  0.100000000000E+01
  0.100000000000E+01
  0.100000000000E+01
  0.100000000000E+01
  0.100000000000E+01
  0.100000000000E+01
  0.100000000000E+01
  0.100000000000E+01
  0.100000000000E+01
  0.100000000000E+01
  0.100000000000E+01
  0.100000000000E+01
  0.100000000000E+01
  0.100000000000E+01
  0.100000000000E+01
  0.100000000000E+01
  0.100000000000E+01
  0.100000000000E+01
VECTORS v float
  0.153809346734E+03  0.477864479276E+01  0.159245694326E+02
  0.158525264854E+03  0.341929848066E+01  0.165737518241E+02
  0.163495351490E+03 -0.155081273678E+01  0.177985162678E+02
  0.167371034384E+03  0.867062218485E+00  0.179557130528E+02
  0.173442332517E+03 -0.520426609803E+01  0.174001317270E+02
  0.176316410308E+03 -0.439548523017E+00  0.172159834148E+02
  0.180155285334E+03 -0.427843912070E+01  0.381116756513E+01
  0.180757419300E+03 -0.650039444775E+01  0.386952305869E+01
  0.168936120179E+03  0.532091109219E+01 -0.226979248645E+02
  0.177196262125E+03 -0.171804281950E+02 -0.269653804677E+02
  0.114546212690E+03  0.454696416971E+02 -0.400402940056E+02
  0.126387225087E+03  0.190537902281E+02 -0.622159183222E+02
  0.126387248089E+03  0.190537672262E+02  0.622159449885E+02
  0.114546228297E+03  0.454696351937E+02  0.400403068215E+02
  0.177196282550E+03 -0.171804395173E+02  0.269653848720E+02
  0.168936137575E+03  0.532090802448E+01  0.226979277032E+02
  0.180757437827E+03 -0.650039864671E+01 -0.386952352829E+01
  0.180155303116E+03 -0.427844057408E+01 -0.381116796262E+01
  0.176316424981E+03 -0.439546867777E+00 -0.172159846828E+02
  0.173442344739E+03 -0.520426850880E+01 -0.174001331522E+02
  0.167371016796E+03  0.867089617479E+00 -0.179557082013E+02
  0.163495331903E+03 -0.155078658453E+01 -0.177985113353E+02
  0.158524814016E+03  0.341975588682E+01 -0.165736547739E+02
  0.153809197837E+03  0.477879369119E+01 -0.159245376118E+02
  0.153082926618E+03  0.940435488259E+01  0.153526637056E+02
  0.153856831817E+03  0.893010469435E+01  0.154860391530E+02
  0.161498159383E+03  0.128873303367E+01  0.172769205357E+02
  0.163525391612E+03  0.106233504993E+01  0.175199533221E+02
  0.171037036360E+03 -0.644934508120E+01  0.172871288492E+02
  0.173440982694E+03 -0.534790177504E+01  0.174139903284E+02
  0.180754789435E+03 -0.126617354183E+02  0.399679017253E+01
  0.180811999293E+03 -0.128023821249E+02  0.400088084558E+01
  0.177344402634E+03 -0.933479185800E+01 -0.258975276013E+02
  0.180515862125E+03 -0.154294313163E+02 -0.271829977963E+02
  0.130335076678E+03  0.347513686792E+02 -0.554051778719E+02
  0.133339720056E+03  0.299446128243E+02 -0.599330529318E+02
  0.133339753309E+03  0.299445795719E+02  0.599330914814E+02
  0.130335100783E+03  0.347513500613E+02  0.554052026360E+02
  0.180515888699E+03 -0.154294524039E+02  0.271830044083E+02
  0.177344423096E+03 -0.933480120103E+01  0.258975317362E+02
  0.180812021391E+03 -0.128023931033E+02 -0.400088152908E+01
  0.180754807963E+03 -0.126617376179E+02 -0.399679060084E+01
  0.173440994975E+03 -0.534789772926E+01 -0.174139911306E+02
  0.171037054959E+03 -0.644933814093E+01 -0.172871299848E+02
  0.163525372241E+03  0.106237996079E+01 -0.175199463899E+02
  0.161498148498E+03  0.128877699680E+01 -0.172769146209E+02
  0.153856071037E+03  0.893089855719E+01 -0.154858730322E+02
  0.153082692729E+03  0.940458877253E+01 -0.153526137213E+02
  0.152732917018E+03  0.103495767060E+02  0.152142705361E+02
  0.153091472916E+03  0.100742932510E+02  0.152819906625E+02
  0.160894997052E+03  0.227072325360E+01  0.171059683403E+02
  0.161506181636E+03  0.198657756773E+01  0.172025299403E+02
  0.169929250529E+03 -0.643653005519E+01  0.171779824178E+02
  0.171035904452E+03 -0.656979178988E+01  0.172987501098E+02
  0.180810487448E+03 -0.163444080903E+02  0.407404357200E+01
  0.180015120105E+03 -0.148533011119E+02  0.402679503444E+01
  0.180517258974E+03 -0.153554514457E+02 -0.271729287845E+02
  0.181055527992E+03 -0.161893424705E+02 -0.273632709878E+02
  0.133657604038E+03  0.312085934963E+02 -0.593846468891E+02
  0.134384917709E+03  0.302316147891E+02 -0.603725351572E+02