# vtk DataFile Version 3.0
TriPan results file. Generated by TriPan, USU AeroLab (c) 2021.
ASCII
DATASET POLYDATA
POINTS                  20 float
  0.190003013611E+02  0.000000000000E+00  0.000000000000E+00
  0.100000000000E+03  0.000000000000E+00  0.496930666496E-16
  0.209240550995E+02  0.192375373840E+01  0.000000000000E+00
  0.100000000000E+03  0.192375373840E+01  0.485128496322E-16
  0.244706325531E+02  0.547033166885E+01  0.000000000000E+00
  0.100000000000E+03  0.547033166885E+01  0.463370352435E-16
  0.303823032379E+02  0.113820018768E+02  0.000000000000E+00
  0.100000000000E+03  0.113820018768E+02  0.427102434123E-16
  0.387564964294E+02  0.197561950684E+02  0.000000000000E+00
  0.100000000000E+03  0.197561950684E+02  0.375727015771E-16
  0.482441062927E+02  0.292438049316E+02  0.000000000000E+00
  0.100000000000E+03  0.292438049316E+02  0.317520820290E-16
  0.566182975769E+02  0.376179962158E+02  0.000000000000E+00
  0.100000000000E+03  0.376179962158E+02  0.266145413639E-16
  0.625299682617E+02  0.435296669006E+02  0.000000000000E+00
  0.100000000000E+03  0.435296669006E+02  0.229877495327E-16
  0.660765457153E+02  0.470762481689E+02  0.000000000000E+00
  0.100000000000E+03  0.470762481689E+02  0.208119351440E-16
  0.680002975464E+02  0.490000000000E+02  0.000000000000E+00
  0.100000000000E+03  0.490000000000E+02  0.196317192967E-16
POLYGONS                  18                  72
3                   0                   1                   3
3                   0                   3                   2
3                   2                   3                   5
3                   2                   5                   4
3                   4                   5                   7
3                   4                   7                   6
3                   6                   7                   9
3                   6                   9                   8
3                   8                   9                  11
3                   8                  11                  10
3                  10                  11                  13
3                  10                  13                  12
3                  12                  13                  15
3                  12                  15                  14
3                  14                  15                  17
3                  14                  17                  16
3                  16                  17                  19
3                  16                  19                  18
POINT_DATA                  20
SCALARS mu float 1
LOOKUP_TABLE default
  0.101772691501E-04
  0.101772691501E-04
  0.403992873643E-05
  0.403992873643E-05
  0.320986518432E-05
  0.320986518432E-05
  0.961230967533E-05
  0.961230967533E-05
  0.122702479928E-04
  0.122702479928E-04
  0.114101896571E-04
  0.114101896571E-04
  0.914379388206E-05
  0.914379388206E-05
  0.314900373084E-04
  0.314900373084E-04
 -0.883376921095E-03
 -0.883376921095E-03
  0.000000000000E+00
  0.000000000000E+00
