# vtk DataFile Version 3.0
TriPan results file. Generated by TriPan, USU AeroLab (c) 2021.
ASCII
DATASET POLYDATA
POINTS                 309 float
  0.000000000000E+00  0.000000000000E+00  0.000000000000E+00
  0.420131176710E+00  0.000000000000E+00 -0.412075400352E+00
  0.420131176710E+00  0.000000000000E+00  0.412075400352E+00
  0.928174138069E+00  0.928174138069E+00  0.000000000000E+00
  0.134830534458E+01  0.928174138069E+00 -0.412075400352E+00
  0.134830534458E+01  0.928174138069E+00  0.412075400352E+00
  0.181353092194E+01  0.000000000000E+00 -0.806821227074E+00
  0.181353092194E+01  0.000000000000E+00  0.806821227074E+00
  0.226196575165E+01  0.226196575165E+01  0.000000000000E+00
  0.268209695816E+01  0.226196575165E+01 -0.412075400352E+00
  0.268209695816E+01  0.226196575165E+01  0.412075400352E+00
  0.274170517921E+01  0.928174138069E+00 -0.806821227074E+00
  0.274170517921E+01  0.928174138069E+00  0.806821227074E+00
  0.407549667358E+01  0.226196575165E+01 -0.806821227074E+00
  0.407549667358E+01  0.226196575165E+01  0.806821227074E+00
  0.413893461227E+01  0.413893461227E+01  0.000000000000E+00
  0.455906581879E+01  0.413893461227E+01 -0.412075400352E+00
  0.455906581879E+01  0.413893461227E+01  0.412075400352E+00
  0.479629611969E+01  0.000000000000E+00 -0.111707651615E+01
  0.479629611969E+01  0.000000000000E+00  0.111707651615E+01
  0.572447013855E+01  0.928174138069E+00 -0.111707651615E+01
  0.572447013855E+01  0.928174138069E+00  0.111707651615E+01
  0.595246553421E+01  0.413893461227E+01 -0.806821227074E+00
  0.595246553421E+01  0.413893461227E+01  0.806821227074E+00
  0.670394468307E+01  0.670394468307E+01  0.000000000000E+00
  0.705826187134E+01  0.226196575165E+01 -0.111707651615E+01
  0.705826187134E+01  0.226196575165E+01  0.111707651615E+01
  0.712407588959E+01  0.670394468307E+01 -0.412075400352E+00
  0.712407588959E+01  0.670394468307E+01  0.412075400352E+00
  0.851747608185E+01  0.670394468307E+01 -0.806821227074E+00
  0.851747608185E+01  0.670394468307E+01  0.806821227074E+00
  0.893523120880E+01  0.413893461227E+01 -0.111707651615E+01
  0.893523120880E+01  0.413893461227E+01  0.111707651615E+01
  0.939523696899E+01  0.000000000000E+00 -0.980761349201E+00
  0.939523696899E+01  0.000000000000E+00  0.980761349201E+00
  0.100722141266E+02  0.100722141266E+02  0.000000000000E+00
  0.103234109879E+02  0.928174138069E+00 -0.980761349201E+00
  0.103234109879E+02  0.928174138069E+00  0.980761349201E+00
  0.104923458099E+02  0.100722141266E+02 -0.412075400352E+00
  0.104923458099E+02  0.100722141266E+02  0.412075400352E+00
  0.115002412796E+02  0.670394468307E+01 -0.111707651615E+01
  0.115002412796E+02  0.670394468307E+01  0.111707651615E+01
  0.116572027206E+02  0.226196575165E+01 -0.980761349201E+00
  0.116572027206E+02  0.226196575165E+01  0.980761349201E+00
  0.118857450485E+02  0.100722141266E+02 -0.806821227074E+00
  0.118857450485E+02  0.100722141266E+02  0.806821227074E+00
  0.135341711044E+02  0.413893461227E+01 -0.980761349201E+00
  0.135341711044E+02  0.413893461227E+01  0.980761349201E+00
  0.139772081375E+02  0.000000000000E+00 -0.540150463581E+00
  0.139772081375E+02  0.000000000000E+00  0.540150463581E+00
  0.142710342407E+02  0.142710342407E+02  0.000000000000E+00
  0.146911659241E+02  0.142710342407E+02 -0.412075400352E+00
  0.146911659241E+02  0.142710342407E+02  0.412075400352E+00
  0.148685102463E+02  0.100722141266E+02 -0.111707651615E+01
  0.148685102463E+02  0.100722141266E+02  0.111707651615E+01
  0.149053821564E+02  0.928174138069E+00 -0.540150463581E+00
  0.149053821564E+02  0.928174138069E+00  0.540150463581E+00
  0.160845661163E+02  0.142710342407E+02 -0.806821227074E+00
  0.160845661163E+02  0.142710342407E+02  0.806821227074E+00
  0.160991821289E+02  0.670394468307E+01 -0.980761349201E+00
  0.160991821289E+02  0.670394468307E+01  0.980761349201E+00
  0.162391738892E+02  0.226196575165E+01 -0.540150463581E+00
  0.162391738892E+02  0.226196575165E+01  0.540150463581E+00
  0.169605827332E+02  0.000000000000E+00 -0.218344569206E+00
  0.169605827332E+02  0.000000000000E+00  0.218344569206E+00
  0.178887577057E+02  0.928174138069E+00 -0.218344569206E+00
  0.178887577057E+02  0.928174138069E+00  0.218344569206E+00
  0.181161422729E+02  0.413893461227E+01 -0.540150463581E+00
  0.181161422729E+02  0.413893461227E+01  0.540150463581E+00
  0.184032192230E+02  0.000000000000E+00 -0.636830478907E-01
  0.184032192230E+02  0.000000000000E+00  0.636830478907E-01
  0.190003013611E+02  0.000000000000E+00  0.000000000000E+00
  0.190673313141E+02  0.142710342407E+02 -0.111707651615E+01
  0.190673313141E+02  0.142710342407E+02  0.111707651615E+01
  0.191784667969E+02  0.191784667969E+02  0.000000000000E+00
  0.192225494385E+02  0.226196575165E+01 -0.218344569206E+00
  0.192225494385E+02  0.226196575165E+01  0.218344569206E+00
  0.193313941956E+02  0.928174138069E+00 -0.636830478907E-01
  0.193313941956E+02  0.928174138069E+00  0.636830478907E-01
  0.194674510956E+02  0.100722141266E+02 -0.980761349201E+00
  0.194674510956E+02  0.100722141266E+02  0.980761349201E+00
  0.195985984802E+02  0.191784667969E+02 -0.412075400352E+00
  0.195985984802E+02  0.191784667969E+02  0.412075400352E+00
  0.199284744263E+02  0.928174138069E+00  0.000000000000E+00
  0.206651840210E+02  0.226196575165E+01 -0.636830478907E-01
  0.206651840210E+02  0.226196575165E+01  0.636830478907E-01
  0.206811523438E+02  0.670394468307E+01 -0.540150463581E+00
  0.206811523438E+02  0.670394468307E+01  0.540150463581E+00
  0.209919986725E+02  0.191784667969E+02 -0.806821227074E+00
  0.209919986725E+02  0.191784667969E+02  0.806821227074E+00
  0.210995178223E+02  0.413893461227E+01 -0.218344569206E+00
  0.210995178223E+02  0.413893461227E+01  0.218344569206E+00
  0.212622661591E+02  0.226196575165E+01  0.000000000000E+00
  0.225421543121E+02  0.413893461227E+01 -0.636830478907E-01
  0.225421543121E+02  0.413893461227E+01  0.636830478907E-01
  0.231392364502E+02  0.413893461227E+01  0.000000000000E+00
  0.236645278931E+02  0.670394468307E+01 -0.218344569206E+00
  0.236645278931E+02  0.670394468307E+01  0.218344569206E+00
  0.236662712097E+02  0.142710342407E+02 -0.980761349201E+00
  0.236662712097E+02  0.142710342407E+02  0.980761349201E+00
  0.239747638702E+02  0.191784667969E+02 -0.111707651615E+01
  0.239747638702E+02  0.191784667969E+02  0.111707651615E+01
  0.240494232178E+02  0.100722141266E+02 -0.540150463581E+00
  0.240494232178E+02  0.100722141266E+02  0.540150463581E+00
  0.245000000000E+02  0.245000000000E+02  0.000000000000E+00
  0.249201316833E+02  0.245000000000E+02 -0.412075400352E+00
  0.249201316833E+02  0.245000000000E+02  0.412075400352E+00
  0.251071643829E+02  0.670394468307E+01 -0.636830478907E-01
  0.251071643829E+02  0.670394468307E+01  0.636830478907E-01
  0.257042465210E+02  0.670394468307E+01  0.000000000000E+00
  0.263135318756E+02  0.245000000000E+02 -0.806821227074E+00
  0.263135318756E+02  0.245000000000E+02  0.806821227074E+00
  0.270327968597E+02  0.100722141266E+02 -0.218344569206E+00
  0.270327968597E+02  0.100722141266E+02  0.218344569206E+00
  0.282482414246E+02  0.142710342407E+02 -0.540150463581E+00
  0.282482414246E+02  0.142710342407E+02  0.540150463581E+00
  0.284754333496E+02  0.100722141266E+02 -0.636830478907E-01
  0.284754333496E+02  0.100722141266E+02  0.636830478907E-01
  0.285737037659E+02  0.191784667969E+02 -0.980761349201E+00
  0.285737037659E+02  0.191784667969E+02  0.980761349201E+00
  0.290725154877E+02  0.100722141266E+02  0.000000000000E+00
  0.292962951660E+02  0.245000000000E+02 -0.111707651615E+01
  0.292962951660E+02  0.245000000000E+02  0.111707651615E+01
  0.298215332031E+02  0.298215332031E+02  0.000000000000E+00
  0.302416648865E+02  0.298215332031E+02 -0.412075400352E+00
  0.302416648865E+02  0.298215332031E+02  0.412075400352E+00
  0.312316169739E+02  0.142710342407E+02 -0.218344569206E+00
  0.312316169739E+02  0.142710342407E+02  0.218344569206E+00
  0.316350631714E+02  0.298215332031E+02 -0.806821227074E+00
  0.316350631714E+02  0.298215332031E+02  0.806821227074E+00
  0.326742553711E+02  0.142710342407E+02 -0.636830478907E-01
  0.326742553711E+02  0.142710342407E+02  0.636830478907E-01
  0.331556739807E+02  0.191784667969E+02 -0.540150463581E+00
  0.331556739807E+02  0.191784667969E+02  0.540150463581E+00
  0.332713356018E+02  0.142710342407E+02  0.000000000000E+00
  0.338952369690E+02  0.245000000000E+02 -0.980761349201E+00
  0.338952369690E+02  0.245000000000E+02  0.980761349201E+00
  0.346178283691E+02  0.298215332031E+02 -0.111707651615E+01
  0.346178283691E+02  0.298215332031E+02  0.111707651615E+01
  0.347289657593E+02  0.347289657593E+02  0.000000000000E+00
  0.351490974426E+02  0.347289657593E+02 -0.412075400352E+00
  0.351490974426E+02  0.347289657593E+02  0.412075400352E+00
  0.361390495300E+02  0.191784667969E+02 -0.218344569206E+00
  0.361390495300E+02  0.191784667969E+02  0.218344569206E+00
  0.365424957275E+02  0.347289657593E+02 -0.806821227074E+00
  0.365424957275E+02  0.347289657593E+02  0.806821227074E+00
  0.375816879272E+02  0.191784667969E+02 -0.636830478907E-01
  0.375816879272E+02  0.191784667969E+02  0.636830478907E-01
  0.381787681580E+02  0.191784667969E+02  0.000000000000E+00
  0.384772071838E+02  0.245000000000E+02 -0.540150463581E+00
  0.384772071838E+02  0.245000000000E+02  0.540150463581E+00
  0.389277839661E+02  0.389277839661E+02  0.000000000000E+00
  0.392167701721E+02  0.298215332031E+02 -0.980761349201E+00
  0.392167701721E+02  0.298215332031E+02  0.980761349201E+00
  0.393479156494E+02  0.389277839661E+02 -0.412075400352E+00
  0.393479156494E+02  0.389277839661E+02  0.412075400352E+00
  0.395252609253E+02  0.347289657593E+02 -0.111707651615E+01
  0.395252609253E+02  0.347289657593E+02  0.111707651615E+01
  0.407413177490E+02  0.389277839661E+02 -0.806821227074E+00
  0.407413177490E+02  0.389277839661E+02  0.806821227074E+00
  0.414605827332E+02  0.245000000000E+02 -0.218344569206E+00
[...]
CELL_DATA                 568
SCALARS sigma float 1
LOOKUP_TABLE default
  0.000000000000E+00
  0.000000000000E+00
  0.000000000000E+00
  0.000000000000E+00
  0.000000000000E+00
  0.000000000000E+00
  0.000000000000E+00
  0.000000000000E+00
  0.000000000000E+00
  0.000000000000E+00
  0.000000000000E+00
  0.000000000000E+00
  0.000000000000E+00
  0.000000000000E+00
  0.000000000000E+00
  0.000000000000E+00
  0.000000000000E+00
  0.000000000000E+00
  0.000000000000E+00
  0.000000000000E+00
  0.000000000000E+00
  0.000000000000E+00
  0.000000000000E+00
  0.000000000000E+00
  0.000000000000E+00
  0.000000000000E+00
  0.000000000000E+00
  0.000000000000E+00
  0.000000000000E+00
  0.000000000000E+00
  0.000000000000E+00
  0.000000000000E+00
  0.000000000000E+00
  0.000000000000E+00
  0.000000000000E+00
  0.000000000000E+00
  0.000000000000E+00
  0.000000000000E+00
  0.000000000000E+00
  0.000000000000E+00
  0.000000000000E+00
  0.000000000000E+00
  0.000000000000E+00
  0.000000000000E+00
  0.000000000000E+00
  0.000000000000E+00
  0.000000000000E+00
  0.000000000000E+00
  0.000000000000E+00
  0.000000000000E+00
  0.000000000000E+00
  0.000000000000E+00
  0.000000000000E+00
  0.000000000000E+00
  0.000000000000E+00
  0.000000000000E+00
  0.000000000000E+00
  0.000000000000E+00
  0.000000000000E+00
  0.000000000000E+00
  0.000000000000E+00
  0.000000000000E+00
  0.000000000000E+00
  0.000000000000E+00
  0.000000000000E+00
  0.000000000000E+00
  0.000000000000E+00
  0.000000000000E+00
  0.000000000000E+00
  0.000000000000E+00
  0.000000000000E+00
  0.000000000000E+00
  0.000000000000E+00
  0.000000000000E+00
  0.000000000000E+00
  0.000000000000E+00
  0.000000000000E+00
  0.000000000000E+00
  0.000000000000E+00
  0.000000000000E+00
  0.000000000000E+00
  0.000000000000E+00
  0.000000000000E+00
  0.000000000000E+00
  0.000000000000E+00
  0.000000000000E+00
  0.000000000000E+00
  0.000000000000E+00
  0.000000000000E+00
  0.000000000000E+00
  0.000000000000E+00
  0.000000000000E+00
  0.000000000000E+00
  0.000000000000E+00
  0.000000000000E+00
  0.000000000000E+00
  0.000000000000E+00
  0.000000000000E+00
  0.000000000000E+00
  0.000000000000E+00
  0.000000000000E+00
  0.000000000000E+00
  0.000000000000E+00
  0.000000000000E+00
  0.000000000000E+00
  0.000000000000E+00
  0.000000000000E+00
  0.000000000000E+00
  0.000000000000E+00
  0.000000000000E+00
  0.000000000000E+00
  0.000000000000E+00
  0.000000000000E+00
  0.000000000000E+00
  0.000000000000E+00
  0.000000000000E+00
  0.000000000000E+00
  0.000000000000E+00
  0.000000000000E+00
  0.000000000000E+00
  0.000000000000E+00
  0.000000000000E+00
  0.000000000000E+00
  0.000000000000E+00
  0.000000000000E+00
  0.000000000000E+00
  0.000000000000E+00
  0.000000000000E+00
  0.000000000000E+00
  0.000000000000E+00
  0.000000000000E+00
  0.000000000000E+00
  0.000000000000E+00
  0.000000000000E+00
  0.000000000000E+00
  0.000000000000E+00
  0.000000000000E+00
  0.000000000000E+00
  0.000000000000E+00
  0.000000000000E+00
  0.000000000000E+00
  0.000000000000E+00
  0.000000000000E+00
  0.000000000000E+00
  0.000000000000E+00
  0.000000000000E+00
  0.000000000000E+00
  0.000000000000E+00
  0.000000000000E+00
  0.000000000000E+00
  0.000000000000E+00
  0.000000000000E+00
  0.000000000000E+00
  0.000000000000E+00
  0.000000000000E+00
  0.000000000000E+00
  0.000000000000E+00
  0.000000000000E+00
  0.000000000000E+00
  0.000000000000E+00
  0.000000000000E+00
  0.000000000000E+00
  0.000000000000E+00
  0.000000000000E+00
  0.000000000000E+00
  0.000000000000E+00
  0.000000000000E+00
  0.000000000000E+00
  0.000000000000E+00
  0.000000000000E+00
  0.000000000000E+00
  0.000000000000E+00
  0.000000000000E+00
  0.000000000000E+00
  0.000000000000E+00
  0.000000000000E+00
  0.000000000000E+00
  0.000000000000E+00
  0.000000000000E+00
  0.000000000000E+00
  0.000000000000E+00
  0.000000000000E+00
  0.000000000000E+00
  0.000000000000E+00
  0.000000000000E+00
  0.000000000000E+00
  0.000000000000E+00
  0.000000000000E+00
  0.000000000000E+00
  0.000000000000E+00
  0.000000000000E+00
  0.000000000000E+00
  0.000000000000E+00
  0.000000000000E+00
  0.000000000000E+00
  0.000000000000E+00
  0.000000000000E+00
  0.000000000000E+00
  0.000000000000E+00
  0.000000000000E+00
  0.000000000000E+00
  0.000000000000E+00
  0.000000000000E+00
  0.000000000000E+00
  0.000000000000E+00
  0.000000000000E+00
  0.000000000000E+00
  0.000000000000E+00
  0.000000000000E+00
  0.000000000000E+00
  0.000000000000E+00
  0.000000000000E+00
  0.000000000000E+00
  0.000000000000E+00
  0.000000000000E+00
  0.000000000000E+00
  0.000000000000E+00
  0.000000000000E+00
  0.000000000000E+00
  0.000000000000E+00
  0.000000000000E+00
  0.000000000000E+00
  0.000000000000E+00
  0.000000000000E+00
  0.000000000000E+00
  0.000000000000E+00
  0.000000000000E+00
  0.000000000000E+00
  0.000000000000E+00
  0.000000000000E+00
  0.000000000000E+00
  0.000000000000E+00
  0.000000000000E+00
  0.000000000000E+00
  0.000000000000E+00
  0.000000000000E+00
  0.000000000000E+00
  0.000000000000E+00
  0.000000000000E+00
  0.000000000000E+00
  0.000000000000E+00
  0.000000000000E+00
  0.000000000000E+00
  0.000000000000E+00
  0.000000000000E+00
  0.000000000000E+00
  0.000000000000E+00
  0.000000000000E+00
  0.000000000000E+00
  0.000000000000E+00
  0.000000000000E+00
  0.000000000000E+00
  0.000000000000E+00
  0.000000000000E+00
  0.000000000000E+00
  0.000000000000E+00
  0.000000000000E+00
  0.000000000000E+00
  0.000000000000E+00
  0.000000000000E+00
  0.000000000000E+00
  0.000000000000E+00
  0.000000000000E+00
  0.000000000000E+00
  0.000000000000E+00
  0.000000000000E+00
  0.000000000000E+00
  0.000000000000E+00
  0.000000000000E+00
  0.000000000000E+00
  0.000000000000E+00
  0.000000000000E+00
  0.000000000000E+00
  0.000000000000E+00
  0.000000000000E+00
  0.000000000000E+00
  0.000000000000E+00
  0.000000000000E+00
  0.000000000000E+00
  0.000000000000E+00
  0.000000000000E+00
  0.000000000000E+00
  0.000000000000E+00
  0.000000000000E+00
  0.000000000000E+00
  0.000000000000E+00
  0.000000000000E+00
  0.000000000000E+00
  0.000000000000E+00
  0.000000000000E+00
  0.000000000000E+00
  0.000000000000E+00
  0.000000000000E+00
  0.000000000000E+00
  0.000000000000E+00
  0.000000000000E+00
  0.000000000000E+00
  0.000000000000E+00
  0.000000000000E+00
  0.000000000000E+00
  0.000000000000E+00
  0.000000000000E+00
  0.000000000000E+00
  0.000000000000E+00
  0.000000000000E+00
  0.000000000000E+00
  0.000000000000E+00
  0.000000000000E+00
  0.000000000000E+00
  0.000000000000E+00
  0.000000000000E+00
  0.000000000000E+00
  0.000000000000E+00
  0.000000000000E+00
  0.000000000000E+00
  0.000000000000E+00
  0.000000000000E+00
  0.000000000000E+00
  0.000000000000E+00
  0.000000000000E+00
  0.000000000000E+00
  0.000000000000E+00
  0.000000000000E+00
  0.000000000000E+00
  0.000000000000E+00
  0.000000000000E+00
  0.000000000000E+00
  0.000000000000E+00
  0.000000000000E+00
  0.000000000000E+00
  0.000000000000E+00
  0.000000000000E+00
  0.000000000000E+00
  0.000000000000E+00
  0.000000000000E+00
  0.000000000000E+00
  0.000000000000E+00
  0.000000000000E+00
  0.000000000000E+00
  0.000000000000E+00
  0.000000000000E+00
  0.000000000000E+00
  0.000000000000E+00
  0.000000000000E+00
  0.000000000000E+00
  0.000000000000E+00
  0.000000000000E+00
  0.000000000000E+00
  0.000000000000E+00
  0.000000000000E+00
  0.000000000000E+00
  0.000000000000E+00
  0.000000000000E+00
  0.000000000000E+00
  0.000000000000E+00
  0.000000000000E+00
  0.000000000000E+00
  0.000000000000E+00
  0.000000000000E+00
  0.000000000000E+00
  0.000000000000E+00
  0.000000000000E+00
  0.000000000000E+00
  0.000000000000E+00
  0.000000000000E+00
  0.000000000000E+00
  0.000000000000E+00
  0.000000000000E+00
  0.000000000000E+00
  0.000000000000E+00
  0.000000000000E+00
  0.000000000000E+00
  0.000000000000E+00
  0.000000000000E+00
  0.000000000000E+00
  0.000000000000E+00
  0.000000000000E+00
  0.000000000000E+00
  0.000000000000E+00
  0.000000000000E+00
  0.000000000000E+00
  0.000000000000E+00
  0.000000000000E+00
  0.000000000000E+00
  0.000000000000E+00
  0.000000000000E+00
  0.000000000000E+00
  0.000000000000E+00
  0.000000000000E+00
  0.000000000000E+00
  0.000000000000E+00
  0.000000000000E+00
  0.000000000000E+00
  0.000000000000E+00
  0.000000000000E+00
  0.000000000000E+00
  0.000000000000E+00
  0.000000000000E+00
  0.000000000000E+00
  0.000000000000E+00
  0.000000000000E+00
  0.000000000000E+00
  0.000000000000E+00
  0.000000000000E+00
  0.000000000000E+00
  0.000000000000E+00
  0.000000000000E+00
  0.000000000000E+00
  0.000000000000E+00
  0.000000000000E+00
  0.000000000000E+00
  0.000000000000E+00
  0.000000000000E+00
  0.000000000000E+00
  0.000000000000E+00
  0.000000000000E+00
  0.000000000000E+00
  0.000000000000E+00
  0.000000000000E+00
  0.000000000000E+00
  0.000000000000E+00
  0.000000000000E+00
  0.000000000000E+00
  0.000000000000E+00
  0.000000000000E+00
  0.000000000000E+00
  0.000000000000E+00
  0.000000000000E+00
  0.000000000000E+00
  0.000000000000E+00
  0.000000000000E+00
  0.000000000000E+00
  0.000000000000E+00
  0.000000000000E+00
  0.000000000000E+00
  0.000000000000E+00
  0.000000000000E+00
  0.000000000000E+00
  0.000000000000E+00
  0.000000000000E+00
  0.000000000000E+00
  0.000000000000E+00
  0.000000000000E+00
  0.000000000000E+00
  0.000000000000E+00
  0.000000000000E+00
  0.000000000000E+00
  0.000000000000E+00
  0.000000000000E+00
  0.000000000000E+00
  0.000000000000E+00
  0.000000000000E+00
  0.000000000000E+00
  0.000000000000E+00
  0.000000000000E+00
  0.000000000000E+00
  0.000000000000E+00
  0.000000000000E+00
  0.000000000000E+00
  0.000000000000E+00
  0.000000000000E+00
  0.000000000000E+00
  0.000000000000E+00
  0.000000000000E+00
  0.000000000000E+00
  0.000000000000E+00
  0.000000000000E+00
  0.000000000000E+00
  0.000000000000E+00
  0.000000000000E+00
  0.000000000000E+00
  0.000000000000E+00
  0.000000000000E+00
  0.000000000000E+00
  0.000000000000E+00
  0.000000000000E+00
  0.000000000000E+00
  0.000000000000E+00
  0.000000000000E+00
  0.000000000000E+00
  0.000000000000E+00
  0.000000000000E+00
  0.000000000000E+00
  0.000000000000E+00
  0.000000000000E+00
  0.000000000000E+00
  0.000000000000E+00
  0.000000000000E+00
  0.000000000000E+00
  0.000000000000E+00
  0.000000000000E+00
  0.000000000000E+00
  0.000000000000E+00
  0.000000000000E+00
  0.000000000000E+00
  0.000000000000E+00
  0.000000000000E+00
  0.000000000000E+00
  0.000000000000E+00
  0.000000000000E+00
  0.000000000000E+00
  0.000000000000E+00
  0.000000000000E+00
  0.000000000000E+00
  0.000000000000E+00
  0.000000000000E+00
  0.000000000000E+00
  0.000000000000E+00
  0.000000000000E+00
  0.000000000000E+00
  0.000000000000E+00
  0.000000000000E+00
  0.000000000000E+00
  0.000000000000E+00
  0.000000000000E+00
  0.000000000000E+00
  0.000000000000E+00
  0.000000000000E+00
  0.000000000000E+00
  0.000000000000E+00
  0.000000000000E+00
  0.000000000000E+00
  0.000000000000E+00
  0.000000000000E+00
  0.000000000000E+00
  0.000000000000E+00
  0.000000000000E+00
  0.000000000000E+00
  0.000000000000E+00
  0.000000000000E+00
  0.000000000000E+00
  0.000000000000E+00
  0.000000000000E+00
  0.000000000000E+00
  0.000000000000E+00
  0.000000000000E+00
  0.000000000000E+00
  0.000000000000E+00
  0.000000000000E+00
  0.000000000000E+00
  0.000000000000E+00
  0.000000000000E+00
  0.000000000000E+00
  0.000000000000E+00
  0.000000000000E+00
  0.000000000000E+00
  0.000000000000E+00
  0.000000000000E+00
  0.000000000000E+00
  0.000000000000E+00
  0.000000000000E+00
  0.000000000000E+00
  0.000000000000E+00
  0.000000000000E+00
  0.000000000000E+00
  0.000000000000E+00
  0.000000000000E+00
  0.000000000000E+00
  0.000000000000E+00
  0.000000000000E+00
  0.000000000000E+00
  0.000000000000E+00
  0.000000000000E+00
  0.000000000000E+00
  0.000000000000E+00
  0.000000000000E+00
  0.000000000000E+00
  0.000000000000E+00
SCALARS C_p float 1
LOOKUP_TABLE default
  0.133525452047E+00
  0.840077211987E-01
  0.336585750126E-01
 -0.646046614868E-02
 -0.614154139411E-01
 -0.860884789942E-01
 -0.164853068842E+00
 -0.185894882427E+00
 -0.228122705266E+00
 -0.229318250734E+00
 -0.131534088227E+00
 -0.193366094682E+00
  0.870784805710E-01
 -0.516593544521E-01
  0.513877994087E+00
  0.444982815510E+00
  0.444982677131E+00
  0.513877920604E+00
 -0.516595188718E-01
  0.870783586009E-01
 -0.193366242640E+00
 -0.131534221271E+00
 -0.229318401815E+00
 -0.228122852921E+00
 -0.185895027774E+00
 -0.164853206546E+00
 -0.860887564968E-01
 -0.614151764016E-01
 -0.645897940715E-02
  0.336587171532E-01
  0.840211888961E-01
  0.133526968619E+00
  0.135773823891E+00
  0.130571271555E+00
  0.519410635334E-01
  0.331883551042E-01
 -0.346039095367E-01
 -0.611394926383E-01
 -0.147242272193E+00
 -0.164319884976E+00
 -0.231618124879E+00
 -0.236847532906E+00
 -0.188576112278E+00
 -0.234619890275E+00
 -0.453757242157E-01
 -0.105548686443E+00
  0.357039105725E+00
  0.337416037456E+00
  0.337415870090E+00
  0.357038976689E+00
 -0.105548884914E+00
 -0.453758792430E-01
 -0.234620060732E+00
 -0.188576258318E+00
 -0.236847694028E+00
 -0.231618276376E+00
 -0.164320021978E+00
 -0.147242391960E+00
 -0.611392337107E-01
 -0.346038555906E-01
  0.331884813798E-01
  0.519415425651E-01
  0.130578210238E+00
  0.135775540348E+00
  0.137778922200E+00
  0.134519750692E+00
  0.589597389278E-01
  0.513811104236E-01
 -0.164394769643E-01
 -0.344711388876E-01
 -0.129369241270E+00
 -0.146815213839E+00
 -0.239006039674E+00
 -0.238598802901E+00
 -0.230874566336E+00
 -0.258955175297E+00
 -0.104676105520E+00
 -0.144184080343E+00
  0.314396052139E+00
  0.302173324721E+00
  0.302173113599E+00
  0.314395882188E+00
 -0.144184323643E+00
 -0.104676298933E+00
 -0.258955374095E+00
 -0.230874733398E+00
 -0.238598980930E+00
 -0.239006199834E+00
 -0.146815331622E+00
 -0.129369390885E+00
 -0.344710923594E-01
 -0.164396093623E-01
  0.513815716172E-01
  0.589600298059E-01
  0.134528713184E+00
  0.137782269562E+00
  0.139740501200E+00
  0.137207372118E+00
  0.629832054964E-01
  0.586608405463E-01
 -0.735117005514E-02
 -0.164471178675E-01
 -0.115068840150E+00
 -0.129001449845E+00
 -0.241408648237E+00
 -0.234448862664E+00
 -0.258105843260E+00
 -0.271434458708E+00
 -0.143742829278E+00
 -0.165221879618E+00
  0.294357049956E+00
  0.287226390868E+00
  0.287226125795E+00
  0.294356833893E+00
 -0.165222179793E+00
 -0.143743070016E+00
 -0.271434697766E+00
 -0.258106038747E+00
 -0.234449076824E+00
 -0.241408822663E+00
 -0.129001602061E+00
 -0.115069054966E+00
 -0.164472516844E-01
 -0.735135765497E-02
  0.586611385163E-01
  0.629836915342E-01
  0.137221453457E+00
  0.139744558488E+00
  0.141324521917E+00
  0.139507038435E+00
  0.655364296201E-01
  0.628575057070E-01
 -0.278802445143E-02
 -0.737146589961E-02
 -0.107012537294E+00
 -0.114874807782E+00
 -0.237103986463E+00
 -0.228775899087E+00
 -0.272313410439E+00
 -0.273964680255E+00
 -0.165192461145E+00
 -0.173083726472E+00
  0.286631996507E+00
  0.283710874396E+00
  0.283710540285E+00
  0.286631724554E+00
 -0.173084102178E+00
 -0.165192760506E+00
 -0.273964977099E+00
 -0.272313645845E+00
 -0.228776169718E+00
 -0.237104195157E+00
 -0.114875026660E+00
 -0.107012809068E+00
 -0.737165332927E-02
 -0.278821742733E-02
  0.628579894028E-01
  0.655369899405E-01
  0.139524416687E+00
  0.141329495276E+00
  0.142453161136E+00
  0.141236731529E+00
  0.671428514148E-01
  0.654911765240E-01
 -0.358907123042E-03
 -0.279802059432E-02
 -0.103106156330E+00
 -0.106945008121E+00
 -0.230431557495E+00
 -0.224976585840E+00
 -0.275211630524E+00
 -0.272422392285E+00
 -0.173298931120E+00
 -0.173581425698E+00
  0.285629091424E+00
  0.285307681096E+00
  0.285307259015E+00
  0.285628749126E+00
 -0.173581897185E+00
 -0.173299306859E+00
 -0.272422762143E+00
 -0.275211923659E+00
 -0.224976916426E+00
 -0.230431823598E+00
 -0.106945283147E+00
 -0.103106465912E+00
 -0.279821330173E-02
 -0.359074268186E-03
  0.654917375792E-01
  0.671437139758E-01
  0.141256201713E+00
  0.142458457221E+00
  0.143239354735E+00
  0.142409840027E+00
  0.681759873438E-01
  0.671233571987E-01
  0.101805161889E-02
 -0.363889289251E-03
 -0.101157579150E+00
 -0.103077599874E+00
 -0.225748612652E+00
 -0.222919238485E+00
 -0.273235367745E+00
 -0.270733244966E+00
 -0.173787386074E+00
 -0.172275602792E+00
  0.287075830790E+00
  0.287509889262E+00
  0.287509367231E+00
  0.287075400567E+00
 -0.172276183041E+00
 -0.173787857669E+00
 -0.270733694007E+00
 -0.273235734273E+00
 -0.222919635605E+00
 -0.225748939262E+00
 -0.103077911268E+00
 -0.101157975956E+00
 -0.364056795666E-03
  0.101769180808E-02
  0.671242079804E-01
  0.681768563987E-01
  0.142430004994E+00
  0.143246909138E+00
  0.143908019739E+00
  0.143181503998E+00
  0.689965900621E-01
  0.681553463181E-01
  0.194694556331E-02
  0.101280966828E-02
 -0.100072784128E+00
 -0.101128132430E+00
 -0.223219371779E+00
 -0.221818676634E+00
 -0.271099201281E+00
 -0.269696105280E+00
 -0.172383276306E+00
 -0.171274112862E+00
  0.288421413153E+00
  0.288776918302E+00
  0.288776297041E+00
  0.288420883959E+00
 -0.171274798490E+00
 -0.172383856389E+00
 -0.269696630530E+00
 -0.271099647497E+00
 -0.221819137802E+00
 -0.223219765690E+00
 -0.101128532982E+00
 -0.100073219164E+00
  0.101245127380E-02
  0.194671427377E-02
  0.681562254213E-01
  0.689977864235E-01
  0.143216364667E+00
  0.143915493197E+00
  0.144980543855E+00
  0.143838008398E+00
  0.701530033447E-01
  0.689612877384E-01
  0.297727015843E-02
  0.193724097446E-02
 -0.992682923338E-01
 -0.100020960184E+00
 -0.221872042327E+00
 -0.221245431089E+00
 -0.269777708630E+00
 -0.269247654312E+00
 -0.171301325506E+00
 -0.170852660391E+00
  0.289008482684E+00
  0.289153535701E+00
  0.289152840878E+00
  0.289007856404E+00
 -0.170853416503E+00
 -0.171302010917E+00
 -0.269248216748E+00
 -0.269778233736E+00
 -0.221245885923E+00
 -0.221872507389E+00
 -0.100021399651E+00
 -0.992686349647E-01
  0.193701079968E-02
  0.297722054387E-02
  0.689624891056E-01
  0.701542027715E-01
  0.143866986843E+00
  0.144986971110E+00
  0.147773145152E+00
  0.144920640994E+00
  0.729140173723E-01
  0.700985649989E-01
  0.511148024722E-02
  0.295647674979E-02
 -0.981635857691E-01
 -0.991668061106E-01
 -0.221099472785E+00
 -0.221009545365E+00
 -0.269099711199E+00
 -0.269397085460E+00
 -0.170814642815E+00
 -0.171067732259E+00
  0.288845242281E+00
  0.288763030105E+00
  0.288762307218E+00
  0.288844545765E+00
 -0.171068508283E+00
 -0.170815398736E+00
 -0.269397641399E+00
 -0.269100276147E+00
 -0.221009961509E+00
 -0.221099934627E+00
 -0.991671478554E-01
 -0.981638714358E-01
  0.295642671745E-02
  0.511143253976E-02
  0.700997609985E-01
  0.729151015741E-01
  0.144943623564E+00
  0.147779255595E+00
  0.154975724422E+00
  0.147845171289E+00
  0.798722237078E-01
  0.728619463401E-01
  0.104206554870E-01
  0.506494327671E-02
 -0.955508439369E-01
 -0.979611419782E-01
 -0.220590979260E+00
 -0.220995721000E+00
 -0.268939858649E+00
 -0.270469808054E+00
 -0.170951823091E+00
 -0.172246950952E+00
  0.287817190692E+00
  0.287415557464E+00
  0.287414834911E+00
  0.287816468806E+00
 -0.172247717876E+00
 -0.170952598376E+00
 -0.270470345284E+00
 -0.268940416530E+00
 -0.220996111147E+00
 -0.220591399122E+00
 -0.979614254349E-01
 -0.955511019600E-01
  0.506489568997E-02
  0.104206550069E-01
  0.728630324918E-01
  0.798732827301E-01
  0.147868899342E+00
  0.154981247546E+00
  0.171062565470E+00
  0.155352488022E+00
  0.939351806001E-01
  0.798269824535E-01
  0.200293825458E-01
  0.103158892546E-01
 -0.893281990705E-01
 -0.951773620093E-01
 -0.220181142622E+00
 -0.220315881871E+00
 -0.269453474489E+00
 -0.273214131442E+00
 -0.172009974753E+00
 -0.175221072231E+00
  0.285459141027E+00
  0.284516583447E+00
  0.284515874128E+00
  0.285458421882E+00
 -0.175221822856E+00
 -0.172010739745E+00
 -0.273214648859E+00
 -0.269454012045E+00
 -0.220316253072E+00
 -0.220181534197E+00
 -0.951776177837E-01
 -0.893284431309E-01