# vtk DataFile Version 3.0
TriPan results file. Generated by TriPan, USU AeroLab (c) 2021.
ASCII
DATASET POLYDATA
POINTS                  40 float
  0.197579002380E+02  0.757896304131E+00  0.000000000000E+00
  0.983002206129E+04  0.757896304131E+00  0.183594103504E+04
  0.190000000000E+02  0.000000000000E+00  0.000000000000E+00
  0.982999641538E+04  0.000000000000E+00  0.183607807271E+04
  0.207889842987E+02  0.178897356987E+01  0.000000000000E+00
  0.983005695121E+04  0.178897356987E+01  0.183575460237E+04
  0.221728172302E+02  0.317279767990E+01  0.000000000000E+00
  0.983010377749E+04  0.317279767990E+01  0.183550438838E+04
  0.239966468811E+02  0.499661636353E+01  0.000000000000E+00
  0.983016549242E+04  0.499661636353E+01  0.183517461757E+04
  0.263436698914E+02  0.734362459183E+01  0.000000000000E+00
  0.983024491122E+04  0.734362459183E+01  0.183475024698E+04
  0.292729015350E+02  0.102728376389E+02  0.000000000000E+00
  0.983034403085E+04  0.102728376389E+02  0.183422060591E+04
  0.327922058105E+02  0.137921218872E+02  0.000000000000E+00
  0.983046311742E+04  0.137921218872E+02  0.183358427246E+04
  0.368321151733E+02  0.178320064545E+02  0.000000000000E+00
  0.983059982027E+04  0.178320064545E+02  0.183285380722E+04
  0.412340698242E+02  0.222339305878E+02  0.000000000000E+00
  0.983074877405E+04  0.222339305878E+02  0.183205787974E+04
  0.457662315369E+02  0.267660694122E+02  0.000000000000E+00
  0.983090213379E+04  0.267660694122E+02  0.183123840923E+04
  0.501681861877E+02  0.311679935455E+02  0.000000000000E+00
  0.983105108757E+04  0.311679935455E+02  0.183044248175E+04
  0.542080955505E+02  0.352078781128E+02  0.000000000000E+00
  0.983118779042E+04  0.352078781128E+02  0.182971201650E+04
  0.577274017334E+02  0.387271614075E+02  0.000000000000E+00
  0.983130687705E+04  0.387271614075E+02  0.182907568271E+04
  0.606566314697E+02  0.416563758850E+02  0.000000000000E+00
  0.983140599662E+04  0.416563758850E+02  0.182854604199E+04
  0.630036544800E+02  0.440033836365E+02  0.000000000000E+00
  0.983148541542E+04  0.440033836365E+02  0.182812167139E+04
  0.648274841309E+02  0.458272018433E+02  0.000000000000E+00
  0.983154713035E+04  0.458272018433E+02  0.182779190059E+04
  0.662113189697E+02  0.472110252380E+02  0.000000000000E+00
  0.983159395669E+04  0.472110252380E+02  0.182754168625E+04
  0.672424011230E+02  0.482421035767E+02  0.000000000000E+00
  0.983162884655E+04  0.482421035767E+02  0.182735525393E+04
  0.680002975464E+02  0.490000000000E+02  0.000000000000E+00
  0.983165449232E+04  0.490000000000E+02  0.182721821694E+04
POLYGONS                  38                 152
3                   0                   1                   3
3                   0                   3                   2
3                   4                   5                   1
3                   4                   1                   0
3                   6                   7                   5
3                   6                   5                   4
3                   8                   9                   7
3                   8                   7                   6
3                  10                  11                   9
3                  10                   9                   8
3                  12                  13                  11
3                  12                  11                  10
3                  14                  15                  13
3                  14                  13                  12
3                  16                  17                  15
3                  16                  15                  14
3                  18                  19                  17
3                  18                  17                  16
3                  20                  21                  19
3                  20                  19                  18
3                  22                  23                  21
3                  22                  21                  20
3                  24                  25                  23
3                  24                  23                  22
3                  26                  27                  25
3                  26                  25                  24
3                  28                  29                  27
3                  28                  27                  26
3                  30                  31                  29
3                  30                  29                  28
3                  32                  33                  31
3                  32                  31                  30
3                  34                  35                  33
3                  34                  33                  32
3                  36                  37                  35
3                  36                  35                  34
3                  38                  39                  37
3                  38                  37                  36
CELL_DATA                  38
NORMALS normals float
  0.180915859854E+00 -0.180916798900E+00 -0.966715347726E+00
  0.180915859854E+00 -0.180916798900E+00 -0.966715347726E+00
  0.180915851566E+00 -0.180917043830E+00 -0.966715303439E+00
  0.180915851566E+00 -0.180917043830E+00 -0.966715303439E+00
  0.180915852842E+00 -0.180917006127E+00 -0.966715310257E+00
  0.180915852842E+00 -0.180917006127E+00 -0.966715310257E+00
  0.180915854981E+00 -0.180916942893E+00 -0.966715321690E+00
  0.180915854981E+00 -0.180916942893E+00 -0.966715321690E+00
  0.180915853295E+00 -0.180916992744E+00 -0.966715312676E+00
  0.180915853295E+00 -0.180916992744E+00 -0.966715312676E+00
  0.180915852996E+00 -0.180917001566E+00 -0.966715311081E+00
  0.180915852996E+00 -0.180917001566E+00 -0.966715311081E+00
  0.180915856892E+00 -0.180916886430E+00 -0.966715331899E+00
  0.180915856892E+00 -0.180916886430E+00 -0.966715331899E+00
  0.180915854245E+00 -0.180916964648E+00 -0.966715317757E+00
  0.180915854245E+00 -0.180916964648E+00 -0.966715317757E+00
  0.180915849537E+00 -0.180917103788E+00 -0.966715292598E+00
  0.180915849537E+00 -0.180917103788E+00 -0.966715292598E+00
  0.180915860685E+00 -0.180916774350E+00 -0.966715352165E+00
  0.180915860685E+00 -0.180916774350E+00 -0.966715352165E+00
  0.180915849537E+00 -0.180917103784E+00 -0.966715292599E+00
  0.180915849537E+00 -0.180917103784E+00 -0.966715292599E+00
  0.180915854245E+00 -0.180916964648E+00 -0.966715317757E+00
  0.180915854245E+00 -0.180916964648E+00 -0.966715317757E+00
  0.180915852078E+00 -0.180917028692E+00 -0.966715306177E+00
  0.180915852078E+00 -0.180917028692E+00 -0.966715306177E+00
  0.180915859743E+00 -0.180916802166E+00 -0.966715347135E+00
  0.180915859743E+00 -0.180916802166E+00 -0.966715347135E+00
  0.180915852092E+00 -0.180917028295E+00 -0.966715306248E+00
  0.180915852092E+00 -0.180917028295E+00 -0.966715306248E+00
  0.180915853433E+00 -0.180916988644E+00 -0.966715313418E+00
  0.180915853433E+00 -0.180916988645E+00 -0.966715313418E+00
  0.180915841619E+00 -0.180917337778E+00 -0.966715250290E+00
  0.180915841619E+00 -0.180917337778E+00 -0.966715250290E+00
  0.180915868682E+00 -0.180916538002E+00 -0.966715394900E+00
  0.180915868682E+00 -0.180916538003E+00 -0.966715394900E+00
  0.180915890589E+00 -0.180915890612E+00 -0.966715511956E+00
  0.180915890589E+00 -0.180915890613E+00 -0.966715511956E+00
POINT_DATA                  40
SCALARS mu float 1
LOOKUP_TABLE default
 -0.570097959462E+01
 -0.570097959462E+01
 -0.566965468023E+01
 -0.566965468023E+01
 -0.575956989265E+01
 -0.575956989265E+01
 -0.584690419646E+01
 -0.584690419646E+01
 -0.595883091545E+01
 -0.595883091545E+01
 -0.608736704137E+01
 -0.608736704137E+01
 -0.622311497767E+01
 -0.622311497767E+01
 -0.635121302625E+01
 -0.635121302625E+01
 -0.645433965623E+01
 -0.645433965623E+01
 -0.651266463821E+01
 -0.651266463821E+01
 -0.650335770304E+01
 -0.650335770304E+01
 -0.640022999023E+01
 -0.640022999023E+01
 -0.617568602238E+01
 -0.617568602238E+01
 -0.580674456405E+01
 -0.580674456405E+01
 -0.528583624237E+01
 -0.528583624237E+01
 -0.462043735590E+01
 -0.462043735590E+01
 -0.382000652639E+01
 -0.382000652639E+01
 -0.286919273343E+01
 -0.286919273343E+01
 -0.167508027377E+01
 -0.167508027377E+01
  0.000000000000E+00
  0.000000000000E+00
