# vtk DataFile Version 3.0
MachLine results file. Generated by MachLine, USU AeroLab (c) 2022.
ASCII
DATASET POLYDATA
POINTS                 704 float
  0.126519605654E-04  0.000000000000E+00  0.562355047506E-21
  0.241337823186E+00  0.000000000000E+00 -0.321189270781E+00
  0.241337823186E+00  0.000000000000E+00  0.321189270781E+00
  0.805205498799E+00  0.000000000000E+00 -0.577217936073E+00
  0.805205498799E+00  0.000000000000E+00  0.577217936073E+00
  0.887751289417E+00  0.887727312039E+00  0.710498604260E-21
  0.112907847682E+01  0.887730986680E+00 -0.321189187143E+00
  0.112907847682E+01  0.887730986680E+00  0.321189187143E+00
  0.169294598601E+01  0.887733669065E+00 -0.577216010032E+00
  0.169294598601E+01  0.887733669065E+00  0.577216010032E+00
  0.170834807023E+01  0.000000000000E+00 -0.810527123658E+00
  0.170834807023E+01  0.000000000000E+00  0.810527123658E+00
  0.248903931083E+01  0.248899995385E+01 -0.874670635073E-21
  0.259608815541E+01  0.887735263203E+00 -0.810524743095E+00
  0.259608815541E+01  0.887735263203E+00  0.810524743095E+00
  0.273036408224E+01  0.248900628290E+01 -0.321182630374E+00
  0.273036408224E+01  0.248900628290E+01  0.321182630374E+00
  0.303448039905E+01  0.000000000000E+00 -0.101618235016E+01
  0.303448039905E+01  0.000000000000E+00  0.101618235016E+01
  0.329422934921E+01  0.248901096909E+01 -0.577207368630E+00
  0.329422934921E+01  0.248901096909E+01  0.577207368630E+00
  0.392222036588E+01  0.887736542344E+00 -0.101617982974E+01
  0.392222036588E+01  0.887736542344E+00  0.101617982974E+01
  0.419737073771E+01  0.248901370176E+01 -0.810515539950E+00
  0.419737073771E+01  0.248901370176E+01  0.810515539950E+00
  0.484297403784E+01  0.000000000000E+00 -0.116654292549E+01
  0.484297403784E+01  0.000000000000E+00  0.116654292549E+01
  0.525574209669E+01  0.525568006059E+01  0.919127706282E-21
  0.549706269722E+01  0.525569008369E+01 -0.321172674883E+00
  0.549706269722E+01  0.525569008369E+01  0.321172674883E+00
  0.552350193050E+01  0.248901576016E+01 -0.101617045537E+01
  0.552350193050E+01  0.248901576016E+01  0.101617045537E+01
  0.573071364027E+01  0.887738074250E+00 -0.116654023179E+01
  0.573071364027E+01  0.887738074250E+00  0.116654023179E+01
  0.606092540700E+01  0.525569780390E+01 -0.577194223809E+00
  0.606092540700E+01  0.525569780390E+01  0.577194223809E+00
  0.696406435772E+01  0.525570225911E+01 -0.810501495253E+00
  0.696406435772E+01  0.525570225911E+01  0.810501495253E+00
  0.710110244725E+01  0.000000000000E+00 -0.118653785379E+01
  0.710110244725E+01  0.000000000000E+00  0.118653785379E+01
  0.733199476108E+01  0.248901797429E+01 -0.116653082381E+01
  0.733199476108E+01  0.248901797429E+01  0.116653082381E+01
  0.798884231224E+01  0.887739952659E+00 -0.118653484918E+01
  0.798884231224E+01  0.887739952659E+00  0.118653484918E+01
  0.829019436754E+01  0.525570550047E+01 -0.101615609681E+01
  0.829019436754E+01  0.525570550047E+01  0.101615609681E+01
  0.959012231666E+01  0.248902049225E+01 -0.118652548329E+01
  0.959012231666E+01  0.248902049225E+01  0.118652548329E+01
  0.963517234042E+01  0.000000000000E+00 -0.105134013799E+01
  0.963517234042E+01  0.000000000000E+00  0.105134013799E+01
  0.969850901293E+01  0.969841977431E+01  0.132215984794E-20
  0.993982521354E+01  0.969843372049E+01 -0.321160072604E+00
  0.993982521354E+01  0.969843372049E+01  0.321160072604E+00
  0.100986866320E+02  0.525570875751E+01 -0.116651636918E+01
  0.100986866320E+02  0.525570875751E+01  0.116651636918E+01
  0.105036840877E+02  0.969844527635E+01 -0.577177569927E+00
  0.105036840877E+02  0.969844527635E+01  0.577177569927E+00
  0.105229111892E+02  0.887741090594E+00 -0.105133538323E+01
  0.105229111892E+02  0.887741090594E+00  0.105133538323E+01
  0.114068213388E+02  0.969845190796E+01 -0.810483672296E+00
  0.114068213388E+02  0.969845190796E+01  0.810483672296E+00
  0.121241909499E+02  0.248902187397E+01 -0.105132892637E+01
  0.121241909499E+02  0.248902187397E+01  0.105132892637E+01
  0.121689892231E+02  0.000000000000E+00 -0.831768227425E+00
  0.121689892231E+02  0.000000000000E+00  0.831768227425E+00
  0.123568132044E+02  0.525571225870E+01 -0.118651106632E+01
  0.123568132044E+02  0.525571225870E+01  0.118651106632E+01
  0.127329503290E+02  0.969845664583E+01 -0.101613783608E+01
  0.127329503290E+02  0.969845664583E+01  0.101613783608E+01
  0.130567282269E+02  0.887741344198E+00 -0.831766939184E+00
  0.130567282269E+02  0.887741344198E+00  0.831766939184E+00
  0.144304819265E+02  0.000000000000E+00 -0.598619727153E+00
  0.144304819265E+02  0.000000000000E+00  0.598619727153E+00
  0.145414403153E+02  0.969846122735E+01 -0.116649794601E+01
  0.145414403153E+02  0.969846122735E+01  0.116649794601E+01
  0.146580087601E+02  0.248902230874E+01 -0.831760267156E+00
  0.146580087601E+02  0.248902230874E+01  0.831760267156E+00
  0.148908813304E+02  0.525571414768E+01 -0.105131710070E+01
  0.148908813304E+02  0.525571414768E+01  0.105131710070E+01
  0.153182209608E+02  0.887741339550E+00 -0.598618454631E+00
  0.153182209608E+02  0.887741339550E+00  0.598618454631E+00
  0.160569691435E+02  0.160568576083E+02 -0.123937860808E-19
  0.162535059822E+02  0.000000000000E+00 -0.402688758380E+00
  0.162535059822E+02  0.000000000000E+00  0.402688758380E+00
  0.162982821514E+02  0.160568737935E+02 -0.321148471589E+00
  0.162982821514E+02  0.160568737935E+02  0.321148471589E+00
  0.167995665875E+02  0.969846598237E+01 -0.118649266211E+01
  0.167995665875E+02  0.969846598237E+01  0.118649266211E+01
  0.168621384501E+02  0.160568888784E+02 -0.577162233686E+00
  0.168621384501E+02  0.160568888784E+02  0.577162233686E+00
  0.169195013525E+02  0.248902244548E+01 -0.598611100190E+00
  0.169195013525E+02  0.248902244548E+01  0.598611100190E+00
  0.171412449681E+02  0.887741128368E+00 -0.402686957665E+00
  0.171412449681E+02  0.887741128368E+00  0.402686957665E+00
  0.174246977821E+02  0.525571498720E+01 -0.831747278469E+00
  0.174246977821E+02  0.525571498720E+01  0.831747278469E+00
  0.176054674038E+02  0.000000000000E+00 -0.256503775503E+00
  0.176054674038E+02  0.000000000000E+00  0.256503775503E+00
  0.177652727458E+02  0.160568975118E+02 -0.810467247913E+00
  0.177652727458E+02  0.160568975118E+02  0.810467247913E+00
  0.184932062998E+02  0.887740932436E+00 -0.256501115946E+00
  0.184932062998E+02  0.887740932436E+00  0.256501115946E+00
  0.185471752103E+02  0.000000000000E+00 -0.155241232598E+00
  0.185471752103E+02  0.000000000000E+00  0.155241232598E+00
  0.187425242869E+02  0.248902235353E+01 -0.402678668949E+00
  0.187425242869E+02  0.248902235353E+01  0.402678668949E+00
  0.190914003589E+02  0.160569036267E+02 -0.101612099104E+01
  0.190914003589E+02  0.160569036267E+02  0.101612099104E+01
  0.191747712084E+02  0.000000000000E+00 -0.880470607430E-01
  0.191747712084E+02  0.000000000000E+00  0.880470607430E-01
  0.193336329652E+02  0.969846866593E+01 -0.105129990302E+01
  0.193336329652E+02  0.969846866593E+01  0.105129990302E+01
  0.194349140332E+02  0.887740810086E+00 -0.155237883304E+00
  0.194349140332E+02  0.887740810086E+00  0.155237883304E+00
  0.195808057202E+02  0.000000000000E+00 -0.446785585749E-01
  0.195808057202E+02  0.000000000000E+00  0.446785585749E-01
  0.196861911375E+02  0.525571531461E+01 -0.598597586151E+00
  0.196861911375E+02  0.525571531461E+01  0.598597586151E+00
  0.198384770952E+02  0.000000000000E+00 -0.171993754443E-01
  0.198384770952E+02  0.000000000000E+00  0.171993754443E-01
  0.199999898725E+02  0.000000000000E+00 -0.756098632096E-06
  0.200625119080E+02  0.887740744093E+00 -0.880434174386E-01
  0.200625119080E+02  0.887740744093E+00  0.880434174386E-01
  0.200944855388E+02  0.248902223741E+01 -0.256492089248E+00
  0.200944855388E+02  0.248902223741E+01  0.256492089248E+00
  0.204685445061E+02  0.887740708287E+00 -0.446748502564E-01
  0.204685445061E+02  0.887740708287E+00  0.446748502564E-01
  0.207262158826E+02  0.887740688002E+00 -0.171956769893E-01
  0.207262158826E+02  0.887740688002E+00  0.171956769893E-01
  0.208877287311E+02  0.887749751077E+00 -0.110078740640E-05
  0.208998891244E+02  0.160569094291E+02 -0.116648093167E+01
  0.208998891244E+02  0.160569094291E+02  0.116648093167E+01
  0.210361932370E+02  0.248902215036E+01 -0.155228482914E+00
  0.210361932370E+02  0.248902215036E+01  0.155228482914E+00
  0.215092139837E+02  0.525571531087E+01 -0.402664652400E+00
  0.215092139837E+02  0.525571531087E+01  0.402664652400E+00
  0.216637910993E+02  0.248902209681E+01 -0.880338689410E-01
  0.216637910993E+02  0.248902209681E+01  0.880338689410E-01
  0.218674489318E+02  0.969846999059E+01 -0.831729480233E+00
  0.218674489318E+02  0.969846999059E+01  0.831729480233E+00
  0.220698236936E+02  0.248902206481E+01 -0.446652472791E-01
  0.220698236936E+02  0.248902206481E+01  0.446652472791E-01
  0.223274950693E+02  0.248902204535E+01 -0.171860540840E-01
  0.223274950693E+02  0.248902204535E+01  0.171860540840E-01
  0.224890013147E+02  0.248903771151E+01 -0.190436902454E-05
  0.228611752023E+02  0.525571522818E+01 -0.256477766253E+00
  0.228611752023E+02  0.525571522818E+01  0.256477766253E+00
  0.231580142383E+02  0.160569153424E+02 -0.118647564989E+01
  0.231580142383E+02  0.160569153424E+02  0.118647564989E+01
  0.238028828924E+02  0.525571514916E+01 -0.155214014110E+00
  0.238028828924E+02  0.525571514916E+01  0.155214014110E+00
  0.238044160431E+02  0.238042990143E+02  0.000000000000E+00
  0.240457301479E+02  0.238043141026E+02 -0.321143466624E+00
  0.240457301479E+02  0.238043141026E+02  0.321143466624E+00
  0.241289420811E+02  0.969847052426E+01 -0.598579590695E+00
  0.241289420811E+02  0.969847052426E+01  0.598579590695E+00
  0.244304807534E+02  0.525571509695E+01 -0.880193388805E-01
  0.244304807534E+02  0.525571509695E+01  0.880193388805E-01
  0.246095849247E+02  0.238043307095E+02 -0.577155615892E+00
  0.246095849247E+02  0.238043307095E+02  0.577155615892E+00
  0.248365133482E+02  0.525571506448E+01 -0.446506927993E-01
[...]
POINT_DATA                 704
SCALARS phi float 1
LOOKUP_TABLE default
 -0.125779587936E-04
 -0.205237995260E+00
 -0.274614463868E+00
 -0.738156657629E+00
 -0.862834988025E+00
 -0.882558800141E+00
 -0.108778623086E+01
 -0.115716268140E+01
 -0.162070492676E+01
 -0.174538284113E+01
 -0.161081947368E+01
 -0.178589228796E+01
 -0.247448083023E+01
 -0.249336739222E+01
 -0.266843969230E+01
 -0.267970656721E+01
 -0.274908160150E+01
 -0.290698457477E+01
 -0.312647865297E+01
 -0.321262325915E+01
 -0.333729930699E+01
 -0.378953239076E+01
 -0.400902592455E+01
 -0.408528500894E+01
 -0.426035532115E+01
 -0.468866142386E+01
 -0.494063319257E+01
 -0.522500107182E+01
 -0.543022373750E+01
 -0.549959662142E+01
 -0.538144901425E+01
 -0.560094052318E+01
 -0.557120889628E+01
 -0.582318008316E+01
 -0.596313823164E+01
 -0.608781144022E+01
 -0.683579765510E+01
 -0.701086493367E+01
 -0.693142251947E+01
 -0.718771316693E+01
 -0.716312508219E+01
 -0.741509423695E+01
 -0.781397028650E+01
 -0.807026028497E+01
 -0.813196051826E+01
 -0.835144892576E+01
 -0.940588535799E+01
 -0.966217333344E+01
 -0.946527181274E+01
 -0.969235992780E+01
 -0.964178208430E+01
 -0.984700173684E+01
 -0.991637189868E+01
 -0.991363603380E+01
 -0.101656020664E+02
 -0.103799128553E+02
 -0.105045824667E+02
 -0.103478187586E+02
 -0.105749058466E+02
 -0.112525707154E+02
 -0.114276341442E+02
 -0.119397332735E+02
 -0.121668189669E+02
 -0.120079819341E+02
 -0.121876427994E+02
 -0.121563953281E+02
 -0.124126801895E+02
 -0.125487326122E+02
 -0.127682170754E+02
 -0.128905286596E+02
 -0.130701892467E+02
 -0.142814269729E+02
 -0.144107280626E+02
 -0.143304058804E+02
 -0.145823679336E+02
 -0.144824439658E+02
 -0.146621031117E+02
 -0.146902424595E+02
 -0.149173255985E+02
 -0.151639737271E+02
 -0.152932745419E+02
 -0.159630513525E+02
 -0.161149485137E+02
 -0.162019287666E+02
 -0.161682690839E+02
 -0.162376367399E+02
 -0.165731648743E+02
 -0.168294457604E+02
 -0.167011780455E+02
 -0.168258443442E+02
 -0.167558889663E+02
 -0.168851881926E+02
 -0.169974952767E+02
 -0.170844751407E+02
 -0.172329519269E+02
 -0.174126082672E+02
 -0.174747901482E+02
 -0.175301946332E+02
 -0.175738330849E+02
 -0.177488929661E+02
 -0.183573369146E+02
 -0.184127408251E+02
 -0.184219261612E+02
 -0.184554580674E+02
 -0.185894095503E+02
 -0.186763876239E+02
 -0.188699936580E+02
 -0.190894744827E+02
 -0.190531082550E+02
 -0.190721263066E+02
 -0.191070101372E+02
 -0.193340895616E+02
 -0.193044729295E+02
 -0.193380041122E+02
 -0.194614516265E+02
 -0.194711021376E+02
 -0.195063977427E+02
 -0.196356940499E+02
 -0.197205836065E+02
 -0.197242986494E+02
 -0.198830091295E+02
 -0.199356569207E+02
 -0.199546741854E+02
 -0.199492511886E+02
 -0.200046531493E+02
 -0.203439983968E+02
 -0.203536481069E+02
 -0.206031303772E+02
 -0.206068446212E+02
 -0.207655555344E+02
 -0.206516657308E+02
 -0.209036241090E+02
 -0.208963872087E+02
 -0.209299163610E+02
 -0.213399182931E+02
 -0.214268933392E+02
 -0.215275712036E+02
 -0.215465864058E+02
 -0.216497191872E+02
 -0.218293716832E+02
 -0.219359126818E+02
 -0.219455603177E+02
 -0.221950446635E+02
 -0.221987568290E+02
 -0.223574621301E+02
 -0.226997599314E+02
 -0.227551587984E+02
 -0.228944235729E+02
 -0.231507007844E+02
 -0.236468959593E+02
 -0.236804219863E+02
 -0.236651831560E+02
 -0.238704025185E+02
 -0.239397690934E+02
 -0.239231648194E+02
 -0.240524572397E+02
 -0.242780799594E+02
 -0.242970920232E+02
 -0.244033101412E+02
 -0.245279750105E+02
 -0.246864214407E+02
 -0.246960659328E+02
 -0.249455534244E+02
 -0.249492624441E+02
 -0.251079595723E+02
 -0.252759643732E+02
 -0.254510227230E+02
 -0.254282699660E+02
 -0.256553454824E+02
 -0.257566853249E+02
 -0.258436564429E+02
 -0.265721243760E+02
 -0.267916036293E+02
 -0.271165269627E+02
 -0.271719218754E+02
 -0.279709785493E+02
 -0.281506274329E+02
 -0.280636630003E+02
 -0.280971850596E+02
 -0.283537959329E+02
 -0.286057527231E+02
 -0.286948470072E+02
 -0.287138550972E+02
 -0.291031884923E+02
 -0.291128290081E+02
 -0.293623204784E+02
 -0.293660255207E+02
 -0.295247130573E+02
 -0.302444221122E+02
 -0.303737109081E+02
 -0.305965532776E+02
 -0.308528289009E+02
 -0.314035184520E+02
 -0.316087429815E+02
 -0.316781105454E+02
 -0.320779444720E+02
 -0.321649119508E+02
 -0.321416499337E+02
 -0.322663161102E+02
 -0.330143068010E+02
 -0.331893665507E+02
 -0.331303975546E+02
 -0.333574707558E+02
 -0.334377842132E+02
 -0.334931754763E+02
 -0.343849202598E+02
 -0.344184386637E+02
 -0.343104673258E+02
 -0.345299480150E+02
 -0.350161042727E+02
 -0.350351087046E+02
 -0.354244457614E+02
 -0.354340826179E+02
 -0.356835777498E+02
 -0.356872791323E+02
 -0.356731058254E+02
 -0.358527531411E+02
 -0.358459592059E+02
 -0.360921393543E+02
 -0.363440975953E+02
 -0.378090618303E+02
 -0.379465512093E+02
 -0.380758384351E+02
 -0.380142911954E+02
 -0.380836612251E+02
 -0.383348952570E+02
 -0.385911723320E+02
 -0.385472012040E+02
 -0.386718706397E+02
 -0.394198599146E+02
 -0.395949231541E+02
 -0.397800735508E+02
 -0.398670394560E+02
 -0.407160217419E+02
 -0.409355060097E+02
 -0.408687399893E+02
 -0.410958138774E+02
 -0.411399132918E+02
 -0.411953029788E+02
 -0.420870493423E+02
 -0.421205661687E+02
 -0.423142507230E+02
 -0.425194818038E+02
 -0.425888545680E+02
 -0.424976949462E+02
 -0.427496568018E+02
 -0.427182333579E+02
 -0.427372362116E+02
 -0.430523952049E+02
 -0.431770682537E+02
 -0.431265748481E+02
 -0.431362101261E+02
 -0.433857068375E+02
 -0.433894066413E+02
 -0.434114482915E+02
 -0.435910970381E+02
 -0.435480855474E+02
 -0.439250559628E+02
 -0.441001230686E+02
 -0.447404519813E+02
 -0.449967326713E+02
 -0.451321993465E+02
 -0.452212154447E+02
 -0.454407036735E+02
 -0.453374273922E+02
 -0.454068023409E+02
 -0.456848937441E+02
 -0.458141824015E+02
 -0.458703473012E+02
 -0.459950232336E+02
 -0.467675075452E+02
 -0.467430059075E+02
 -0.469180760940E+02
 -0.469727396618E+02
 -0.470421160587E+02
 -0.470028937457E+02
 -0.472548595980E+02
 -0.472742975677E+02
 -0.475013747365E+02
 -0.475184161022E+02
 -0.476053834434E+02
 -0.475056575863E+02
 -0.476303354269E+02
 -0.476754957660E+02
 -0.478807241737E+02
 -0.479501014296E+02
 -0.480391703410E+02
 -0.482586617200E+02
 -0.481673092839E+02
 -0.483725414933E+02
 -0.484419192243E+02
 -0.484301357330E+02
 -0.483783210788E+02
 -0.485533932984E+02
 -0.484136469689E+02
 -0.485383259385E+02
 -0.485695736372E+02
 -0.486432670052E+02
 -0.486353641379E+02
 -0.487047421194E+02
 -0.486821388193E+02
 -0.487026176300E+02
 -0.487133996475E+02
 -0.487748020325E+02
 -0.488441801418E+02
 -0.488484991897E+02
 -0.489178773634E+02
 -0.488782558435E+02
 -0.489336469704E+02
 -0.488873672116E+02
 -0.489567454179E+02
 -0.489078460229E+02
 -0.489772242459E+02
 -0.489186280348E+02
 -0.489880062073E+02
 -0.489054610938E+02
 -0.490301406872E+02
 -0.490884511875E+02
 -0.491375089915E+02
 -0.491791113407E+02
 -0.491682840495E+02
 -0.492929639736E+02
 -0.493077258891E+02
 -0.494324059849E+02
 -0.492456520343E+02
 -0.495019367180E+02
 -0.492863073228E+02
 -0.494613807407E+02
 -0.493814193263E+02
 -0.495060995108E+02
 -0.494202873828E+02
 -0.495449676131E+02
 -0.494407662109E+02
 -0.495654464652E+02
 -0.494515521228E+02
 -0.495762322122E+02
 -0.496744824918E+02
 -0.498939759432E+02
 -0.497567390736E+02
 -0.498449012065E+02
 -0.498253918903E+02
 -0.498589101590E+02
 -0.497781256044E+02
 -0.499531996823E+02
 -0.498170062289E+02
 -0.499966585248E+02
 -0.499196693730E+02
 -0.498208458914E+02
 -0.500728149161E+02
 -0.500409487530E+02
 -0.502160231810E+02
 -0.501803868991E+02
 -0.503554615098E+02
 -0.502540841786E+02
 -0.504291588843E+02
 -0.502929522604E+02
 -0.504680270156E+02
 -0.503134311016E+02
 -0.504885058828E+02
 -0.503242132561E+02
 -0.504992877682E+02
 -0.504565759035E+02
 -0.504755802007E+02
 -0.505824729879E+02
 -0.508019676561E+02
 -0.507527552362E+02
 -0.508765516024E+02
 -0.508649173923E+02
 -0.508745541143E+02
 -0.509815408136E+02
 -0.511240493808E+02
 -0.511277506290E+02
 -0.510742915242E+02
 -0.512937868612E+02
 -0.512864353695E+02
 -0.513371148076E+02
 -0.515566104998E+02
 -0.514561625242E+02
 -0.517081336299E+02
 -0.514765530231E+02
 -0.516960489014E+02
 -0.515502503383E+02
 -0.517697463139E+02
 -0.515891184384E+02
 -0.518086144649E+02
 -0.516095972893E+02
 -0.518290933426E+02
 -0.516203794273E+02
 -0.518398751224E+02
 -0.517794984841E+02
 -0.520065797283E+02
 -0.520904518516E+02
 -0.522197440675E+02
 -0.520636089693E+02
 -0.523198968181E+02
 -0.521576542882E+02
 -0.523128611570E+02
 -0.524444909727E+02
 -0.523641496353E+02
 -0.526161219594E+02
 -0.528559683960E+02
 -0.531079413891E+02
 -0.531187917981E+02
 -0.533707651470E+02
 -0.532582300754E+02
 -0.535102036115E+02
 -0.533319274225E+02
 -0.535839010568E+02
 -0.533707955394E+02
 -0.536227692252E+02
 -0.533912743989E+02
 -0.536432481118E+02
 -0.534020564639E+02
 -0.536540297530E+02
 -0.536989224656E+02
 -0.539552123861E+02
 -0.539239742509E+02
 -0.540109451671E+02
 -0.540188316992E+02
 -0.541970037025E+02
 -0.543481083930E+02
 -0.543222076265E+02
 -0.545018637738E+02
 -0.545974560818E+02
 -0.548245406771E+02
 -0.546069137539E+02
 -0.548632048851E+02
 -0.550987289336E+02
 -0.553550207293E+02
 -0.552838139924E+02
 -0.553392087074E+02
 -0.553615524479E+02
 -0.556178445977E+02
 -0.555009945764E+02
 -0.557572869128E+02
 -0.555746881620E+02
 -0.558309805965E+02
 -0.556135562950E+02
 -0.558698487811E+02
 -0.556340351630E+02
 -0.558903276762E+02
 -0.556448208926E+02
 -0.559011129612E+02
 -0.562309500306E+02
 -0.562644718949E+02
 -0.562327700323E+02
 -0.564598567054E+02
 -0.562721646945E+02
 -0.564533905443E+02
 -0.566070870652E+02
 -0.565956534333E+02
 -0.567249495362E+02
 -0.568621340377E+02
 -0.568811419342E+02
 -0.571401656408E+02
 -0.573198246262E+02
 -0.571407616228E+02
 -0.573678493049E+02
 -0.572704755230E+02
 -0.572801158459E+02
 -0.575296075093E+02
 -0.575333123590E+02
 -0.576920064292E+02
 -0.576325769841E+02
 -0.578596651305E+02
 -0.578954043914E+02
 -0.581224927638E+02
 -0.580348427815E+02
 -0.582619312679E+02
 -0.581085363957E+02
 -0.583356249408E+02
 -0.581474045437E+02
 -0.583744931193E+02
 -0.581678834198E+02
 -0.583949720112E+02
 -0.581786690134E+02
 -0.584057573149E+02
 -0.584291720852E+02
 -0.585161469341E+02
 -0.587345313929E+02
 -0.588951066841E+02
 -0.587754798651E+02
 -0.589551403639E+02
 -0.590312885159E+02
 -0.594136115822E+02
 -0.595429106145E+02
 -0.596834715973E+02
 -0.598631326915E+02
 -0.597890156195E+02
 -0.598444143001E+02
 -0.601752870282E+02
 -0.603549483296E+02
 -0.604381144705E+02
 -0.606177758544E+02
 -0.605775528786E+02
 -0.607572142999E+02
 -0.606512465020E+02
 -0.608309079416E+02
 -0.607361516478E+02
 -0.607696774954E+02
 -0.606901184473E+02
 -0.608697798962E+02
 -0.607105973257E+02
 -0.608902587794E+02
 -0.607213790747E+02
 -0.609010405101E+02
 -0.610489258773E+02
 -0.611782265522E+02
 -0.611611509347E+02
 -0.612881908667E+02
 -0.612471302677E+02
 -0.613341081576E+02
 -0.613673356482E+02
 -0.613863475359E+02
 -0.613959352134E+02
 -0.617756771297E+02
 -0.617853214472E+02
 -0.619569176365E+02
 -0.620862190103E+02
 -0.620348091134E+02
 -0.620385179591E+02
 -0.621972208358E+02
 -0.624487330768E+02
 -0.625780346905E+02
 -0.626069738020E+02
 -0.626623756065E+02
 -0.627115567306E+02
 -0.628408584338E+02
 -0.628509989327E+02
 -0.629803006749E+02
 -0.628824483734E+02
 -0.629694280658E+02
 -0.629246925570E+02
 -0.630539943180E+02
 -0.629635607104E+02
 -0.630928624807E+02
 -0.629840395891E+02
 -0.631133413642E+02
 -0.629948251313E+02
 -0.631241269095E+02
 -0.633113267138E+02
 -0.634027569857E+02
 -0.634803021943E+02
 -0.635541098224E+02
 -0.635876388372E+02
 -0.637904401401E+02
 -0.638774206754E+02
 -0.641852900251E+02
 -0.642043050984E+02
 -0.642422919075E+02
 -0.642976956649E+02
 -0.642822517906E+02
 -0.643692326309E+02
 -0.645450792378E+02
 -0.646320601822E+02
 -0.645936352958E+02
 -0.646032828061E+02
 -0.646845176480E+02
 -0.647714986346E+02
 -0.647582112726E+02
 -0.648451922786E+02
 -0.647970832184E+02
 -0.648840642339E+02
 -0.648527634851E+02
 -0.648564755264E+02
 -0.648175620972E+02
 -0.649045431176E+02
 -0.648283476399E+02
 -0.649153286743E+02
 -0.650151848341E+02
 -0.650412554488E+02
 -0.651027604224E+02
 -0.651549248614E+02
 -0.651502798814E+02
 -0.652056846262E+02
 -0.651894241301E+02
 -0.652229551992E+02
 -0.656420991163E+02
 -0.656975042661E+02
 -0.658206043291E+02
 -0.658396215034E+02
 -0.659049189786E+02
 -0.659603242622E+02
 -0.660443573888E+02
 -0.660997627207E+02
 -0.660974121008E+02
 -0.661309442848E+02
 -0.661180585982E+02
 -0.661734639509E+02
 -0.661569229592E+02
 -0.662123283217E+02
 -0.661774018380E+02
 -0.662328072055E+02
 -0.661881873808E+02
 -0.662435927652E+02
 -0.662289495975E+02
 -0.662385992261E+02
 -0.663238089298E+02
 -0.663629865261E+02
 -0.663962106516E+02
 -0.664880777855E+02
 -0.664917919512E+02
 -0.665892313341E+02
 -0.666227640274E+02
 -0.666505129021E+02
 -0.667285998820E+02
 -0.667476182636E+02
 -0.668520587805E+02
 -0.668855916608E+02
 -0.669914971905E+02
 -0.670250301316E+02
 -0.670651908150E+02
 -0.670987237794E+02
 -0.671040627608E+02
 -0.671375957356E+02
 -0.671245416396E+02
 -0.671580746196E+02
 -0.671369375641E+02
 -0.671465884438E+02
 -0.671353195976E+02
 -0.671688525934E+02
 -0.672174054595E+02
 -0.672411169239E+02
 -0.672204191138E+02
 -0.672394380911E+02
 -0.672612235332E+02
 -0.673960733359E+02
 -0.673997887680E+02
 -0.674832389745E+02
 -0.675022582046E+02
 -0.675585044883E+02
 -0.676226773842E+02
 -0.676416966994E+02
 -0.676287567947E+02
 -0.676384083380E+02
 -0.676963710086E+02
 -0.677153903523E+02
 -0.677352429544E+02
 -0.677542623097E+02
 -0.677557218332E+02
 -0.677747411937E+02
 -0.677665073759E+02
 -0.677855267502E+02
 -0.678130644291E+02
 -0.678265131971E+02
 -0.678379164948E+02
 -0.678878925657E+02
 -0.678916086978E+02
 -0.678915842395E+02
 -0.679012360898E+02
 -0.680310226488E+02
 -0.680406746208E+02
 -0.680503257135E+02
 -0.681047162731E+02
 -0.681143682840E+02
 -0.681435882188E+02
 -0.681532402435E+02
 -0.681507124252E+02
 -0.681544289076E+02
 -0.681640670977E+02
 -0.681737191281E+02
 -0.681748450556E+02
 -0.681844970979E+02
 -0.681984743707E+02
 -0.682052994230E+02
 -0.682110872760E+02
 -0.682901508341E+02
 -0.682938674714E+02
 -0.683131465867E+02
 -0.683638520429E+02
 -0.683675687374E+02
 -0.684027164039E+02
 -0.684064331164E+02
 -0.684231952827E+02
 -0.684269120019E+02
 -0.684339808254E+02
 -0.684376975550E+02
 -0.684430807520E+02
 -0.684457089229E+02
 -0.684479369658E+02
 -0.684525854136E+02
 -0.685262867718E+02
 -0.685651511949E+02
 -0.685856301033E+02
 -0.685964162041E+02
 -0.685856301229E+02
 -0.207655557721E+02
 -0.198830092928E+02
 -0.435480868331E+02
 -0.358459604298E+02
 -0.683131466212E+02
 -0.680503257709E+02
 -0.295247140303E+02
 -0.251079602390E+02
 -0.685651512152E+02
 -0.685262867935E+02
 -0.621972213764E+02
 -0.576920072586E+02
 -0.512864364908E+02
 -0.223574625415E+02
 -0.684525854387E+02
 -0.650151851576E+02
 -0.666505130861E+02
 -0.675585045907E+02
SCALARS phi_mu float 1
LOOKUP_TABLE default
 -0.125779587936E-04
 -0.205237995260E+00
 -0.274614463868E+00
 -0.738156657629E+00
 -0.862834988025E+00
 -0.882558800141E+00
 -0.108778623086E+01
 -0.115716268140E+01
 -0.162070492676E+01
 -0.174538284113E+01
 -0.161081947368E+01
 -0.178589228796E+01
 -0.247448083023E+01
 -0.249336739222E+01
 -0.266843969230E+01
 -0.267970656721E+01
 -0.274908160150E+01
 -0.290698457477E+01
 -0.312647865297E+01
 -0.321262325915E+01
 -0.333729930699E+01
 -0.378953239076E+01
 -0.400902592455E+01
 -0.408528500894E+01
 -0.426035532115E+01
 -0.468866142386E+01
 -0.494063319257E+01
 -0.522500107182E+01
 -0.543022373750E+01
 -0.549959662142E+01
 -0.538144901425E+01
 -0.560094052318E+01
 -0.557120889628E+01
 -0.582318008316E+01
 -0.596313823164E+01
 -0.608781144022E+01
 -0.683579765510E+01
 -0.701086493367E+01
 -0.693142251947E+01
 -0.718771316693E+01
 -0.716312508219E+01
 -0.741509423695E+01
 -0.781397028650E+01
 -0.807026028497E+01
 -0.813196051826E+01
 -0.835144892576E+01
 -0.940588535799E+01
 -0.966217333344E+01
 -0.946527181274E+01
 -0.969235992780E+01
 -0.964178208430E+01
 -0.984700173684E+01
 -0.991637189868E+01
 -0.991363603380E+01
 -0.101656020664E+02
 -0.103799128553E+02
 -0.105045824667E+02
 -0.103478187586E+02
 -0.105749058466E+02
 -0.112525707154E+02
 -0.114276341442E+02
 -0.119397332735E+02
 -0.121668189669E+02
 -0.120079819341E+02
 -0.121876427994E+02
 -0.121563953281E+02
 -0.124126801895E+02
 -0.125487326122E+02
 -0.127682170754E+02
 -0.128905286596E+02
 -0.130701892467E+02
 -0.142814269729E+02
 -0.144107280626E+02
 -0.143304058804E+02
 -0.145823679336E+02
 -0.144824439658E+02
 -0.146621031117E+02
 -0.146902424595E+02
 -0.149173255985E+02
 -0.151639737271E+02
 -0.152932745419E+02
 -0.159630513525E+02
 -0.161149485137E+02
 -0.162019287666E+02
 -0.161682690839E+02
 -0.162376367399E+02
 -0.165731648743E+02
 -0.168294457604E+02
 -0.167011780455E+02
 -0.168258443442E+02
 -0.167558889663E+02
 -0.168851881926E+02
 -0.169974952767E+02
 -0.170844751407E+02
 -0.172329519269E+02
 -0.174126082672E+02
 -0.174747901482E+02
 -0.175301946332E+02
 -0.175738330849E+02
 -0.177488929661E+02
 -0.183573369146E+02
 -0.184127408251E+02
 -0.184219261612E+02
 -0.184554580674E+02
 -0.185894095503E+02
 -0.186763876239E+02
 -0.188699936580E+02
 -0.190894744827E+02
 -0.190531082550E+02
 -0.190721263066E+02
 -0.191070101372E+02
 -0.193340895616E+02
 -0.193044729295E+02
 -0.193380041122E+02
 -0.194614516265E+02
 -0.194711021376E+02
 -0.195063977427E+02
 -0.196356940499E+02
 -0.197205836065E+02
 -0.197242986494E+02
 -0.198830091295E+02
 -0.199356569207E+02
 -0.199546741854E+02
 -0.199492511886E+02
 -0.200046531493E+02
 -0.203439983968E+02
 -0.203536481069E+02
 -0.206031303772E+02
 -0.206068446212E+02
 -0.207655555344E+02
 -0.206516657308E+02
 -0.209036241090E+02
 -0.208963872087E+02
 -0.209299163610E+02
 -0.213399182931E+02
 -0.214268933392E+02
 -0.215275712036E+02
 -0.215465864058E+02
 -0.216497191872E+02
 -0.218293716832E+02
 -0.219359126818E+02
 -0.219455603177E+02
 -0.221950446635E+02
 -0.221987568290E+02
 -0.223574621301E+02
 -0.226997599314E+02
 -0.227551587984E+02
 -0.228944235729E+02
 -0.231507007844E+02
 -0.236468959593E+02
 -0.236804219863E+02
 -0.236651831560E+02
 -0.238704025185E+02
 -0.239397690934E+02
 -0.239231648194E+02
 -0.240524572397E+02
 -0.242780799594E+02
 -0.242970920232E+02
 -0.244033101412E+02
 -0.245279750105E+02
 -0.246864214407E+02
 -0.246960659328E+02
 -0.249455534244E+02
 -0.249492624441E+02
 -0.251079595723E+02
 -0.252759643732E+02
 -0.254510227230E+02
 -0.254282699660E+02
 -0.256553454824E+02
 -0.257566853249E+02
 -0.258436564429E+02
 -0.265721243760E+02
 -0.267916036293E+02
 -0.271165269627E+02
 -0.271719218754E+02
 -0.279709785493E+02
 -0.281506274329E+02
 -0.280636630003E+02
 -0.280971850596E+02
 -0.283537959329E+02
 -0.286057527231E+02
 -0.286948470072E+02
 -0.287138550972E+02
 -0.291031884923E+02
 -0.291128290081E+02
 -0.293623204784E+02
 -0.293660255207E+02
 -0.295247130573E+02
 -0.302444221122E+02
 -0.303737109081E+02
 -0.305965532776E+02
 -0.308528289009E+02
 -0.314035184520E+02
 -0.316087429815E+02
 -0.316781105454E+02
 -0.320779444720E+02
 -0.321649119508E+02
 -0.321416499337E+02
 -0.322663161102E+02
 -0.330143068010E+02
 -0.331893665507E+02
 -0.331303975546E+02
 -0.333574707558E+02
 -0.334377842132E+02
 -0.334931754763E+02
 -0.343849202598E+02
 -0.344184386637E+02
 -0.343104673258E+02
 -0.345299480150E+02
 -0.350161042727E+02
 -0.350351087046E+02
 -0.354244457614E+02
 -0.354340826179E+02
 -0.356835777498E+02
 -0.356872791323E+02
 -0.356731058254E+02
 -0.358527531411E+02
 -0.358459592059E+02
 -0.360921393543E+02
 -0.363440975953E+02
 -0.378090618303E+02
 -0.379465512093E+02
 -0.380758384351E+02
 -0.380142911954E+02
 -0.380836612251E+02
 -0.383348952570E+02
 -0.385911723320E+02
 -0.385472012040E+02
 -0.386718706397E+02
 -0.394198599146E+02
 -0.395949231541E+02
 -0.397800735508E+02
 -0.398670394560E+02
 -0.407160217419E+02
 -0.409355060097E+02
 -0.408687399893E+02
 -0.410958138774E+02
 -0.411399132918E+02
 -0.411953029788E+02
 -0.420870493423E+02
 -0.421205661687E+02
 -0.423142507230E+02