# vtk DataFile Version 3.0
MachLine results file. Generated by MachLine, USU AeroLab (c) 2022.
ASCII
DATASET POLYDATA
POINTS                  40 float
  0.201755943298E+02  0.995846629143E+00  0.000000000000E+00
  0.994174496505E+04  0.995846629143E+00  0.107782735064E+04
  0.200000000000E+02  0.000000000000E+00  0.000000000000E+00
  0.994174291694E+04  0.000000000000E+00  0.107784620379E+04
  0.261933441162E+02  0.351242027283E+02  0.000000000000E+00
  0.994181515524E+04  0.351242027283E+02  0.107718123890E+04
  0.244708843231E+02  0.253556423187E+02  0.000000000000E+00
  0.994179506471E+04  0.253556423187E+02  0.107736617538E+04
  0.286363182068E+02  0.489789886475E+02  0.000000000000E+00
  0.994184364975E+04  0.489789886475E+02  0.107691894248E+04
  0.286312828064E+02  0.489504356384E+02  0.000000000000E+00
  0.994184359102E+04  0.489504356384E+02  0.107691948312E+04
  0.286397819519E+02  0.489986419678E+02  0.000000000000E+00
  0.994184369015E+04  0.489986419678E+02  0.107691857059E+04
  0.286393890381E+02  0.489964141846E+02  0.000000000000E+00
  0.994184368557E+04  0.489964141846E+02  0.107691861277E+04
  0.286195182800E+02  0.488837165833E+02  0.000000000000E+00
  0.994184345380E+04  0.488837165833E+02  0.107692074625E+04
  0.285920982361E+02  0.487282104492E+02  0.000000000000E+00
  0.994184313398E+04  0.487282104492E+02  0.107692369028E+04
  0.273963184357E+02  0.419466094971E+02  0.000000000000E+00
  0.994182918657E+04  0.419466094971E+02  0.107705207836E+04
  0.205600357056E+02  0.317612481117E+01  0.000000000000E+00
  0.994174944912E+04  0.317612481117E+01  0.107778607406E+04
  0.286399497986E+02  0.489995918274E+02  0.000000000000E+00
  0.994184369211E+04  0.489995918274E+02  0.107691855257E+04
  0.286384696960E+02  0.489911956787E+02  0.000000000000E+00
  0.994184367485E+04  0.489911956787E+02  0.107691871148E+04
  0.213366107941E+02  0.758029556274E+01  0.000000000000E+00
  0.994175850698E+04  0.758029556274E+01  0.107770269501E+04
  0.280618667603E+02  0.457211151123E+02  0.000000000000E+00
  0.994183694943E+04  0.457211151123E+02  0.107698061999E+04
  0.286400222778E+02  0.490000000000E+02  0.000000000000E+00
  0.994184369296E+04  0.490000000000E+02  0.107691854478E+04
  0.283834075928E+02  0.475446701050E+02  0.000000000000E+00
  0.994184069984E+04  0.475446701050E+02  0.107694609690E+04
  0.285285720825E+02  0.483679389954E+02  0.000000000000E+00
  0.994184239302E+04  0.483679389954E+02  0.107693051093E+04
  0.226780891418E+02  0.151882019043E+02  0.000000000000E+00
  0.994177415380E+04  0.151882019043E+02  0.107755866361E+04
POLYGONS                  38                 152
3                   0                   1                   3
3                   0                   3                   2
3                  22                  23                   1
3                  22                   1                   0
3                  28                  29                  23
3                  28                  23                  22
3                  38                  39                  29
3                  38                  29                  28
3                   6                   7                  39
3                   6                  39                  38
3                   4                   5                   7
3                   4                   7                   6
3                  20                  21                   5
3                  20                   5                   4
3                  30                  31                  21
3                  30                  21                  20
3                  34                  35                  31
3                  34                  31                  30
3                  36                  37                  35
3                  36                  35                  34
3                  18                  19                  37
3                  18                  37                  36
3                  16                  17                  19
3                  16                  19                  18
3                  10                  11                  17
3                  10                  17                  16
3                   8                   9                  11
3                   8                  11                  10
3                  26                  27                   9
3                  26                   9                   8
3                  14                  15                  27
3                  14                  27                  26
3                  12                  13                  15
3                  12                  15                  14
3                  24                  25                  13
3                  24                  13                  12
3                  32                  33                  25
3                  32                  25                  24
CELL_DATA                  38
NORMALS normals float
  0.107979778466E+00 -0.190397158328E-01 -0.993970752418E+00
  0.107979778466E+00 -0.190397158326E-01 -0.993970752418E+00
  0.107979778450E+00 -0.190397238884E-01 -0.993970752266E+00
  0.107979778450E+00 -0.190397238884E-01 -0.993970752266E+00
  0.107979778351E+00 -0.190397717663E-01 -0.993970751360E+00
  0.107979778351E+00 -0.190397717662E-01 -0.993970751360E+00
  0.107979778423E+00 -0.190397368528E-01 -0.993970752021E+00
  0.107979778423E+00 -0.190397368528E-01 -0.993970752021E+00
  0.107979778375E+00 -0.190397601028E-01 -0.993970751580E+00
  0.107979778375E+00 -0.190397601027E-01 -0.993970751580E+00
  0.107979778422E+00 -0.190397375868E-01 -0.993970752007E+00
  0.107979778422E+00 -0.190397375867E-01 -0.993970752007E+00
  0.107979778402E+00 -0.190397472394E-01 -0.993970751824E+00
  0.107979778402E+00 -0.190397472394E-01 -0.993970751824E+00
  0.107979778332E+00 -0.190397810697E-01 -0.993970751183E+00
  0.107979778332E+00 -0.190397810697E-01 -0.993970751183E+00
  0.107979778535E+00 -0.190396823909E-01 -0.993970753052E+00
  0.107979778535E+00 -0.190396823910E-01 -0.993970753052E+00
  0.107979778407E+00 -0.190397446246E-01 -0.993970751873E+00
  0.107979778407E+00 -0.190397446242E-01 -0.993970751873E+00
  0.107979778045E+00 -0.190399208524E-01 -0.993970748537E+00
  0.107979778045E+00 -0.190399208527E-01 -0.993970748537E+00
  0.107979778233E+00 -0.190398293708E-01 -0.993970750269E+00
  0.107979778233E+00 -0.190398293712E-01 -0.993970750269E+00
  0.107979777878E+00 -0.190400020750E-01 -0.993970746999E+00
  0.107979777878E+00 -0.190400020743E-01 -0.993970746999E+00
  0.107979772688E+00 -0.190425250291E-01 -0.993970699231E+00
  0.107979772688E+00 -0.190425250331E-01 -0.993970699231E+00
  0.107979795486E+00 -0.190314385136E-01 -0.993970909089E+00
  0.107979795486E+00 -0.190314385175E-01 -0.993970909089E+00
  0.107979813322E+00 -0.190227606199E-01 -0.993971073268E+00
  0.107979813322E+00 -0.190227606046E-01 -0.993971073268E+00
  0.107979768880E+00 -0.190443762379E-01 -0.993970664178E+00
  0.107979768880E+00 -0.190443761908E-01 -0.993970664179E+00
  0.107979693978E+00 -0.190807519577E-01 -0.993969974694E+00
  0.107979693979E+00 -0.190807517956E-01 -0.993969974697E+00
  0.107979501488E+00 -0.191739170604E-01 -0.993968202793E+00
  0.107979501487E+00 -0.191739175273E-01 -0.993968202784E+00
POINT_DATA                  40
SCALARS mu float 1
LOOKUP_TABLE default
 -0.477685889686E+01
 -0.477685889686E+01
 -0.477526961179E+01
 -0.477526961179E+01
 -0.358483254598E+01
 -0.358483254598E+01
 -0.426439902516E+01
 -0.426439902516E+01
 -0.140963837472E+00
 -0.140963837472E+00
 -0.220672436045E+00
 -0.220672436045E+00
 -0.305854054312E-01
 -0.305854054312E-01
 -0.592765721739E-01
 -0.592765721739E-01
 -0.345691740627E+00
 -0.345691740627E+00
 -0.538963424314E+00
 -0.538963424314E+00
 -0.272281351152E+01
 -0.272281351152E+01
 -0.477684098418E+01
 -0.477684098418E+01
 -0.145945778879E-01
 -0.145945778879E-01
 -0.899138260700E-01
 -0.899138260700E-01
 -0.475295396305E+01
 -0.475295396305E+01
 -0.191095150764E+01
 -0.191095150764E+01
  0.000000000000E+00
  0.000000000000E+00
 -0.127881421818E+01
 -0.127881421818E+01
 -0.834954490279E+00
 -0.834954490279E+00
 -0.462852514024E+01
 -0.462852514024E+01
