# vtk DataFile Version 3.0
MachLine results file. Generated by MachLine, USU AeroLab (c) 2022.
ASCII
DATASET POLYDATA
POINTS                 704 float
  0.000000000000E+00  0.000000000000E+00  0.000000000000E+00
  0.266836285591E+00  0.995846629143E+00  0.000000000000E+00
  0.327008455992E+00  0.000000000000E+00 -0.377908974886E+00
  0.327008455992E+00  0.000000000000E+00  0.377908974886E+00
  0.593844771385E+00  0.995846629143E+00 -0.377908974886E+00
  0.593844771385E+00  0.995846629143E+00  0.377908974886E+00
  0.851040124893E+00  0.317612481117E+01  0.000000000000E+00
  0.117804861069E+01  0.317612481117E+01 -0.377908974886E+00
  0.117804861069E+01  0.317612481117E+01  0.377908974886E+00
  0.141893637180E+01  0.000000000000E+00 -0.747395038605E+00
  0.141893637180E+01  0.000000000000E+00  0.747395038605E+00
  0.168577265739E+01  0.995846629143E+00 -0.747395038605E+00
  0.168577265739E+01  0.995846629143E+00  0.747395038605E+00
  0.203113412857E+01  0.758029556274E+01  0.000000000000E+00
  0.226997637749E+01  0.317612481117E+01 -0.747395038605E+00
  0.226997637749E+01  0.317612481117E+01  0.747395038605E+00
  0.235814261436E+01  0.758029556274E+01 -0.377908974886E+00
  0.235814261436E+01  0.758029556274E+01  0.377908974886E+00
  0.345007038116E+01  0.758029556274E+01 -0.747395038605E+00
  0.345007038116E+01  0.758029556274E+01  0.747395038605E+00
  0.375130796432E+01  0.000000000000E+00 -0.109082520008E+01
  0.375130796432E+01  0.000000000000E+00  0.109082520008E+01
  0.401814413071E+01  0.995846629143E+00 -0.109082520008E+01
  0.401814413071E+01  0.995846629143E+00  0.109082520008E+01
  0.406966638565E+01  0.151882019043E+02  0.000000000000E+00
  0.439667510986E+01  0.151882019043E+02 -0.377908974886E+00
  0.439667510986E+01  0.151882019043E+02  0.377908974886E+00
  0.460234785080E+01  0.317612481117E+01 -0.109082520008E+01
  0.460234785080E+01  0.317612481117E+01  0.109082520008E+01
  0.548860263824E+01  0.151882019043E+02 -0.747395038605E+00
  0.548860263824E+01  0.151882019043E+02  0.747395038605E+00
  0.578244209290E+01  0.758029556274E+01 -0.109082520008E+01
  0.578244209290E+01  0.758029556274E+01  0.109082520008E+01
  0.679402399063E+01  0.253556423187E+02  0.000000000000E+00
  0.712103223801E+01  0.253556423187E+02 -0.377908974886E+00
  0.712103223801E+01  0.253556423187E+02  0.377908974886E+00
  0.764637804031E+01  0.000000000000E+00 -0.116701817513E+01
  0.764637804031E+01  0.000000000000E+00  0.116701817513E+01
  0.782097434998E+01  0.151882019043E+02 -0.109082520008E+01
  0.782097434998E+01  0.151882019043E+02  0.109082520008E+01
  0.791321420670E+01  0.995846629143E+00 -0.116701817513E+01
  0.791321420670E+01  0.995846629143E+00  0.116701817513E+01
  0.821296024323E+01  0.253556423187E+02 -0.747395038605E+00
  0.821296024323E+01  0.253556423187E+02  0.747395038605E+00
  0.849741840363E+01  0.317612481117E+01 -0.116701817513E+01
  0.849741840363E+01  0.317612481117E+01  0.116701817513E+01
  0.941150188446E+01  0.351242027283E+02  0.000000000000E+00
  0.967751216888E+01  0.758029556274E+01 -0.116701817513E+01
  0.967751216888E+01  0.758029556274E+01  0.116701817513E+01
  0.973851013184E+01  0.351242027283E+02 -0.377908974886E+00
  0.973851013184E+01  0.351242027283E+02  0.377908974886E+00
  0.105453319550E+02  0.253556423187E+02 -0.109082520008E+01
  0.105453319550E+02  0.253556423187E+02  0.109082520008E+01
  0.108304376602E+02  0.351242027283E+02 -0.747395038605E+00
  0.108304376602E+02  0.351242027283E+02  0.747395038605E+00
  0.112395601273E+02  0.419466094971E+02  0.000000000000E+00
  0.115665683746E+02  0.419466094971E+02 -0.377908974886E+00
  0.115665683746E+02  0.419466094971E+02  0.377908974886E+00
  0.117160444260E+02  0.151882019043E+02 -0.116701817513E+01
  0.117160444260E+02  0.151882019043E+02  0.116701817513E+01
  0.122509355545E+02  0.457211151123E+02  0.000000000000E+00
  0.122584857941E+02  0.000000000000E+00 -0.823081254959E+00
  0.122584857941E+02  0.000000000000E+00  0.823081254959E+00
  0.125253219604E+02  0.995846629143E+00 -0.823081254959E+00
  0.125253219604E+02  0.995846629143E+00  0.823081254959E+00
  0.125779438019E+02  0.457211151123E+02 -0.377908974886E+00
  0.125779438019E+02  0.457211151123E+02  0.377908974886E+00
  0.126584968567E+02  0.419466094971E+02 -0.747395038605E+00
  0.126584968567E+02  0.419466094971E+02  0.747395038605E+00
  0.127395563126E+02  0.475446701050E+02  0.000000000000E+00
  0.129601507187E+02  0.483679389954E+02  0.000000000000E+00
  0.130566844940E+02  0.487282104492E+02  0.000000000000E+00
  0.130665645599E+02  0.475446701050E+02 -0.377908974886E+00
  0.130665645599E+02  0.475446701050E+02  0.377908974886E+00
  0.130983524323E+02  0.488837165833E+02  0.000000000000E+00
  0.131095256805E+02  0.317612481117E+01 -0.823081254959E+00
  0.131095256805E+02  0.317612481117E+01  0.823081254959E+00
  0.131162300110E+02  0.489504356384E+02  0.000000000000E+00
  0.131238813400E+02  0.489789886475E+02  0.000000000000E+00
  0.131271514893E+02  0.489911956787E+02  0.000000000000E+00
  0.131285495758E+02  0.489964141846E+02  0.000000000000E+00
  0.131291465759E+02  0.489986419678E+02  0.000000000000E+00
  0.131294012070E+02  0.489995918274E+02  0.000000000000E+00
  0.131295108795E+02  0.490000000000E+02  0.000000000000E+00
  0.131628093719E+02  0.351242027283E+02 -0.109082520008E+01
  0.131628093719E+02  0.351242027283E+02  0.109082520008E+01
  0.132871589661E+02  0.483679389954E+02 -0.377908974886E+00
  0.132871589661E+02  0.483679389954E+02  0.377908974886E+00
  0.133836936951E+02  0.487282104492E+02 -0.377908974886E+00
  0.133836936951E+02  0.487282104492E+02  0.377908974886E+00
  0.134253606796E+02  0.488837165833E+02 -0.377908974886E+00
  0.134253606796E+02  0.488837165833E+02  0.377908974886E+00
  0.134432382584E+02  0.489504356384E+02 -0.377908974886E+00
  0.134432382584E+02  0.489504356384E+02  0.377908974886E+00
  0.134508895874E+02  0.489789886475E+02 -0.377908974886E+00
  0.134508895874E+02  0.489789886475E+02  0.377908974886E+00
  0.134541597366E+02  0.489911956787E+02 -0.377908974886E+00
  0.134541597366E+02  0.489911956787E+02  0.377908974886E+00
  0.134555578232E+02  0.489964141846E+02 -0.377908974886E+00
  0.134555578232E+02  0.489964141846E+02  0.377908974886E+00
  0.134561548233E+02  0.489986419678E+02 -0.377908974886E+00
  0.134561548233E+02  0.489986419678E+02  0.377908974886E+00
  0.134564104080E+02  0.489995918274E+02 -0.377908974886E+00
  0.134564104080E+02  0.489995918274E+02  0.377908974886E+00
  0.134565191269E+02  0.490000000000E+02 -0.377908974886E+00
  0.134565191269E+02  0.490000000000E+02  0.377908974886E+00
  0.135256814957E+02  0.492581176758E+02 -0.267221987247E+00
  0.135256814957E+02  0.492581176758E+02  0.267221987247E+00
  0.135543289185E+02  0.493650321960E+02 -0.118643873158E-14
  0.136698722839E+02  0.457211151123E+02 -0.747395038605E+00
  0.136698722839E+02  0.457211151123E+02  0.747395038605E+00
  0.141584920883E+02  0.475446701050E+02 -0.747395038605E+00
  0.141584920883E+02  0.475446701050E+02  0.747395038605E+00
  0.142896194458E+02  0.758029556274E+01 -0.823081254959E+00
  0.142896194458E+02  0.758029556274E+01  0.823081254959E+00
  0.143790864944E+02  0.483679389954E+02 -0.747395038605E+00
  0.143790864944E+02  0.483679389954E+02  0.747395038605E+00
  0.144404020309E+02  0.253556423187E+02 -0.116701817513E+01
  0.144404020309E+02  0.253556423187E+02  0.116701817513E+01
  0.144756212234E+02  0.487282104492E+02 -0.747395038605E+00
  0.144756212234E+02  0.487282104492E+02  0.747395038605E+00
  0.145172882080E+02  0.488837165833E+02 -0.747395038605E+00
  0.145172882080E+02  0.488837165833E+02  0.747395038605E+00
  0.145351657867E+02  0.489504356384E+02 -0.747395038605E+00
  0.145351657867E+02  0.489504356384E+02  0.747395038605E+00
  0.145428171158E+02  0.489789886475E+02 -0.747395038605E+00
  0.145428171158E+02  0.489789886475E+02  0.747395038605E+00
  0.145460882187E+02  0.489911956787E+02 -0.747395038605E+00
  0.145460882187E+02  0.489911956787E+02  0.747395038605E+00
  0.145474853516E+02  0.489964141846E+02 -0.747395038605E+00
  0.145474853516E+02  0.489964141846E+02  0.747395038605E+00
  0.145480823517E+02  0.489986419678E+02 -0.747395038605E+00
  0.145480823517E+02  0.489986419678E+02  0.747395038605E+00
  0.145483379364E+02  0.489995918274E+02 -0.747395038605E+00
  0.145483379364E+02  0.489995918274E+02  0.747395038605E+00
  0.145484466553E+02  0.490000000000E+02 -0.747395038605E+00
  0.145484466553E+02  0.490000000000E+02  0.747395038605E+00
  0.146852293015E+02  0.495104789734E+02 -0.528488099575E+00
  0.146852293015E+02  0.495104789734E+02  0.528488099575E+00
  0.147418870926E+02  0.497219276428E+02 -0.643262760529E-15
  0.149908676147E+02  0.419466094971E+02 -0.109082520008E+01
  0.149908676147E+02  0.419466094971E+02  0.109082520008E+01
  0.159819765091E+02  0.000000000000E+00 -0.431951433420E+00
  0.159819765091E+02  0.000000000000E+00  0.431951433420E+00
  0.160022430420E+02  0.457211151123E+02 -0.109082520008E+01
  0.160022430420E+02  0.457211151123E+02  0.109082520008E+01
  0.162488117218E+02  0.995846629143E+00 -0.431951433420E+00
  0.162488117218E+02  0.995846629143E+00  0.431951433420E+00
  0.163281517029E+02  0.151882019043E+02 -0.823081254959E+00
  0.163281517029E+02  0.151882019043E+02  0.823081254959E+00
  0.164908638000E+02  0.475446701050E+02 -0.109082520008E+01
  0.164908638000E+02  0.475446701050E+02  0.109082520008E+01
  0.167114582062E+02  0.483679389954E+02 -0.109082520008E+01
  0.167114582062E+02  0.483679389954E+02  0.109082520008E+01
  0.168079929352E+02  0.487282104492E+02 -0.109082520008E+01
  0.168079929352E+02  0.487282104492E+02  0.109082520008E+01
  0.168330154419E+02  0.317612481117E+01 -0.431951433420E+00
  0.168330154419E+02  0.317612481117E+01  0.431951433420E+00
  0.168496589661E+02  0.488837165833E+02 -0.109082520008E+01
  0.168496589661E+02  0.488837165833E+02  0.109082520008E+01
  0.168675384521E+02  0.489504356384E+02 -0.109082520008E+01
[...]
CELL_DATA                1336
SCALARS C_p_inc float 1
LOOKUP_TABLE default
  0.480186563653E+00
  0.466502187755E+00
  0.420264264593E+00
  0.408914564263E+00
  0.379003023414E+00
  0.368740220606E+00
  0.339487642277E+00
  0.329991271560E+00
  0.299480079948E+00
  0.290359556222E+00
  0.258302996015E+00
  0.249161180005E+00
  0.215820338275E+00
  0.206367876142E+00
  0.171638359512E+00
  0.162535143656E+00
  0.125162626289E+00
  0.118199383063E+00
  0.750980291260E-01
  0.702402456760E-01
  0.118917672820E-01
  0.696719132420E-02
 -0.552693190463E-01
 -0.591142742475E-01
 -0.289313095437E-01
 -0.371094621423E-01
  0.157461408150E+00
  0.131020458846E+00
  0.509641676277E+00
  0.468493489213E+00
  0.965163940099E+00
  0.961268944744E+00
 -0.662639148854E+00
 -0.306033379314E+00
 -0.992227058786E+00
 -0.872335431080E+00
 -0.781841112517E+00
 -0.765643286643E+00
 -0.620922336264E+00
 -0.626867192984E+00
 -0.421132160070E+00
 -0.406781751191E+00
 -0.205841203036E+00
 -0.193521339558E+00
 -0.602458243673E-01
 -0.484097017969E-01
  0.345903322921E-01
  0.497743889566E-01
  0.107218442041E+00
  0.125872772653E+00
  0.168315844807E+00
  0.188191860451E+00
  0.221615725513E+00
  0.241754546764E+00
  0.269331554382E+00
  0.289751829322E+00
  0.313154645038E+00
  0.334041271931E+00
  0.354798810739E+00
  0.376374991613E+00
  0.397096867377E+00
  0.419763540585E+00
  0.456725059729E+00
  0.481930541205E+00
  0.478347288459E+00
  0.478662529135E+00
  0.419042579317E+00
  0.419014498724E+00
  0.377345053295E+00
  0.377933713611E+00
  0.337636976723E+00
  0.338586026609E+00
  0.297507243357E+00
  0.298744295193E+00
  0.256324330311E+00
  0.257734886581E+00
  0.214140237481E+00
  0.215421788951E+00
  0.171258307654E+00
  0.171403706468E+00
  0.127660921498E+00
  0.125057421126E+00
  0.798012042979E-01
  0.750669116731E-01
  0.167616002102E-01
  0.119129502500E-01
 -0.538870815151E-01
 -0.552897521157E-01
 -0.370297556075E-01
 -0.476471237055E-01
  0.131226963099E+00
  0.113497842700E+00
  0.464588040743E+00
  0.464304302984E+00
  0.941582716893E+00
  0.933676817459E+00
 -0.838949542835E+00
 -0.664121854193E+00
 -0.110162519948E+01
 -0.990091502643E+00
 -0.820221936855E+00
 -0.783284583367E+00
 -0.621182266730E+00
 -0.622206909383E+00
 -0.406672665665E+00
 -0.391063931669E+00
 -0.193396492222E+00
 -0.175793643010E+00
 -0.483942089885E-01
 -0.313293975365E-01
  0.497015827823E-01
  0.639969573005E-01
  0.125657123904E+00
  0.135889183998E+00
  0.187789094311E+00
  0.195654958727E+00
  0.241157822120E+00
  0.247872006029E+00
  0.288968186273E+00
  0.294951708941E+00
  0.333078471547E+00
  0.338464836306E+00
  0.375235645306E+00
  0.380028335997E+00
  0.418437250923E+00
  0.422498581104E+00
  0.480323511756E+00
  0.481576758092E+00
  0.474946961911E+00
  0.477368404542E+00
  0.417021113311E+00
  0.418214680919E+00
  0.375132064728E+00
  0.376618287850E+00
  0.335281630380E+00
  0.337003171320E+00
  0.295047976130E+00
  0.296964507131E+00
  0.253784629901E+00
  0.255872541016E+00
  0.211564432023E+00
  0.213779615073E+00
  0.168812513695E+00
  0.170989180002E+00
  0.125908143079E+00
  0.127484129194E+00
  0.798359350748E-01
  0.797177216822E-01
  0.183105700782E-01
  0.167626897532E-01
 -0.547508538900E-01
 -0.538949721416E-01
 -0.474752405478E-01
 -0.541615898798E-01
  0.113322862990E+00
  0.109219339551E+00
  0.462425198751E+00
  0.472422815007E+00
  0.930122577926E+00
  0.923081236879E+00
 -0.957196646364E+00
 -0.839726980248E+00
 -0.117850467010E+01
 -0.110039667312E+01
 -0.855783525548E+00
 -0.821112742096E+00
 -0.625174657721E+00
 -0.622972180274E+00
 -0.391318579431E+00
 -0.376181439233E+00
 -0.175742014970E+00
 -0.156780995982E+00
 -0.313252764862E-01
 -0.149870757966E-01
  0.639502633947E-01
  0.766476220968E-01
  0.135808102764E+00
  0.146221909169E+00
  0.195544950368E+00
  0.204657182785E+00
  0.247733827848E+00
  0.255998504830E+00
  0.294785525954E+00
  0.302407698111E+00
  0.338270837548E+00
  0.345333687853E+00
  0.379806259385E+00
  0.386323514558E+00
  0.422246411475E+00
  0.428311152591E+00
  0.481280409449E+00
  0.484505300594E+00
  0.471411576838E+00
  0.473932298451E+00
  0.413820732510E+00
  0.416146934908E+00
  0.371206902506E+00
  0.374354739345E+00
  0.330906364523E+00
  0.334593313723E+00
  0.290295344814E+00
  0.294446968034E+00
  0.248687866246E+00
  0.253271246140E+00
  0.206129440822E+00
  0.211139873980E+00
  0.163055719832E+00
  0.168478958559E+00
  0.119944147833E+00
  0.125669182990E+00
  0.740501372718E-01
  0.796984621888E-01
  0.132226212527E-01
  0.182810438042E-01
 -0.594555413236E-01
 -0.547210012664E-01
 -0.540600346291E-01
 -0.586441310237E-01
  0.109065345826E+00
  0.108062861542E+00
  0.471879128313E+00
  0.477138993661E+00
  0.922806607554E+00
  0.919413322722E+00
 -0.100637300228E+01
 -0.957308858234E+00
 -0.120871936332E+01
 -0.117867374656E+01
 -0.868193487768E+00
 -0.856864262842E+00
 -0.622964234169E+00
 -0.626893377348E+00
 -0.376752192141E+00
 -0.363202473741E+00
 -0.156900644053E+00
 -0.140765705612E+00
 -0.150033171866E-01
 -0.244657255978E-03
  0.767084070504E-01
  0.897214029799E-01
  0.146363755661E+00
  0.158042815054E+00
  0.204876243966E+00
  0.215536105669E+00
  0.256288719550E+00
  0.266108959596E+00
  0.302764117152E+00
  0.311830457499E+00
  0.345753077062E+00
  0.354088488927E+00
  0.386804926497E+00
  0.394365421799E+00
  0.428858378698E+00
  0.435609996221E+00
  0.485144971711E+00
  0.488589056135E+00
  0.464114160444E+00
  0.469850884543E+00
  0.406061990589E+00
  0.412456076210E+00
  0.362619106966E+00
  0.369980548665E+00
  0.321661575009E+00
  0.329806409952E+00
  0.280446461812E+00
  0.289319350346E+00
  0.238228627298E+00
  0.247836682701E+00
  0.195018928675E+00
  0.205405991870E+00
  0.151239469534E+00
  0.162465917422E+00
  0.107427022488E+00
  0.119498760316E+00
  0.610147223098E-01
  0.737670549445E-01
  0.697599025001E-04
  0.131160844860E-01
 -0.721629382607E-01
 -0.594279528804E-01
 -0.585746903017E-01
 -0.715571753008E-01
  0.107889465567E+00
  0.946478186392E-01
  0.476732527957E+00
  0.463935442809E+00
  0.919171700418E+00
  0.922908553352E+00
 -0.963676361512E+00
 -0.100633362595E+01
 -0.118161528108E+01
 -0.120941494899E+01
 -0.848349515836E+00
 -0.869403792094E+00
 -0.603604252568E+00
 -0.624553074005E+00
 -0.363806697969E+00
 -0.342751539241E+00
 -0.141091455899E+00
 -0.120048661607E+00
 -0.387112237911E-03
  0.193395243269E-01
  0.897637450695E-01
  0.107974343673E+00
  0.158272537638E+00
  0.175080325988E+00
  0.215944625932E+00
  0.231524932708E+00
  0.266684272601E+00
  0.281190022959E+00
  0.312562400225E+00
  0.326091450652E+00
  0.354970086553E+00
  0.367561784272E+00
  0.395394527998E+00
  0.407030940790E+00
  0.436795753979E+00
  0.447365074732E+00
  0.489985705410E+00
  0.499314478811E+00
  0.454062435466E+00
  0.461276442246E+00
  0.392453617120E+00
  0.403541517401E+00
  0.348031993556E+00
  0.360324979294E+00
  0.306110040708E+00
  0.319573792833E+00
  0.263970178339E+00
  0.278561196532E+00
  0.220827073001E+00
  0.236548377711E+00
  0.176668679278E+00
  0.193551404530E+00
  0.131953005981E+00
  0.150000918153E+00
  0.873614476231E-01
  0.106447679058E+00
  0.404890666432E-01
  0.603424945249E-01
 -0.208215186458E-01
 -0.255147395495E-03
 -0.941340745122E-01
 -0.722099331280E-01
 -0.715627105550E-01
 -0.977976223119E-01
  0.942698986573E-01
  0.622618468323E-01
  0.462972560288E+00
  0.426622151109E+00
  0.921140424782E+00
  0.929672243292E+00
 -0.831100105148E+00
 -0.963611270485E+00
 -0.109849698041E+01
 -0.118250488872E+01
 -0.794231682342E+00
 -0.849882717160E+00
 -0.559371353985E+00
 -0.605738567018E+00
 -0.343413488887E+00
 -0.303926304772E+00
 -0.120757671403E+00
 -0.855007348860E-01
  0.187535816579E-01
  0.502426442355E-01
  0.107631298923E+00
  0.136448331328E+00
  0.175035916712E+00
  0.201782543710E+00
  0.231788658253E+00
  0.256789690060E+00
  0.281751136854E+00
  0.305226905423E+00
  0.326935855693E+00
  0.349020401755E+00
  0.368678257458E+00
  0.389431370787E+00
  0.408415796336E+00
  0.427822442605E+00
  0.449034563812E+00
  0.466918667696E+00
  0.501368156326E+00
  0.518037680232E+00
  0.437344757410E+00
  0.448916898919E+00
  0.371274928999E+00
  0.387822570467E+00
  0.325210325228E+00
  0.343754501112E+00
  0.281821154276E+00
  0.302156165833E+00
  0.238437412231E+00
  0.260336012276E+00
  0.194218860426E+00
  0.217522090008E+00
  0.149269393927E+00
  0.173717613921E+00
  0.104403797040E+00
  0.129405520591E+00
  0.608713437308E-01
  0.852982648376E-01
  0.167111113414E-01
  0.389982593586E-01
 -0.411070967724E-01
 -0.217126435103E-01
 -0.114485404747E+00
 -0.944994434335E-01
 -0.981904855158E-01
 -0.128302521352E+00
  0.613026108579E-01
  0.167791525861E-01
  0.424384253552E+00
  0.371008638523E+00
  0.924789123590E+00
  0.930058393548E+00
 -0.655941851535E+00
 -0.831073887284E+00
 -0.985052036516E+00
 -0.109942308894E+01
 -0.716328576944E+00
 -0.796408197091E+00
 -0.491127340467E+00
 -0.563223155444E+00
 -0.304829835388E+00
 -0.247262866717E+00
 -0.873228282370E-01
 -0.418521697347E-01
  0.480875073032E-01
  0.857639663064E-01
  0.134426747901E+00
  0.168758365589E+00
  0.200143726521E+00
  0.232824387355E+00
  0.255631461708E+00
  0.286959823168E+00
  0.304569379603E+00
  0.334561213025E+00
  0.348855431667E+00
  0.377486308693E+00
  0.389745493796E+00
  0.416963620857E+00
  0.428610970212E+00
  0.454259128878E+00
  0.468209655094E+00
  0.491869681043E+00
  0.520017835497E+00
  0.543172812900E+00
  0.407267761528E+00
  0.428056091839E+00
  0.335080627224E+00
  0.362793236014E+00
  0.286216825305E+00
  0.317266643739E+00
  0.240797627357E+00
  0.274374739064E+00
  0.195861528989E+00
  0.231493321029E+00
  0.150725247284E+00
  0.187820046542E+00
  0.106079717944E+00
  0.143514189856E+00
  0.637131224061E-01
  0.994715609770E-01
  0.259285493068E-01
  0.569915390674E-01
 -0.891663598571E-02
  0.139527493495E-01
 -0.556883047485E-01
 -0.430897001179E-01
 -0.122331747284E+00
 -0.116010708975E+00
 -0.130162744500E+00
 -0.145341234178E+00
  0.138997009920E-01
 -0.282213472507E-01
  0.365748998213E+00
  0.305626953880E+00
  0.918819140986E+00
  0.917487030979E+00
 -0.494880783550E+00
 -0.656297281246E+00
 -0.874346771457E+00
 -0.985635008782E+00
 -0.627820051558E+00
 -0.719615918593E+00
 -0.410457224518E+00
 -0.499186336774E+00
 -0.248695076967E+00
 -0.192247910458E+00
 -0.468104444892E-01
 -0.842300082514E-02
  0.788727555210E-01
  0.108684015337E+00
  0.161414864795E+00
  0.190021103648E+00
  0.225743011703E+00
  0.255971534794E+00
  0.280460062995E+00
  0.311922272558E+00
  0.328775257657E+00
  0.360452098143E+00
  0.372451975948E+00
  0.403634625058E+00
  0.412680774392E+00
  0.442876131124E+00
  0.450725959948E+00
  0.479542857230E+00
  0.489126949225E+00
  0.515848517596E+00
  0.541564418575E+00
  0.566478375045E+00
  0.355505225092E+00
  0.389128007305E+00
  0.274306330031E+00
  0.318280823970E+00
  0.221138483802E+00
  0.270295220750E+00
  0.172875198840E+00
  0.225704393519E+00
  0.126384627546E+00
  0.181657572230E+00
  0.817271689252E-01
  0.137600589611E+00
  0.409697483513E-01
  0.944198441229E-01
  0.736965990487E-02
  0.541123242660E-01
 -0.167649997970E-01
  0.188900910111E-01
 -0.358970848763E-01
 -0.136816161765E-01
 -0.690781324541E-01
 -0.594563383405E-01
 -0.124891179824E+00
 -0.126509004287E+00
 -0.150169505657E+00
 -0.148174102224E+00
 -0.362989068419E-01
 -0.564576337413E-01
  0.292913759602E+00
  0.238850116528E+00
  0.894154063223E+00
  0.890454626520E+00
 -0.375841635193E+00
 -0.496542307178E+00
 -0.776664987766E+00
 -0.874672386633E+00
 -0.538721624418E+00
 -0.634113361932E+00
 -0.343653988788E+00
 -0.427338310568E+00
 -0.193881605365E+00
 -0.161589049628E+00
 -0.193889649225E-01
  0.158121075505E-02
  0.915118574020E-01
  0.108996484365E+00
  0.170697391986E+00
  0.190637682191E+00
  0.236171465507E+00
  0.262800233645E+00
  0.292345708321E+00
  0.325477292020E+00
  0.341540868045E+00
  0.378377261896E+00
  0.385632824365E+00
  0.423693726085E+00
  0.425880130849E+00
  0.463631672100E+00
  0.463588252292E+00
  0.499888722700E+00
  0.500993168481E+00
  0.534489558442E+00
  0.553250202083E+00
  0.582275174733E+00
  0.262283502465E+00
  0.317531917566E+00
  0.170149382533E+00
  0.238685074684E+00
  0.111870252879E+00
  0.187065908016E+00
  0.611682312959E-01
  0.140354373723E+00
  0.155509013025E-01
  0.957464698145E-01
 -0.230516321506E-01
  0.537403997389E-01
 -0.503409852709E-01
  0.169233115782E-01
 -0.634849015269E-01
 -0.113382100902E-01
 -0.649130267880E-01
 -0.298141022528E-01
 -0.669446128319E-01
 -0.442321344181E-01
 -0.869679360944E-01
 -0.751038309134E-01
 -0.130511830365E+00
 -0.132715641866E+00
 -0.155076829546E+00
 -0.151750116953E+00
 -0.718957689119E-01
 -0.721579292241E-01
  0.211233886959E+00
  0.183488985903E+00
  0.845502533377E+00
  0.849305660137E+00
 -0.300349155313E+00
 -0.380066124566E+00
 -0.688293940371E+00
 -0.777876189919E+00
 -0.470459018327E+00
 -0.550790764749E+00
 -0.304650421406E+00
 -0.373837671594E+00
 -0.159770648223E+00
 -0.160534890664E+00
 -0.151081859308E-01
 -0.165252510661E-01
  0.759492112768E-01
  0.809633240590E-01
  0.149750614500E+00
  0.161264232125E+00
  0.218771551504E+00
  0.241468574845E+00
  0.279665723495E+00
  0.316551428892E+00
  0.331910248925E+00
  0.380051910899E+00
  0.377583765868E+00
  0.431617353120E+00
  0.418487656418E+00
  0.474308541156E+00
  0.455986980989E+00
  0.511101263129E+00
  0.491975461859E+00
  0.544162907299E+00
  0.541880680859E+00
  0.587591615288E+00
  0.975176022048E-01
  0.180049801518E+00
 -0.111688961991E-01
  0.921153854332E-01
 -0.755317404081E-01
  0.368037527560E-01
 -0.125502530799E+00
 -0.104681599672E-01
 -0.161812587598E+00
 -0.511608388135E-01
 -0.179476521536E+00
 -0.821600174847E-01
 -0.175167274578E+00
 -0.986755149237E-01
 -0.153344999785E+00
 -0.994961965377E-01
 -0.128214075881E+00
 -0.884224814574E-01
 -0.110190359864E+00
 -0.785663303807E-01
 -0.111253162554E+00
 -0.931153187255E-01
 -0.140196013241E+00
 -0.141287478116E+00
 -0.157004288401E+00
 -0.161797143248E+00
 -0.897441133094E-01
 -0.924738974075E-01
  0.138433347096E+00
  0.137933561619E+00
  0.770305386730E+00
  0.796032418838E+00
 -0.260731515911E+00
 -0.306471141735E+00
 -0.620806318039E+00
 -0.690218211871E+00
 -0.430614034991E+00
 -0.489427951625E+00
 -0.287256398754E+00
 -0.350487647933E+00
 -0.147683014987E+00
 -0.183301056676E+00
 -0.305973146465E-01
 -0.641082604655E-01
  0.334998523389E-01
  0.142350785261E-01
  0.885938801100E-01
  0.850706074839E-01
  0.155394315443E+00
  0.166716742655E+00
  0.222251976474E+00
  0.255429103897E+00
  0.279422503118E+00
  0.336650638678E+00
  0.327563224153E+00
  0.402203259698E+00
  0.369425290855E+00
  0.452400576407E+00
  0.406924509280E+00
  0.491461689554E+00
  0.441407457252E+00
  0.522766084567E+00
  0.487393230092E+00
  0.557879487796E+00
 -0.365335647240E+00
 -0.870912395103E-01
 -0.408914814081E+00
 -0.187018904485E+00
 -0.438193162356E+00
 -0.243986230494E+00
 -0.457048415935E+00
 -0.283933371787E+00
 -0.453778588993E+00
 -0.304780626439E+00
 -0.418806039029E+00
 -0.300109176115E+00
 -0.356736658370E+00
 -0.269535932764E+00
 -0.289850286672E+00
 -0.218706429396E+00
 -0.227017140262E+00
 -0.160698754918E+00
 -0.170098055714E+00
 -0.116992933359E+00
 -0.140272973550E+00
 -0.112371527674E+00
 -0.152645698557E+00
 -0.152508950226E+00
 -0.162403679920E+00
 -0.177299580280E+00
 -0.103385817153E+00
 -0.121045428466E+00
  0.852124517968E-01
  0.872571454453E-01
  0.677102556201E+00
  0.734166742503E+00
 -0.251947368710E+00
 -0.262316024204E+00
 -0.582217959603E+00
 -0.620000466825E+00
 -0.410186522923E+00
 -0.457054989296E+00
 -0.282731840189E+00
 -0.350393499491E+00
 -0.152027615117E+00
 -0.221914873559E+00
 -0.608938284500E-01
 -0.136314740010E+00
 -0.298036500440E-01
 -0.988115107726E-01
 -0.158485428099E-01
 -0.646663255594E-01
  0.177415171639E-01
 -0.265634725105E-02
  0.767661117565E-01
  0.845040968302E-01
  0.135836522320E+00
  0.181395826355E+00
  0.183911141808E+00
  0.269485764703E+00
  0.223714059816E+00
  0.340904191258E+00
  0.258309061876E+00
  0.398824563340E+00
  0.288580376563E+00
  0.454296366778E+00
  0.325094467580E+00
  0.536284745381E+00
 -0.645206619225E+00
 -0.758586952908E+00
 -0.892645944828E+00
 -0.796671637398E+00
 -0.996247989304E+00
 -0.813647531021E+00
 -0.102256060780E+01
 -0.804187654917E+00
 -0.959373596974E+00
 -0.750080891224E+00
 -0.813433570901E+00
 -0.655618705370E+00
 -0.663176023564E+00
 -0.528835210472E+00
 -0.521699365675E+00
 -0.381306711940E+00
 -0.373129453352E+00
 -0.246411433403E+00
 -0.243712502864E+00
 -0.157173527724E+00
 -0.172565331784E+00
 -0.131448670715E+00
 -0.167076091181E+00
 -0.165595304237E+00
 -0.171818605097E+00
 -0.196874982863E+00
 -0.120488950061E+00
 -0.156258237936E+00
  0.409397360760E-01
  0.277731659283E-01
  0.580118637512E+00
  0.665133321527E+00
 -0.270450639494E+00
 -0.238271767497E+00
 -0.566116726716E+00
 -0.574671050036E+00
 -0.400356336717E+00
 -0.445137557409E+00
 -0.285462749314E+00
 -0.365092177984E+00
 -0.167691774434E+00
 -0.271244169420E+00
 -0.103190016456E+00
 -0.226251465781E+00
 -0.110033953454E+00
 -0.252178095496E+00
 -0.155954730553E+00
 -0.306449886572E+00
 -0.208519006240E+00
 -0.326908410937E+00
 -0.223834902331E+00
 -0.287561064308E+00
 -0.195531103120E+00
 -0.206349247966E+00
 -0.155127249208E+00
 -0.114758968563E+00
 -0.111255769702E+00
 -0.312892680907E-01
 -0.657888799344E-01
  0.196936553443E-01
 -0.101471792588E-01
  0.171672734135E-01
  0.839297908889E-01
 -0.679583023757E-01
 -0.289596919831E+01
 -0.216251030945E+01
 -0.301978232567E+01
 -0.228259870543E+01
 -0.307648802912E+01
 -0.219427850908E+01
 -0.284110550694E+01
 -0.187879188320E+01
 -0.207203935660E+01
 -0.154378182717E+01
 -0.152984580656E+01
 -0.124460128026E+01
 -0.121126169943E+01
 -0.909289416935E+00
 -0.880446074552E+00
 -0.584202050226E+00
 -0.559580922034E+00
 -0.340494328157E+00
 -0.327663901046E+00
 -0.197909614815E+00
 -0.208030433931E+00
 -0.150584074584E+00
 -0.183400513494E+00
 -0.180342056788E+00
 -0.184528004465E+00
 -0.219940791410E+00
 -0.142318919226E+00
 -0.197357905103E+00
 -0.459234186507E-02
 -0.396406542907E-01
  0.482889976755E+00
  0.587557890979E+00
 -0.311689705794E+00
 -0.230947249817E+00
 -0.564169939936E+00
 -0.549343968273E+00
 -0.395924250582E+00
 -0.445110478819E+00
 -0.292486667299E+00
 -0.389322378302E+00
 -0.191281504452E+00
 -0.329336874927E+00
 -0.155925642373E+00
 -0.330675844767E+00
 -0.206474643219E+00
 -0.436187407034E+00
 -0.325959678700E+00
 -0.629559217706E+00
 -0.509916958834E+00
 -0.849850708725E+00
 -0.719296658979E+00
 -0.999270514517E+00
 -0.871503980447E+00
 -0.103188802828E+01
 -0.940591697404E+00
 -0.953865387095E+00
 -0.853725461577E+00
 -0.892898019261E+00
 -0.707480722320E+00
 -0.730044119966E+00
 -0.699955254347E+00
 -0.658338501880E+00
 -0.804637791134E+00
 -0.916124049082E+00
 -0.362133146726E+02
 -0.218615760536E+02
 -0.315986351468E+02
 -0.178585070199E+02
 -0.302237086446E+02
 -0.925274169302E+01
 -0.119302035744E+02
 -0.427212152126E+01
 -0.408295545373E+01
 -0.297953372544E+01
 -0.281768377317E+01
 -0.215459283042E+01
 -0.209002104484E+01
 -0.140198296786E+01
 -0.135166791804E+01
 -0.815545530939E+00
 -0.777351785469E+00
 -0.441076191000E+00
 -0.421744733298E+00
 -0.240407343379E+00
 -0.247488832262E+00
 -0.170654573016E+00
 -0.201833888852E+00
 -0.196861523153E+00
 -0.199974092975E+00
 -0.246459918314E+00
 -0.168650204731E+00
 -0.244474172264E+00
 -0.553509348605E-01
 -0.115707776821E+00
  0.381956731868E+00
  0.499504145307E+00
 -0.371800459505E+00
 -0.236683571077E+00
 -0.570922558399E+00
 -0.536347207765E+00
 -0.394185713990E+00
 -0.451872038378E+00
 -0.302355736746E+00
 -0.420462345063E+00
 -0.221042299180E+00
 -0.395967503898E+00
 -0.218384302294E+00
 -0.449775223684E+00
 -0.319631610902E+00
 -0.647898189449E+00
 -0.526254354869E+00
 -0.101677634584E+01
 -0.874338564075E+00
 -0.155296771093E+01
 -0.138547372498E+01
 -0.216088815483E+01