# vtk DataFile Version 3.0
MachLine results file. Generated by MachLine, USU AeroLab (c) 2022.
ASCII
DATASET POLYDATA
POINTS                 704 float
  0.000000000000E+00  0.000000000000E+00  0.000000000000E+00
  0.248292446136E+00  0.995846629143E+00  0.000000000000E+00
  0.327008455992E+00  0.000000000000E+00 -0.377908974886E+00
  0.327008455992E+00  0.000000000000E+00  0.377908974886E+00
  0.575300931931E+00  0.995846629143E+00 -0.377908974886E+00
  0.575300931931E+00  0.995846629143E+00  0.377908974886E+00
  0.791896879673E+00  0.317612481117E+01  0.000000000000E+00
  0.111890530586E+01  0.317612481117E+01 -0.377908974886E+00
  0.111890530586E+01  0.317612481117E+01  0.377908974886E+00
  0.141893637180E+01  0.000000000000E+00 -0.747395038605E+00
  0.141893637180E+01  0.000000000000E+00  0.747395038605E+00
  0.166722881794E+01  0.995846629143E+00 -0.747395038605E+00
  0.166722881794E+01  0.995846629143E+00  0.747395038605E+00
  0.188997995853E+01  0.758029556274E+01  0.000000000000E+00
  0.221083331108E+01  0.317612481117E+01 -0.747395038605E+00
  0.221083331108E+01  0.317612481117E+01  0.747395038605E+00
  0.221698832512E+01  0.758029556274E+01 -0.377908974886E+00
  0.221698832512E+01  0.758029556274E+01  0.377908974886E+00
  0.330891633034E+01  0.758029556274E+01 -0.747395038605E+00
  0.330891633034E+01  0.758029556274E+01  0.747395038605E+00
  0.375130796432E+01  0.000000000000E+00 -0.109082520008E+01
  0.375130796432E+01  0.000000000000E+00  0.109082520008E+01
  0.378684401512E+01  0.151882019043E+02  0.000000000000E+00
  0.399960041046E+01  0.995846629143E+00 -0.109082520008E+01
  0.399960041046E+01  0.995846629143E+00  0.109082520008E+01
  0.411385250092E+01  0.151882019043E+02 -0.377908974886E+00
  0.411385250092E+01  0.151882019043E+02  0.377908974886E+00
  0.454320478439E+01  0.317612481117E+01 -0.109082520008E+01
  0.454320478439E+01  0.317612481117E+01  0.109082520008E+01
  0.520578050613E+01  0.151882019043E+02 -0.747395038605E+00
  0.520578050613E+01  0.151882019043E+02  0.747395038605E+00
  0.564128780365E+01  0.758029556274E+01 -0.109082520008E+01
  0.564128780365E+01  0.758029556274E+01  0.109082520008E+01
  0.632187175751E+01  0.253556423187E+02  0.000000000000E+00
  0.664888000488E+01  0.253556423187E+02 -0.377908974886E+00
  0.664888000488E+01  0.253556423187E+02  0.377908974886E+00
  0.753815221786E+01  0.151882019043E+02 -0.109082520008E+01
  0.753815221786E+01  0.151882019043E+02  0.109082520008E+01
  0.764637804031E+01  0.000000000000E+00 -0.116701817513E+01
  0.764637804031E+01  0.000000000000E+00  0.116701817513E+01
  0.774080801010E+01  0.253556423187E+02 -0.747395038605E+00
  0.774080801010E+01  0.253556423187E+02  0.747395038605E+00
  0.789467048645E+01  0.995846629143E+00 -0.116701817513E+01
  0.789467048645E+01  0.995846629143E+00  0.116701817513E+01
  0.843827533722E+01  0.317612481117E+01 -0.116701817513E+01
  0.843827533722E+01  0.317612481117E+01  0.116701817513E+01
  0.875744724274E+01  0.351242027283E+02  0.000000000000E+00
  0.908445549011E+01  0.351242027283E+02 -0.377908974886E+00
  0.908445549011E+01  0.351242027283E+02  0.377908974886E+00
  0.953635787964E+01  0.758029556274E+01 -0.116701817513E+01
  0.953635787964E+01  0.758029556274E+01  0.116701817513E+01
  0.100731792450E+02  0.253556423187E+02 -0.109082520008E+01
  0.100731792450E+02  0.253556423187E+02  0.109082520008E+01
  0.101763830185E+02  0.351242027283E+02 -0.747395038605E+00
  0.101763830185E+02  0.351242027283E+02  0.747395038605E+00
  0.104584646225E+02  0.419466094971E+02  0.000000000000E+00
  0.107854728699E+02  0.419466094971E+02 -0.377908974886E+00
  0.107854728699E+02  0.419466094971E+02  0.377908974886E+00
  0.113995542526E+02  0.457211151123E+02  0.000000000000E+00
  0.114332218170E+02  0.151882019043E+02 -0.116701817513E+01
  0.114332218170E+02  0.151882019043E+02  0.116701817513E+01
  0.117265625000E+02  0.457211151123E+02 -0.377908974886E+00
  0.117265625000E+02  0.457211151123E+02  0.377908974886E+00
  0.118542175293E+02  0.475446701050E+02  0.000000000000E+00
  0.118774003983E+02  0.419466094971E+02 -0.747395038605E+00
  0.118774003983E+02  0.419466094971E+02  0.747395038605E+00
  0.120594816208E+02  0.483679389954E+02  0.000000000000E+00
  0.121493072510E+02  0.487282104492E+02  0.000000000000E+00
  0.121812257767E+02  0.475446701050E+02 -0.377908974886E+00
  0.121812257767E+02  0.475446701050E+02  0.377908974886E+00
  0.121880788803E+02  0.488837165833E+02  0.000000000000E+00
  0.122047147751E+02  0.489504356384E+02  0.000000000000E+00
  0.122118339539E+02  0.489789886475E+02  0.000000000000E+00
  0.122148771286E+02  0.489911956787E+02  0.000000000000E+00
  0.122161779404E+02  0.489964141846E+02  0.000000000000E+00
  0.122167329788E+02  0.489986419678E+02  0.000000000000E+00
  0.122169704437E+02  0.489995918274E+02  0.000000000000E+00
  0.122170724869E+02  0.490000000000E+02  0.000000000000E+00
  0.122584857941E+02  0.000000000000E+00 -0.823081254959E+00
  0.122584857941E+02  0.000000000000E+00  0.823081254959E+00
  0.123864908218E+02  0.483679389954E+02 -0.377908974886E+00
  0.123864908218E+02  0.483679389954E+02  0.377908974886E+00
  0.124763164520E+02  0.487282104492E+02 -0.377908974886E+00
  0.124763164520E+02  0.487282104492E+02  0.377908974886E+00
  0.125067777634E+02  0.995846629143E+00 -0.823081254959E+00
  0.125067777634E+02  0.995846629143E+00  0.823081254959E+00
  0.125087547302E+02  0.351242027283E+02 -0.109082520008E+01
  0.125087547302E+02  0.351242027283E+02  0.109082520008E+01
  0.125150871277E+02  0.488837165833E+02 -0.377908974886E+00
  0.125150871277E+02  0.488837165833E+02  0.377908974886E+00
  0.125317230225E+02  0.489504356384E+02 -0.377908974886E+00
  0.125317230225E+02  0.489504356384E+02  0.377908974886E+00
  0.125388422012E+02  0.489789886475E+02 -0.377908974886E+00
  0.125388422012E+02  0.489789886475E+02  0.377908974886E+00
  0.125418853760E+02  0.489911956787E+02 -0.377908974886E+00
  0.125418853760E+02  0.489911956787E+02  0.377908974886E+00
  0.125431861877E+02  0.489964141846E+02 -0.377908974886E+00
  0.125431861877E+02  0.489964141846E+02  0.377908974886E+00
  0.125437421799E+02  0.489986419678E+02 -0.377908974886E+00
  0.125437421799E+02  0.489986419678E+02  0.377908974886E+00
  0.125439796448E+02  0.489995918274E+02 -0.377908974886E+00
  0.125439796448E+02  0.489995918274E+02  0.377908974886E+00
  0.125440807343E+02  0.490000000000E+02 -0.377908974886E+00
  0.125440807343E+02  0.490000000000E+02  0.377908974886E+00
  0.126087274551E+02  0.492592849731E+02 -0.267221987247E+00
  0.126087274551E+02  0.492592849731E+02  0.267221987247E+00
  0.126355047226E+02  0.493666839600E+02 -0.118643873158E-14
  0.128184909821E+02  0.457211151123E+02 -0.747395038605E+00
  0.128184909821E+02  0.457211151123E+02  0.747395038605E+00
  0.130503826141E+02  0.317612481117E+01 -0.823081254959E+00
  0.130503826141E+02  0.317612481117E+01  0.823081254959E+00
  0.132731542587E+02  0.475446701050E+02 -0.747395038605E+00
  0.132731542587E+02  0.475446701050E+02  0.747395038605E+00
  0.134784183502E+02  0.483679389954E+02 -0.747395038605E+00
  0.134784183502E+02  0.483679389954E+02  0.747395038605E+00
  0.135682439804E+02  0.487282104492E+02 -0.747395038605E+00
  0.135682439804E+02  0.487282104492E+02  0.747395038605E+00
  0.136070156097E+02  0.488837165833E+02 -0.747395038605E+00
  0.136070156097E+02  0.488837165833E+02  0.747395038605E+00
  0.136236505508E+02  0.489504356384E+02 -0.747395038605E+00
  0.136236505508E+02  0.489504356384E+02  0.747395038605E+00
  0.136307706833E+02  0.489789886475E+02 -0.747395038605E+00
  0.136307706833E+02  0.489789886475E+02  0.747395038605E+00
  0.136338138580E+02  0.489911956787E+02 -0.747395038605E+00
  0.136338138580E+02  0.489911956787E+02  0.747395038605E+00
  0.136351146698E+02  0.489964141846E+02 -0.747395038605E+00
  0.136351146698E+02  0.489964141846E+02  0.747395038605E+00
  0.136356697083E+02  0.489986419678E+02 -0.747395038605E+00
  0.136356697083E+02  0.489986419678E+02  0.747395038605E+00
  0.136359071732E+02  0.489995918274E+02 -0.747395038605E+00
  0.136359071732E+02  0.489995918274E+02  0.747395038605E+00
  0.136360082626E+02  0.490000000000E+02 -0.747395038605E+00
  0.136360082626E+02  0.490000000000E+02  0.747395038605E+00
  0.137638616562E+02  0.495127906799E+02 -0.528488099575E+00
  0.137638616562E+02  0.495127906799E+02  0.528488099575E+00
  0.138168201447E+02  0.497251930237E+02 -0.643262760529E-15
  0.139682502747E+02  0.253556423187E+02 -0.116701817513E+01
  0.139682502747E+02  0.253556423187E+02  0.116701817513E+01
  0.141484651566E+02  0.758029556274E+01 -0.823081254959E+00
  0.141484651566E+02  0.758029556274E+01  0.823081254959E+00
  0.142097721100E+02  0.419466094971E+02 -0.109082520008E+01
  0.142097721100E+02  0.419466094971E+02  0.109082520008E+01
  0.151508617401E+02  0.457211151123E+02 -0.109082520008E+01
  0.151508617401E+02  0.457211151123E+02  0.109082520008E+01
  0.156055259705E+02  0.475446701050E+02 -0.109082520008E+01
  0.156055259705E+02  0.475446701050E+02  0.109082520008E+01
  0.158107900620E+02  0.483679389954E+02 -0.109082520008E+01
  0.158107900620E+02  0.483679389954E+02  0.109082520008E+01
  0.159006156921E+02  0.487282104492E+02 -0.109082520008E+01
  0.159006156921E+02  0.487282104492E+02  0.109082520008E+01
  0.159393873215E+02  0.488837165833E+02 -0.109082520008E+01
  0.159393873215E+02  0.488837165833E+02  0.109082520008E+01
  0.159560222626E+02  0.489504356384E+02 -0.109082520008E+01
  0.159560222626E+02  0.489504356384E+02  0.109082520008E+01
  0.159631414413E+02  0.489789886475E+02 -0.109082520008E+01
  0.159631414413E+02  0.489789886475E+02  0.109082520008E+01
  0.159661855698E+02  0.489911956787E+02 -0.109082520008E+01
  0.159661855698E+02  0.489911956787E+02  0.109082520008E+01
  0.159674854279E+02  0.489964141846E+02 -0.109082520008E+01
  0.159674854279E+02  0.489964141846E+02  0.109082520008E+01
  0.159680414200E+02  0.489986419678E+02 -0.109082520008E+01
[...]
CELL_DATA                1336
SCALARS C_p_inc float 1
LOOKUP_TABLE default
  0.487848794201E+00
  0.466698815222E+00
  0.425184126046E+00
  0.410638205350E+00
  0.382606503405E+00
  0.370850205143E+00
  0.342196462210E+00
  0.332121936714E+00
  0.301553865756E+00
  0.292409400021E+00
  0.259891411288E+00
  0.251081434272E+00
  0.217026233655E+00
  0.208141525735E+00
  0.172594776051E+00
  0.164151488523E+00
  0.126077303852E+00
  0.119636116468E+00
  0.760060731588E-01
  0.714935256329E-01
  0.125681501535E-01
  0.795876945864E-02
 -0.553572450324E-01
 -0.590058292234E-01
 -0.306559063003E-01
 -0.382358893361E-01
  0.155413461822E+00
  0.130549940552E+00
  0.510342607411E+00
  0.471256630326E+00
  0.969729597511E+00
  0.965933013744E+00
 -0.690794392342E+00
 -0.347680744285E+00
 -0.101184246690E+01
 -0.899771567249E+00
 -0.791674621647E+00
 -0.777255647065E+00
 -0.624355919565E+00
 -0.630253567441E+00
 -0.419556112124E+00
 -0.406026468964E+00
 -0.202822633685E+00
 -0.191308271670E+00
 -0.570832594156E-01
 -0.460808937725E-01
  0.377165418638E-01
  0.517680303075E-01
  0.110310989027E+00
  0.127530229846E+00
  0.171429925596E+00
  0.189719880604E+00
  0.224840386769E+00
  0.243219767984E+00
  0.272777278788E+00
  0.291108421520E+00
  0.316950580461E+00
  0.335185922011E+00
  0.359082063751E+00
  0.377099388906E+00
  0.402369041817E+00
  0.419568901325E+00
  0.464543672559E+00
  0.479614860617E+00
  0.480493498506E+00
  0.486459835883E+00
  0.421031191644E+00
  0.424052134129E+00
  0.379253836477E+00
  0.381641092529E+00
  0.339365300583E+00
  0.341384402016E+00
  0.299050739915E+00
  0.300892341797E+00
  0.257660073236E+00
  0.259381249003E+00
  0.215251572014E+00
  0.216668329520E+00
  0.172133804962E+00
  0.172383228072E+00
  0.128318269784E+00
  0.125981105438E+00
  0.803076632410E-01
  0.759764585807E-01
  0.170734831410E-01
  0.125859632490E-01
 -0.540593252926E-01
 -0.553735069961E-01
 -0.381682624215E-01
 -0.481495637742E-01
  0.130736038015E+00
  0.113919607701E+00
  0.467836906702E+00
  0.467584476991E+00
  0.948684042766E+00
  0.941272991304E+00
 -0.857863222087E+00
 -0.691864625340E+00
 -0.111517541851E+01
 -0.101007377076E+01
 -0.827247465700E+00
 -0.792993991664E+00
 -0.624136840697E+00
 -0.625488164493E+00
 -0.405924517292E+00
 -0.391120427918E+00
 -0.191198398479E+00
 -0.174699582011E+00
 -0.460669802604E-01
 -0.301373703826E-01
  0.517058871893E-01
  0.651203482216E-01
  0.127346340702E+00
  0.137098361552E+00
  0.189376807728E+00
  0.197052961168E+00
  0.242712025684E+00
  0.249509235513E+00
  0.290442536861E+00
  0.296859814837E+00
  0.334369065740E+00
  0.340669377556E+00
  0.376134645399E+00
  0.382551120978E+00
  0.418449503716E+00
  0.425472662140E+00
  0.478266528368E+00
  0.485290383761E+00
  0.478459745654E+00
  0.479608704681E+00
  0.419925674547E+00
  0.420281607048E+00
  0.377528481523E+00
  0.378594733339E+00
  0.337297811807E+00
  0.338789580078E+00
  0.296741270347E+00
  0.298556730797E+00
  0.255190173980E+00
  0.257247773198E+00
  0.212693240587E+00
  0.214921378951E+00
  0.169671208065E+00
  0.171886357497E+00
  0.126501586403E+00
  0.128154696330E+00
  0.801631094822E-01
  0.802290217329E-01
  0.183381266025E-01
  0.170725688848E-01
 -0.550670238447E-01
 -0.540647641893E-01
 -0.479971851083E-01
 -0.545186117802E-01
  0.113765887954E+00
  0.109703419610E+00
  0.465927843356E+00
  0.475212460608E+00
  0.938163316443E+00
  0.931723397487E+00
 -0.968353787661E+00
 -0.858507904081E+00
 -0.118696245954E+01
 -0.111412313516E+01
 -0.860290025692E+00
 -0.828072481187E+00
 -0.627529099876E+00
 -0.625729454760E+00
 -0.391338316895E+00
 -0.376923146787E+00
 -0.174653603700E+00
 -0.156693032679E+00
 -0.301327387597E-01
 -0.145741939340E-01
  0.650830324028E-01
  0.772862125703E-01
  0.137033808407E+00
  0.147094902671E+00
  0.196965575249E+00
  0.205770080780E+00
  0.249399220696E+00
  0.257344449696E+00
  0.296727006122E+00
  0.303972743045E+00
  0.340513792732E+00
  0.347101453955E+00
  0.382372510003E+00
  0.388284171502E+00
  0.425269313303E+00
  0.430263240488E+00
  0.485050712944E+00
  0.486624168061E+00
  0.473535008561E+00
  0.477511177956E+00
  0.415899310952E+00
  0.419107747866E+00
  0.373113000036E+00
  0.376800745354E+00
  0.332580110675E+00
  0.336652785136E+00
  0.291740100710E+00
  0.296177296088E+00
  0.249908593110E+00
  0.254707514032E+00
  0.207120376752E+00
  0.212293077847E+00
  0.163809771381E+00
  0.169355729033E+00
  0.120451582039E+00
  0.126274455597E+00
  0.742824719083E-01
  0.800311467850E-01
  0.130963340322E-01
  0.183074552956E-01
 -0.599930838027E-01
 -0.550408266628E-01
 -0.544263415093E-01
 -0.593132798320E-01
  0.109561127251E+00
  0.107943217811E+00
  0.474713861748E+00
  0.478875652438E+00
  0.931441993491E+00
  0.928622035388E+00
 -0.101137932559E+01
 -0.968446222112E+00
 -0.121347374337E+01
 -0.118713507644E+01
 -0.870912719565E+00
 -0.861271679636E+00
 -0.624766603738E+00
 -0.629073054614E+00
 -0.377433600110E+00
 -0.364169520003E+00
 -0.156805838228E+00
 -0.141072392005E+00
 -0.145930582563E-01
 -0.127934554827E-03
  0.773391909652E-01
  0.901568765704E-01
  0.147224076945E+00
  0.158773856940E+00
  0.205972254087E+00
  0.216559132350E+00
  0.257614133059E+00
  0.267421415488E+00
  0.304305347372E+00
  0.313432905004E+00
  0.347493936931E+00
  0.355994247355E+00
  0.388735618257E+00
  0.396614072782E+00
  0.430776918992E+00
  0.438166199865E+00
  0.487225512940E+00
  0.491957748082E+00
  0.465838126738E+00
  0.472066209676E+00
  0.407530694462E+00
  0.414611691890E+00
  0.364118139207E+00
  0.371953632397E+00
  0.323057421717E+00
  0.331538228436E+00
  0.281676672701E+00
  0.290813492621E+00
  0.239279497190E+00
  0.249098119969E+00
  0.195868597453E+00
  0.206428979448E+00
  0.151873655302E+00
  0.163243437208E+00
  0.107831555428E+00
  0.120021311140E+00
  0.611472465771E-01
  0.740064333662E-01
 -0.187609705272E-03
  0.129887551710E-01
 -0.729280388245E-01
 -0.599729647147E-01
 -0.592540072218E-01
 -0.726558027208E-01
  0.107776032194E+00
  0.937459208078E-01
  0.478477900519E+00
  0.464480236189E+00
  0.928322610537E+00
  0.932301273642E+00
 -0.963731882518E+00
 -0.101134238763E+01
 -0.118358052510E+01
 -0.121412241670E+01
 -0.849669805699E+00
 -0.872032359645E+00
 -0.604754011401E+00
 -0.626235803916E+00
 -0.364725844060E+00
 -0.343525437701E+00
 -0.141385925141E+00
 -0.120378716300E+00
 -0.278377967804E-03
  0.193630146236E-01
  0.901741786286E-01
  0.108296261896E+00
  0.158963607042E+00
  0.175693504273E+00
  0.216914661122E+00
  0.232434269568E+00
  0.267932169138E+00
  0.282403377280E+00
  0.314089706843E+00
  0.327618942542E+00
  0.356790787646E+00
  0.369447127633E+00
  0.397548540225E+00
  0.409345157283E+00
  0.439246956582E+00
  0.450306332252E+00
  0.493237099208E+00
  0.502786570300E+00
  0.455299763139E+00
  0.463150475625E+00
  0.394002996375E+00
  0.405137117834E+00
  0.349439415338E+00
  0.361933541206E+00
  0.307367785394E+00
  0.321064067174E+00
  0.265045804196E+00
  0.279871468801E+00
  0.221712730358E+00
  0.237665082902E+00
  0.177349224366E+00
  0.194452820184E+00
  0.132424319352E+00
  0.150672987429E+00
  0.876189995231E-01
  0.106876765213E+00
  0.405015356926E-01
  0.604868181769E-01
 -0.211668461369E-01
 -0.513715334022E-03
 -0.949904533069E-01
 -0.729861537364E-01
 -0.726810126550E-01
 -0.991319400582E-01
  0.933810448740E-01
  0.607555753308E-01
  0.463561639654E+00
  0.426066940358E+00
  0.930586860131E+00
  0.938745006869E+00
 -0.827122115461E+00
 -0.963669994258E+00
 -0.109816280709E+01
 -0.118442183380E+01
 -0.794304717420E+00
 -0.851118764747E+00
 -0.559836301475E+00
 -0.606778404373E+00
 -0.344151458680E+00
 -0.304468377706E+00
 -0.121075061578E+00
 -0.859300688080E-01
  0.187584754416E-01
  0.500230375250E-01
  0.107903336140E+00
  0.136468120329E+00
  0.175571459152E+00
  0.202057466734E+00
  0.232596167746E+00
  0.257329229880E+00
  0.282841228444E+00
  0.306040695300E+00
  0.328320569083E+00
  0.350114671452E+00
  0.370402768127E+00
  0.390832660033E+00
  0.410552014727E+00
  0.429585581596E+00
  0.451780945863E+00
  0.469098058205E+00
  0.504620594433E+00
  0.521411367175E+00
  0.438097816784E+00
  0.450385002093E+00
  0.372205083298E+00
  0.389561325722E+00
  0.326085743583E+00
  0.345325910782E+00
  0.282624933079E+00
  0.303555033552E+00
  0.239084199203E+00
  0.261530887068E+00
  0.194685361924E+00
  0.218505411503E+00
  0.149551461162E+00
  0.174474645337E+00
  0.104499000526E+00
  0.129932995541E+00
  0.607827355934E-01
  0.855936733724E-01
  0.164282618202E-01
  0.390327137833E-01
 -0.416277590756E-01
 -0.220543255166E-01
 -0.115283507998E+00
 -0.953741624118E-01
 -0.995651405119E-01
 -0.129414883320E+00
  0.598206947987E-01
  0.151850486752E-01
  0.423946454349E+00
  0.369699638236E+00
  0.934106321807E+00
  0.938412332522E+00
 -0.649059835946E+00
 -0.827095670343E+00
 -0.982935537044E+00
 -0.109904277948E+01
 -0.715341968854E+00
 -0.796376765202E+00
 -0.491100379791E+00
 -0.563526183372E+00
 -0.305342095667E+00
 -0.247877902993E+00
 -0.877414357309E-01
 -0.426746241814E-01
  0.478267536170E-01
  0.850672760176E-01
  0.134351191104E+00
  0.168276693319E+00
  0.200274240099E+00
  0.232571708278E+00
  0.255983042068E+00
  0.286938048867E+00
  0.305156231348E+00
  0.334777115338E+00
  0.349687042596E+00
  0.377963871845E+00
  0.390850850307E+00
  0.417724586323E+00
  0.430046339559E+00
  0.455379416383E+00
  0.470028313977E+00
  0.493456703930E+00
  0.522994013957E+00
  0.545769129073E+00
  0.405737660119E+00
  0.429142862578E+00
  0.334604757469E+00
  0.363994440162E+00
  0.286058208791E+00
  0.318374101790E+00
  0.240715311226E+00
  0.275375717501E+00
  0.195746114733E+00
  0.232304729465E+00
  0.150541562255E+00
  0.188419551685E+00
  0.105785544165E+00
  0.143898798868E+00
  0.632989650996E-01
  0.996417528536E-01
  0.253952802168E-01
  0.569566588838E-01
 -0.955702653221E-02
  0.137097343662E-01
 -0.564481780227E-01
 -0.435883699265E-01
 -0.123160613795E+00
 -0.116827819037E+00
 -0.131333680332E+00
 -0.146072749660E+00
  0.123442695805E-01
 -0.292219925912E-01
  0.364685278503E+00
  0.304154899011E+00
  0.927757280134E+00
  0.925135938194E+00
 -0.486061835363E+00
 -0.649400588761E+00
 -0.870884232406E+00
 -0.983493887124E+00
 -0.626134393967E+00
 -0.718477919935E+00
 -0.410466077133E+00
 -0.498855380400E+00
 -0.249275864842E+00
 -0.193122774781E+00
 -0.476168990283E-01
 -0.962949302242E-02
  0.781141776227E-01
  0.107557816396E+00
  0.160790714022E+00
  0.189088789316E+00
  0.225271100878E+00
  0.255228419045E+00
  0.280148588338E+00
  0.311363497701E+00
  0.328637724356E+00
  0.360091932641E+00
  0.372518070265E+00
  0.403510066952E+00
  0.412976239958E+00
  0.443100109141E+00
  0.451330004291E+00
  0.480218573223E+00
  0.490146884137E+00
  0.517230564042E+00
  0.543529080883E+00
  0.569383874380E+00
  0.353739981487E+00
  0.388153073042E+00
  0.273234681728E+00
  0.318237528287E+00
  0.220212488856E+00
  0.270498882470E+00
  0.172017006831E+00
  0.225925393104E+00
  0.125535405385E+00
  0.181791484275E+00
  0.808330401655E-01
  0.137615382329E+00
  0.400425968058E-01
  0.942786620110E-01
  0.644443404001E-02
  0.538150363354E-01
 -0.176382348376E-01
  0.184494751731E-01
 -0.367193015582E-01
 -0.142472004955E-01
 -0.699454609341E-01
 -0.601648963645E-01
 -0.125780908385E+00
 -0.127338661975E+00
 -0.150930602625E+00
 -0.148783798846E+00
 -0.372196192931E-01
 -0.567459701636E-01
  0.291897968094E+00
  0.237959564254E+00
  0.902950191526E+00
  0.897782516026E+00
 -0.365611477319E+00
 -0.487672352068E+00
 -0.772282518119E+00
 -0.871207103239E+00
 -0.537108470254E+00
 -0.632107244340E+00
 -0.343902450321E+00
 -0.426778090287E+00
 -0.194697534632E+00
 -0.162505953167E+00
 -0.205437673818E-01
  0.232611891318E-03
  0.903347026062E-01
  0.107603476248E+00
  0.169610275836E+00
  0.189356399052E+00
  0.235164058731E+00
  0.261624782681E+00
  0.291415856098E+00
  0.324371357517E+00
  0.340713552743E+00
  0.377337491036E+00
  0.384955902614E+00
  0.422747528710E+00
  0.425476874757E+00
  0.462836714975E+00
  0.463568507611E+00
  0.499385598531E+00
  0.501618260673E+00
  0.534505163436E+00
  0.555325780542E+00
  0.583445578317E+00
  0.253174147499E+00
  0.316586478254E+00
  0.164174583910E+00
  0.238237286461E+00
  0.107520997933E+00
  0.186655515211E+00
  0.577193297604E-01
  0.139923374377E+00
  0.126741350680E-01
  0.952498237873E-01
 -0.254219428974E-01
  0.531395538118E-01
 -0.522123706829E-01
  0.162469552071E-01
 -0.648492503119E-01
 -0.120449638049E-01
 -0.658681193235E-01
 -0.305084535007E-01
 -0.677330545532E-01
 -0.449223858736E-01
 -0.878074592603E-01
 -0.758838855688E-01
 -0.131402160478E+00
 -0.133573428112E+00
 -0.155653283117E+00
 -0.152314562264E+00
 -0.719967998413E-01
 -0.720754845540E-01
  0.211117928205E+00
  0.183616540871E+00
  0.854805341660E+00
  0.856899559525E+00
 -0.288948638613E+00
 -0.369724595652E+00
 -0.683797657867E+00
 -0.773377588163E+00
 -0.469247099352E+00
 -0.548517356511E+00
 -0.304908854449E+00
 -0.373220879469E+00
 -0.160614223441E+00
 -0.161237538328E+00
 -0.163199070223E-01
 -0.178014333568E-01
  0.745762884386E-01
  0.794617218038E-01
  0.148358272943E+00
  0.159695712343E+00
  0.217344349335E+00
  0.239919479125E+00
  0.278127733425E+00
  0.315048630461E+00
  0.330261885188E+00
  0.378643816187E+00
  0.375878222083E+00
  0.430410478210E+00
  0.416807645460E+00
  0.473487435102E+00
  0.454494290407E+00
  0.510911781418E+00
  0.490912588725E+00
  0.545517099138E+00
  0.541869310960E+00
  0.592438227680E+00
  0.540995951074E-01
  0.172322396465E+00
 -0.352202299606E-01
  0.871069101786E-01
 -0.904747824652E-01
  0.332242343073E-01
 -0.135465256105E+00
 -0.132666783798E-01
 -0.168639050861E+00
 -0.534516436091E-01
 -0.183984869505E+00
 -0.839695764514E-01
 -0.177813270519E+00
 -0.100010154577E+00
 -0.154644015552E+00
 -0.100413729453E+00
 -0.128900829148E+00
 -0.890621941430E-01
 -0.110751625610E+00
 -0.791584864217E-01
 -0.111948351124E+00
 -0.938381904615E-01
 -0.141022505621E+00
 -0.142107781557E+00
 -0.157494919291E+00
 -0.162283104066E+00
 -0.893770558895E-01
 -0.920899246949E-01
  0.139686842709E+00
  0.138986265657E+00
  0.780970368533E+00
  0.804476516521E+00
 -0.248450191380E+00
 -0.294892825793E+00
 -0.616814562170E+00
 -0.685272150351E+00
 -0.429602690124E+00
 -0.487200187283E+00
 -0.287350558047E+00
 -0.349619756254E+00
 -0.148355164540E+00
 -0.183584361915E+00
 -0.316275557381E-01
 -0.650852772560E-01
  0.321888529078E-01
  0.128364399266E-01
  0.870617140075E-01
  0.833819893331E-01
  0.153766217626E+00
  0.164804077751E+00
  0.220468768424E+00
  0.253502361433E+00
  0.277397955833E+00
  0.334989176170E+00
  0.325410028625E+00
  0.401342168860E+00
  0.367393781655E+00
  0.453271175743E+00
  0.405328734538E+00
  0.495673046935E+00
  0.441255001457E+00
  0.533730825302E+00
  0.490731806220E+00
  0.585344730286E+00
 -0.287517527243E+00
 -0.124314906878E+00
 -0.385147185600E+00
 -0.207204661715E+00
 -0.436442865513E+00
 -0.256320423848E+00
 -0.464244846652E+00
 -0.292049810367E+00
 -0.462213696793E+00
 -0.310091186568E+00
 -0.424459083553E+00
 -0.303172082200E+00
 -0.358888531879E+00
 -0.270973493598E+00
 -0.290251835359E+00
 -0.219204358179E+00
 -0.227006124542E+00
 -0.160925985407E+00
 -0.170185529402E+00
 -0.117338371332E+00
 -0.140708870287E+00
 -0.112963980442E+00
 -0.153358189539E+00
 -0.153240988740E+00
 -0.162798083578E+00
 -0.177664951371E+00
 -0.102727561152E+00
 -0.120330241748E+00
  0.876436273390E-01
  0.891517162394E-01
  0.689735042423E+00
  0.743817315421E+00
 -0.239169553344E+00
 -0.249846630791E+00
 -0.578796210193E+00
 -0.615129698996E+00
 -0.409213189922E+00
 -0.454716295392E+00
 -0.282570193725E+00
 -0.349088810058E+00
 -0.152390540580E+00
 -0.221610879894E+00
 -0.615804227505E-01
 -0.136730432718E+00
 -0.308001473703E-01
 -0.997364123507E-01
 -0.172227790728E-01
 -0.660479362672E-01
  0.161144095213E-01
 -0.448049973644E-02
  0.752115544281E-01
  0.823241622446E-01
  0.134289950506E+00
  0.179227004565E+00
  0.182633598805E+00
  0.266713869204E+00
  0.224009554472E+00
  0.335213063254E+00
  0.262315194071E+00
  0.385665809988E+00
  0.300231683218E+00
  0.425711379234E+00
  0.355122905692E+00
  0.473806670729E+00
 -0.101300692376E+01
 -0.711578486981E+00
 -0.110523495835E+01
 -0.793109291097E+00
 -0.112148468520E+01
 -0.823385260175E+00
 -0.109044568683E+01
 -0.814944752906E+00
 -0.988930814614E+00
 -0.756531732312E+00
 -0.820761412832E+00
 -0.657937587781E+00
 -0.662687214433E+00
 -0.528764229589E+00
 -0.520019588372E+00
 -0.380583465059E+00
 -0.371784036824E+00
 -0.245941110771E+00
 -0.243045060956E+00
 -0.157165391558E+00
 -0.172641281438E+00
 -0.131863278651E+00
 -0.167633759607E+00
 -0.166206615255E+00
 -0.172093867133E+00
 -0.197077258104E+00
 -0.119555789604E+00
 -0.155160658822E+00
  0.443243814139E-01
  0.304711397963E-01
  0.594840299062E+00
  0.676086965015E+00
 -0.257433399462E+00
 -0.225362420810E+00
 -0.563192257505E+00
 -0.569942207175E+00
 -0.399348044182E+00
 -0.442521421560E+00
 -0.284983573506E+00
 -0.363209748802E+00
 -0.167625956673E+00
 -0.270205261276E+00
 -0.103382808094E+00
 -0.225858165939E+00
 -0.110489490365E+00
 -0.252148145841E+00
 -0.156761336726E+00
 -0.306709404459E+00
 -0.209617655638E+00
 -0.327464604775E+00
 -0.224581156353E+00
 -0.288548009799E+00
 -0.195683011546E+00
 -0.208376173131E+00
 -0.159056728336E+00
 -0.114990043235E+00
 -0.126743175242E+00
 -0.225524099638E-01
 -0.997239385734E-01
  0.487098939154E-01
 -0.705334475540E-01
  0.917076778549E-01
 -0.228706994741E-01
  0.129028006848E+00
 -0.384362230858E+01
 -0.243488155359E+01
 -0.340752683593E+01
 -0.243148168981E+01
 -0.324671842709E+01
 -0.227246149062E+01
 -0.291263885781E+01
 -0.191460937493E+01
 -0.208662789449E+01
 -0.155433457581E+01
 -0.152480635221E+01
 -0.124327262500E+01
 -0.120401788110E+01
 -0.905666068581E+00
 -0.874886394087E+00
 -0.581554060271E+00
 -0.556145214612E+00
 -0.339079446993E+00
 -0.325977377715E+00
 -0.197448922546E+00
 -0.207650731872E+00
 -0.150783094150E+00
 -0.183766795941E+00
 -0.180798631169E+00
 -0.184653611787E+00
 -0.219944083824E+00
 -0.141098276166E+00
 -0.195810042510E+00
 -0.332673712853E-03
 -0.361627881872E-01
  0.499700767698E+00
  0.599757639189E+00
 -0.298624472682E+00
 -0.217842999586E+00
 -0.561692735383E+00
 -0.544672839403E+00
 -0.394843620726E+00
 -0.442100835408E+00
 -0.291625245854E+00
 -0.386748403850E+00
 -0.190688316992E+00
 -0.327420957692E+00
 -0.155471473341E+00
 -0.329224884105E+00
 -0.206144849206E+00
 -0.434740026713E+00
 -0.325775932682E+00
 -0.627636395057E+00
 -0.509627406554E+00
 -0.847034827186E+00
 -0.717774973601E+00
 -0.994869044088E+00
 -0.864774231104E+00
 -0.102461769921E+01
 -0.921364912000E+00
 -0.936371442721E+00
 -0.817012598227E+00
 -0.843949487508E+00
 -0.650531053041E+00
 -0.636327503531E+00
 -0.599784847910E+00
 -0.485129290042E+00
 -0.574070498024E+00
 -0.432641972974E+00
 -0.349033328141E+02
 -0.210782190619E+02
 -0.303828629108E+02
 -0.173517683044E+02
 -0.297881633976E+02
 -0.913605821393E+01
 -0.118483361105E+02
 -0.426079123753E+01
 -0.401331042866E+01
 -0.296772310132E+01
 -0.278329474091E+01
 -0.214117905885E+01
 -0.207020702707E+01
 -0.139282735570E+01
 -0.134015840155E+01
 -0.810337516807E+00
 -0.771116518643E+00
 -0.438463792802E+00
 -0.418780640279E+00
 -0.239394377200E+00
 -0.246554612769E+00
 -0.170593389613E+00
 -0.201966415501E+00
 -0.197163916472E+00
 -0.199950280411E+00
 -0.246218886777E+00
 -0.167103957630E+00
 -0.242391416757E+00
 -0.501881121846E-01
 -0.111397662263E+00
  0.400842994467E+00
  0.512862279881E+00
 -0.358807343005E+00
 -0.223508991204E+00
 -0.568877927085E+00
 -0.531659365588E+00
 -0.393011244371E+00
 -0.448385247683E+00
 -0.301055355714E+00
 -0.417050521997E+00
 -0.219761659601E+00
 -0.393023598683E+00
 -0.217144044587E+00
 -0.447046628037E+00
 -0.318252610441E+00
 -0.644557236720E+00
 -0.524610689468E+00
 -0.101167498426E+01
 -0.871728694047E+00
 -0.154424240124E+01
 -0.137972989060E+01
 -0.214461369446E+01