# vtk DataFile Version 3.0
MachLine results file. Generated by MachLine, USU AeroLab (c) 2022.
ASCII
DATASET POLYDATA
POINTS                 704 float
  0.104088484932E-04  0.000000000000E+00  0.382883458080E-21
  0.871412357874E-01  0.995845233758E+00  0.000000000000E+00
  0.277905168316E+00  0.317612216450E+01  0.000000000000E+00
  0.327014469033E+00  0.000000000000E+00 -0.377898000477E+00
  0.327014469033E+00  0.000000000000E+00  0.377898000477E+00
  0.414142479067E+00  0.995845866092E+00 -0.377895994845E+00
  0.414142479067E+00  0.995845866092E+00  0.377895994845E+00
  0.604898890710E+00  0.317612345353E+01 -0.377885880422E+00
  0.604898890710E+00  0.317612345353E+01  0.377885880422E+00
  0.663241794594E+00  0.758029102150E+01  0.127290261596E-20
  0.990224931934E+00  0.758029323920E+01 -0.377869449886E+00
  0.990224931934E+00  0.758029323920E+01  0.377869449886E+00
  0.132886739494E+01  0.151881956189E+02  0.176179441887E-20
  0.141894041976E+01  0.000000000000E+00 -0.747375680590E+00
  0.141894041976E+01  0.000000000000E+00  0.747375680590E+00
  0.150606666545E+01  0.995846192374E+00 -0.747374299634E+00
  0.150606666545E+01  0.995846192374E+00  0.747374299634E+00
  0.165584226035E+01  0.151881985499E+02 -0.377851913357E+00
  0.165584226035E+01  0.151881985499E+02  0.377851913357E+00
  0.169681898111E+01  0.317612414077E+01 -0.747363206156E+00
  0.169681898111E+01  0.317612414077E+01  0.747363206156E+00
  0.208213856733E+01  0.758029449640E+01 -0.747344405869E+00
  0.208213856733E+01  0.758029449640E+01  0.747344405869E+00
  0.221840568012E+01  0.253556358145E+02 -0.364622574605E-20
  0.254538259286E+01  0.253556385768E+02 -0.377845322556E+00
  0.254538259286E+01  0.253556385768E+02  0.377845322556E+00
  0.274774901515E+01  0.151882004090E+02 -0.747324038783E+00
  0.274774901515E+01  0.151882004090E+02  0.747324038783E+00
  0.307302686449E+01  0.351241977040E+02 -0.563319935394E-20
  0.340001386309E+01  0.351241995839E+02 -0.377855486428E+00
  0.340001386309E+01  0.351241995839E+02  0.377855486428E+00
  0.363728653683E+01  0.253556406610E+02 -0.747316327886E+00
  0.363728653683E+01  0.253556406610E+02  0.747316327886E+00
  0.366988804928E+01  0.419466064074E+02 -0.866044367132E-21
  0.375130982677E+01  0.000000000000E+00 -0.109079507414E+01
  0.375130982677E+01  0.000000000000E+00  0.109079507414E+01
  0.383843580191E+01  0.995846407253E+00 -0.109079466694E+01
  0.383843580191E+01  0.995846407253E+00  0.109079466694E+01
  0.399688494913E+01  0.419466074210E+02 -0.377873659269E+00
  0.399688494913E+01  0.419466074210E+02  0.377873659269E+00
  0.400009827431E+01  0.457211134396E+02  0.000000000000E+00
  0.402918630381E+01  0.317612451433E+01 -0.109078435361E+01
  0.402918630381E+01  0.317612451433E+01  0.109078435361E+01
  0.415963010181E+01  0.475446692044E+02  0.000000000000E+00
  0.423165284655E+01  0.483679384435E+02  0.000000000000E+00
  0.426317066503E+01  0.487282100368E+02  0.115607263706E-21
  0.427677515696E+01  0.488837162256E+02  0.000000000000E+00
  0.428261186673E+01  0.489504353029E+02  0.000000000000E+00
  0.428510991081E+01  0.489789883212E+02 -0.182878024940E-21
  0.428617798136E+01  0.489911953565E+02 -0.271029700448E-21
  0.428663429553E+01  0.489964138641E+02 -0.898772944799E-22
  0.428682931372E+01  0.489986416469E+02 -0.896773842313E-22
  0.428691275691E+01  0.489995915084E+02  0.268782634626E-21
  0.428694859479E+01  0.489999979567E+02  0.155947395340E-20
  0.432710152768E+01  0.457211139182E+02 -0.377888662577E+00
  0.432710152768E+01  0.457211139182E+02  0.377888662577E+00
  0.441450276449E+01  0.758029513298E+01 -0.109076606329E+01
  0.441450276449E+01  0.758029513298E+01  0.109076606329E+01
  0.448663592657E+01  0.475446694164E+02 -0.377897260916E+00
  0.448663592657E+01  0.475446694164E+02  0.377897260916E+00
  0.449192180352E+01  0.351242013185E+02 -0.747328096646E+00
  0.449192180352E+01  0.351242013185E+02  0.747328096646E+00
  0.455865995968E+01  0.483679385427E+02 -0.377901273935E+00
  0.455865995968E+01  0.483679385427E+02  0.377901273935E+00
  0.459017873924E+01  0.487282100936E+02 -0.377902926286E+00
  0.459017873924E+01  0.487282100936E+02  0.377902926286E+00
  0.460378295962E+01  0.488837162645E+02 -0.377903552216E+00
  0.460378295962E+01  0.488837162645E+02  0.377903552216E+00
  0.460962024061E+01  0.489504353336E+02 -0.377903789582E+00
  0.460962024061E+01  0.489504353336E+02  0.377903789582E+00
  0.461211832701E+01  0.489789883482E+02 -0.377903884048E+00
  0.461211832701E+01  0.489789883482E+02  0.377903884048E+00
  0.461318641605E+01  0.489911953818E+02 -0.377903923045E+00
  0.461318641605E+01  0.489911953818E+02  0.377903923045E+00
  0.461364273819E+01  0.489964138888E+02 -0.377903939448E+00
  0.461364273819E+01  0.489964138888E+02  0.377903939448E+00
  0.461383728304E+01  0.489986416718E+02 -0.377903946441E+00
  0.461383728304E+01  0.489986416718E+02  0.377903946441E+00
  0.461392072754E+01  0.489995915315E+02 -0.377903949403E+00
  0.461392072754E+01  0.489995915315E+02  0.377903949403E+00
  0.461395683644E+01  0.489999985077E+02 -0.377903493442E+00
  0.461395683644E+01  0.489999985077E+02  0.377903493442E+00
  0.463724665448E+01  0.492661995234E+02 -0.267217853414E+00
  0.463724665448E+01  0.492661995234E+02  0.267217853414E+00
  0.464689305511E+01  0.493764671777E+02 -0.118643118012E-14
  0.508011000163E+01  0.151882013265E+02 -0.109074569244E+01
  0.508011000163E+01  0.151882013265E+02  0.109074569244E+01
  0.508880006128E+01  0.419466085282E+02 -0.747349030553E+00
  0.508880006128E+01  0.419466085282E+02  0.747349030553E+00
  0.541902239428E+01  0.457211145010E+02 -0.747366014350E+00
  0.541902239428E+01  0.457211145010E+02  0.747366014350E+00
  0.557856076838E+01  0.475446696931E+02 -0.747375482322E+00
  0.557856076838E+01  0.475446696931E+02  0.747375482322E+00
  0.565058647390E+01  0.483679386731E+02 -0.747379736483E+00
  0.565058647390E+01  0.483679386731E+02  0.747379736483E+00
  0.568210595774E+01  0.487282101625E+02 -0.747381423078E+00
  0.568210595774E+01  0.487282101625E+02  0.747381423078E+00
  0.569571044133E+01  0.488837163103E+02 -0.747382076815E+00
  0.569571044133E+01  0.488837163103E+02  0.747382076815E+00
  0.570154781864E+01  0.489504353709E+02 -0.747382339279E+00
  0.570154781864E+01  0.489504353709E+02  0.747382339279E+00
  0.570404594234E+01  0.489789883824E+02 -0.747382447998E+00
  0.570404594234E+01  0.489789883824E+02  0.747382447998E+00
  0.570511356972E+01  0.489911954146E+02 -0.747382493791E+00
  0.570511356972E+01  0.489911954146E+02  0.747382493791E+00
  0.570556989820E+01  0.489964139209E+02 -0.747382513238E+00
  0.570556989820E+01  0.489964139209E+02  0.747382513238E+00
  0.570576492259E+01  0.489986417039E+02 -0.747382521538E+00
  0.570576492259E+01  0.489986417039E+02  0.747382521538E+00
  0.570584836825E+01  0.489995915639E+02 -0.747382525062E+00
  0.570584836825E+01  0.489995915639E+02  0.747382525062E+00
  0.570588391160E+01  0.489999970017E+02 -0.747381530509E+00
  0.570588391160E+01  0.489999970017E+02  0.747381530509E+00
  0.575194525570E+01  0.495264669568E+02 -0.528477609724E+00
  0.575194525570E+01  0.495264669568E+02  0.528477609724E+00
  0.577102381157E+01  0.497445397961E+02 -0.643252593582E-15
  0.596964655520E+01  0.253556416841E+02 -0.109073787151E+01
  0.596964655520E+01  0.253556416841E+02  0.109073787151E+01
  0.682428367730E+01  0.351242021792E+02 -0.109074964025E+01
  0.682428367730E+01  0.351242021792E+02  0.109074964025E+01
  0.742116524910E+01  0.419466090989E+02 -0.109077040940E+01
  0.742116524910E+01  0.419466090989E+02  0.109077040940E+01
  0.764637724664E+01  0.000000000000E+00 -0.116698925593E+01
  0.764637724664E+01  0.000000000000E+00  0.116698925593E+01
  0.773350231259E+01  0.995846719175E+00 -0.116698067838E+01
  0.773350231259E+01  0.995846719175E+00  0.116698067838E+01
  0.775139029879E+01  0.457211148341E+02 -0.109078692253E+01
  0.775139029879E+01  0.457211148341E+02  0.109078692253E+01
  0.791093021120E+01  0.475446698916E+02 -0.109079584117E+01
  0.791093021120E+01  0.475446698916E+02  0.109079584117E+01
  0.792425174442E+01  0.317612491987E+01 -0.116697290202E+01
  0.792425174442E+01  0.317612491987E+01  0.116697290202E+01
  0.798295661910E+01  0.483679388102E+02 -0.109079971398E+01
  0.798295661910E+01  0.483679388102E+02  0.109079971398E+01
  0.801447590303E+01  0.487282102753E+02 -0.109080126772E+01
  0.801447590303E+01  0.487282102753E+02  0.109080126772E+01
  0.802808096853E+01  0.488837164140E+02 -0.109080189732E+01
  0.802808096853E+01  0.488837164140E+02  0.109080189732E+01
  0.803391838731E+01  0.489504354710E+02 -0.109080215872E+01
  0.803391838731E+01  0.489504354710E+02  0.109080215872E+01
  0.803641605119E+01  0.489789884809E+02 -0.109080226891E+01
  0.803641605119E+01  0.489789884809E+02  0.109080226891E+01
  0.803748416254E+01  0.489911955124E+02 -0.109080231569E+01
  0.803748416254E+01  0.489911955124E+02  0.109080231569E+01
  0.803794097088E+01  0.489964140185E+02 -0.109080233563E+01
  0.803794097088E+01  0.489964140185E+02  0.109080233563E+01
  0.803813551974E+01  0.489986418019E+02 -0.109080234414E+01
  0.803813551974E+01  0.489986418019E+02  0.109080234414E+01
  0.803821848909E+01  0.489995916603E+02 -0.109080234778E+01
  0.803821848909E+01  0.489995916603E+02  0.109080234778E+01
  0.803825485783E+01  0.489999949932E+02 -0.109080103517E+01
  0.803825485783E+01  0.489999949932E+02  0.109080103517E+01
  0.810548046839E+01  0.497683756197E+02 -0.771311283555E+00
  0.810548046839E+01  0.497683756197E+02  0.771311283555E+00
  0.813332610088E+01  0.500866500925E+02 -0.190841706846E-15
  0.830956675371E+01  0.758029570722E+01 -0.116695800105E+01
  0.830956675371E+01  0.758029570722E+01  0.116695800105E+01
  0.897517174665E+01  0.151882020971E+02 -0.116693788365E+01
  0.897517174665E+01  0.151882020971E+02  0.116693788365E+01
  0.986470635534E+01  0.253556425414E+02 -0.116692543807E+01
  0.986470635534E+01  0.253556425414E+02  0.116692543807E+01
[...]
POINT_DATA                 704
SCALARS phi float 1
LOOKUP_TABLE default
 -0.103479667648E-04
 -0.866315435598E-01
 -0.276279690974E+00
 -0.284289009047E+00
 -0.365914490196E+00
 -0.370907620819E+00
 -0.452532668754E+00
 -0.560549383689E+00
 -0.642172246921E+00
 -0.659362469442E+00
 -0.943623413503E+00
 -0.102524272776E+01
 -0.132109480167E+01
 -0.132992489415E+01
 -0.149135707810E+01
 -0.141654168443E+01
 -0.157797357009E+01
 -0.160534941612E+01
 -0.168696494251E+01
 -0.160617948102E+01
 -0.176760897050E+01
 -0.198924734951E+01
 -0.215067277816E+01
 -0.220543014537E+01
 -0.248968750697E+01
 -0.257130160976E+01
 -0.265096681747E+01
 -0.281238784686E+01
 -0.305505261964E+01
 -0.333931891042E+01
 -0.342093520859E+01
 -0.353530223491E+01
 -0.369672159875E+01
 -0.364842274186E+01
 -0.361156311522E+01
 -0.384717344565E+01
 -0.369817953138E+01
 -0.393378977385E+01
 -0.393269691332E+01
 -0.401431713680E+01
 -0.397670155539E+01
 -0.388781544055E+01
 -0.412342345536E+01
 -0.413530027549E+01
 -0.420690175660E+01
 -0.423823522622E+01
 -0.425176014499E+01
 -0.425756271563E+01
 -0.426004614856E+01
 -0.426110797193E+01
 -0.426156161709E+01
 -0.426175549462E+01
 -0.426183844975E+01
 -0.426187407801E+01
 -0.426098042286E+01
 -0.434260388704E+01
 -0.427088014672E+01
 -0.450648421084E+01
 -0.441958077069E+01
 -0.450120609209E+01
 -0.438493743812E+01
 -0.454635934400E+01
 -0.449118309923E+01
 -0.457280928745E+01
 -0.452251734586E+01
 -0.460414389098E+01
 -0.453604192707E+01
 -0.461766860738E+01
 -0.454184503996E+01
 -0.462347177155E+01
 -0.454432850475E+01
 -0.462595525675E+01
 -0.454539034229E+01
 -0.462701710270E+01
 -0.454584399361E+01
 -0.462747075757E+01
 -0.454603739982E+01
 -0.462766416528E+01
 -0.454612035592E+01
 -0.462774712203E+01
 -0.454615630287E+01
 -0.462778297049E+01
 -0.458126387572E+01
 -0.463898258773E+01
 -0.461971321022E+01
 -0.493259642318E+01
 -0.516819608723E+01
 -0.497832227259E+01
 -0.513974870017E+01
 -0.530661128904E+01
 -0.546804138509E+01
 -0.546521549490E+01
 -0.562664763603E+01
 -0.553681946003E+01
 -0.569825252004E+01
 -0.556815440312E+01
 -0.572958782744E+01
 -0.558167924300E+01
 -0.574311280852E+01
 -0.558748244893E+01
 -0.574891607115E+01
 -0.558996594927E+01
 -0.575139959497E+01
 -0.559102732711E+01
 -0.575246098270E+01
 -0.559148098441E+01
 -0.575291464420E+01
 -0.559167486720E+01
 -0.575310852878E+01
 -0.559175782441E+01
 -0.575319148675E+01
 -0.559179326727E+01
 -0.575322671479E+01
 -0.566122667931E+01
 -0.577537716203E+01
 -0.573726888538E+01
 -0.581693089006E+01
 -0.605252886479E+01
 -0.666656793783E+01
 -0.690216845460E+01
 -0.725995608475E+01
 -0.749556108763E+01
 -0.747561922289E+01
 -0.772768739840E+01
 -0.756223561756E+01
 -0.781430194033E+01
 -0.758824785282E+01
 -0.782385642252E+01
 -0.774685364733E+01
 -0.798246414344E+01
 -0.775187018893E+01
 -0.800393483202E+01
 -0.781845835191E+01
 -0.805406968454E+01
 -0.784979311061E+01
 -0.808540477885E+01
 -0.786331853160E+01
 -0.809893033583E+01
 -0.786912177887E+01
 -0.810473363956E+01
 -0.787160482192E+01
 -0.810721670641E+01
 -0.787266668080E+01
 -0.810827857540E+01
 -0.787312081511E+01
 -0.810873271401E+01
 -0.787331422512E+01
 -0.810892612586E+01
 -0.787339670879E+01
 -0.810900861031E+01
 -0.787343300657E+01
 -0.810904462457E+01
 -0.797477009943E+01
 -0.814137234278E+01
 -0.808575398349E+01
 -0.813493308614E+01
 -0.838699451064E+01
 -0.879664710416E+01
 -0.904870418333E+01
 -0.968098013699E+01
 -0.993303452793E+01
 -0.105306197702E+02
 -0.107826757816E+02
 -0.111240097357E+02
 -0.113760702039E+02
 -0.114523036862E+02
 -0.117043680044E+02
 -0.116109099554E+02
 -0.118629762832E+02
 -0.116825146194E+02
 -0.119345817625E+02
 -0.117138500301E+02
 -0.119659174893E+02
 -0.117273755238E+02
 -0.119794431095E+02
 -0.117331788014E+02
 -0.119852464393E+02
 -0.117356618572E+02
 -0.119877295171E+02
 -0.117367237215E+02
 -0.119887913907E+02
 -0.117371778581E+02
 -0.119892455313E+02
 -0.117373712691E+02
 -0.119894389441E+02
 -0.117374537533E+02
 -0.119895214289E+02
 -0.117374898903E+02
 -0.119895572711E+02
 -0.118459054265E+02
 -0.120241429851E+02
 -0.119646407391E+02
 -0.120978940780E+02
 -0.122756708108E+02
 -0.121845091462E+02
 -0.123622856346E+02
 -0.123741427860E+02
 -0.125519173131E+02
 -0.127572052721E+02
 -0.129349761383E+02
 -0.134189180327E+02
 -0.135966846751E+02
 -0.143032502034E+02
 -0.144810152046E+02
 -0.151528902273E+02
 -0.153306577051E+02
 -0.157462814855E+02
 -0.159240532607E+02
 -0.158418469499E+02
 -0.159351417893E+02
 -0.159284621649E+02
 -0.160217569598E+02
 -0.160745756414E+02
 -0.162523507046E+02
 -0.161180966036E+02
 -0.162113892640E+02
 -0.162331825169E+02
 -0.164109592475E+02
 -0.163047883738E+02
 -0.164825657935E+02
 -0.163361248269E+02
 -0.165139025216E+02
 -0.163496484619E+02
 -0.165274262691E+02
 -0.163554527030E+02
 -0.165332305574E+02
 -0.163579367134E+02
 -0.165357145877E+02
 -0.163589985804E+02
 -0.165367764632E+02
 -0.163594517702E+02
 -0.165372296566E+02
 -0.163596451816E+02
 -0.165374230696E+02
 -0.163597286141E+02
 -0.165375065027E+02
 -0.163597627499E+02
 -0.165375405168E+02
 -0.164362269228E+02
 -0.165619345214E+02
 -0.165199691704E+02
 -0.165011578624E+02
 -0.165944466185E+02
 -0.171628702996E+02
 -0.172561546707E+02
 -0.180424557834E+02
 -0.180847324326E+02
 -0.180472032926E+02
 -0.181404859762E+02
 -0.181290719640E+02
 -0.181713482694E+02
 -0.183187044977E+02
 -0.183609783718E+02
 -0.187017657387E+02
 -0.187440354574E+02
 -0.188968416103E+02
 -0.189901268227E+02
 -0.191012266231E+02
 -0.191191395667E+02
 -0.191878428057E+02
 -0.192057550342E+02
 -0.193634781553E+02
 -0.194057433705E+02
 -0.193774753474E+02
 -0.193953849523E+02
 -0.194902341458E+02
 -0.195835238051E+02
 -0.195615378448E+02
 -0.195688951457E+02
 -0.196481540294E+02
 -0.196555104404E+02
 -0.197527969478E+02
 -0.197557749457E+02
 -0.197605366007E+02
 -0.197784419458E+02
 -0.198307616702E+02
 -0.198319555691E+02
 -0.198394131330E+02
 -0.198423902008E+02
 -0.198377884711E+02
 -0.198451422014E+02
 -0.198622958015E+02
 -0.198627682711E+02
 -0.198185295006E+02
 -0.199118226573E+02
 -0.198750091904E+02
 -0.198751908192E+02
 -0.198801305804E+02
 -0.198801951008E+02
 -0.198821906573E+02
 -0.198822080468E+02
 -0.198830110778E+02
 -0.199173778557E+02
 -0.199185708184E+02
 -0.199489119870E+02
 -0.199493835201E+02
 -0.199616253760E+02
 -0.199618060682E+02
 -0.199667448699E+02
 -0.199668084540E+02
 -0.199688068428E+02
 -0.199688232960E+02
 -0.199696217151E+02
 -0.199771365026E+02
 -0.200704315089E+02
 -0.200290456800E+02
 -0.200320200558E+02
 -0.200487424117E+02
 -0.201420381887E+02
 -0.201070122996E+02
 -0.201082025683E+02
 -0.200800769896E+02
 -0.201733730620E+02
 -0.201385464309E+02
 -0.201390152697E+02
 -0.200936025294E+02
 -0.201868987184E+02
 -0.200994048779E+02
 -0.201927011147E+02
 -0.201018888899E+02
 -0.201951851468E+02
 -0.201029507576E+02
 -0.201962470229E+02
 -0.201034039476E+02
 -0.201967002165E+02
 -0.201035992554E+02
 -0.201968955258E+02
 -0.201036807916E+02
 -0.201969770628E+02
 -0.201037168192E+02
 -0.201970130534E+02
 -0.201512598200E+02
 -0.201514378180E+02
 -0.201563793140E+02
 -0.201564402038E+02
 -0.201584393899E+02
 -0.201584531488E+02
 -0.201592399163E+02
 -0.201438448660E+02
 -0.202098151108E+02
 -0.201877921674E+02
 -0.202208497298E+02
 -0.202281991752E+02
 -0.202478111401E+02
 -0.202900746510E+02
 -0.204121069411E+02
 -0.204150770272E+02
 -0.204222490299E+02
 -0.204401498305E+02
 -0.204900735616E+02
 -0.204912595398E+02
 -0.205216076932E+02
 -0.205220722414E+02
 -0.205343210824E+02
 -0.205344947897E+02
 -0.205394405760E+02
 -0.205394971751E+02
 -0.205415006553E+02
 -0.205415101235E+02
 -0.205422814593E+02
 -0.208825621648E+02
 -0.208899070564E+02
 -0.210738193785E+02
 -0.210767849090E+02
 -0.210974513660E+02
 -0.211397174787E+02
 -0.211517860000E+02
 -0.211529674223E+02
 -0.211833201319E+02
 -0.211837801242E+02
 -0.211960335212E+02
 -0.211962026725E+02
 -0.212011530146E+02
 -0.212012050578E+02
 -0.212032130979E+02
 -0.212032180100E+02
 -0.212039740171E+02
 -0.213065820194E+02
 -0.213244811126E+02
 -0.216908439221E+02
 -0.217331146592E+02
 -0.217668951564E+02
 -0.217742383401E+02
 -0.219581523710E+02
 -0.219611161936E+02
 -0.220361189928E+02
 -0.220372987072E+02
 -0.220191373965E+02
 -0.220614118689E+02
 -0.220676531249E+02
 -0.220681114091E+02
 -0.220803665145E+02
 -0.220805339579E+02
 -0.220854860078E+02
 -0.220855363429E+02
 -0.220875460857E+02
 -0.220875492900E+02
 -0.220883026136E+02
 -0.221562222379E+02
 -0.221741239653E+02
 -0.221777444064E+02
 -0.222200209374E+02
 -0.222493503186E+02
 -0.222916277554E+02
 -0.222806867938E+02
 -0.223229645745E+02
 -0.222942104380E+02
 -0.223364883461E+02
 -0.223000146830E+02
 -0.223422926409E+02
 -0.223024986950E+02
 -0.223447766733E+02
 -0.223035605628E+02
 -0.223458385496E+02
 -0.223040137527E+02
 -0.223462917432E+02
 -0.223042071644E+02
 -0.223464851564E+02
 -0.223042905968E+02
 -0.223465685895E+02
 -0.223043247284E+02
 -0.223466027142E+02
 -0.223225095976E+02
 -0.223524045746E+02
 -0.223424253348E+02
 -0.226165334754E+02
 -0.226238793014E+02
 -0.227496147807E+02
 -0.227675212186E+02
 -0.228077925847E+02
 -0.228107590512E+02
 -0.228857573097E+02
 -0.228869396683E+02
 -0.229172914420E+02
 -0.229177523705E+02
 -0.229300067275E+02
 -0.229301768151E+02
 -0.229351262206E+02
 -0.229351792001E+02
 -0.229371862969E+02
 -0.229371921455E+02
 -0.229379596903E+02
 -0.230779082437E+02
 -0.230958185702E+02
 -0.232099260122E+02
 -0.232172765713E+02
 -0.232365171430E+02
 -0.232544296899E+02
 -0.233081211556E+02
 -0.233260347275E+02
 -0.233394576293E+02
 -0.233573716157E+02
 -0.233529831691E+02
 -0.233708973065E+02
 -0.233587855178E+02
 -0.233766997101E+02
 -0.233612695298E+02
 -0.233791837434E+02
 -0.233623313975E+02
 -0.233802456199E+02
 -0.233627845874E+02
 -0.233806988135E+02
 -0.233629779991E+02
 -0.233808922267E+02
 -0.233630614315E+02
 -0.233809756598E+02
 -0.233630955630E+02
 -0.233810097909E+02
 -0.233708008299E+02
 -0.233834680695E+02
 -0.233792412360E+02
 -0.234011851190E+02
 -0.234041563229E+02
 -0.234791498430E+02
 -0.234803369398E+02
 -0.235106839747E+02
 -0.235111496416E+02
 -0.235233973637E+02
 -0.235235721898E+02
 -0.235285168586E+02
 -0.235285745764E+02
 -0.235305788306E+02
 -0.235305894176E+02
 -0.235313743067E+02
 -0.235382213662E+02
 -0.235455758642E+02
 -0.236968283657E+02
 -0.237041851687E+02
 -0.237294785746E+02
 -0.237324537280E+02
 -0.237684342725E+02
 -0.237757921823E+02
 -0.237997688491E+02
 -0.238071272295E+02
 -0.238074451939E+02
 -0.238086362420E+02
 -0.238132943884E+02
 -0.238206529525E+02
 -0.238190986330E+02
 -0.238264572629E+02
 -0.238215807488E+02
 -0.238289394024E+02
 -0.238226426164E+02
 -0.238300012792E+02
 -0.238230977026E+02
 -0.238304563691E+02
 -0.238232911142E+02
 -0.238306497823E+02
 -0.238233726505E+02
 -0.238307313192E+02
 -0.238234086782E+02
 -0.238307673474E+02
 -0.238265740354E+02
 -0.238317773868E+02
 -0.238300404270E+02
 -0.238389793252E+02
 -0.238394489437E+02
 -0.238516927143E+02
 -0.238518714920E+02
 -0.238568122082E+02
 -0.238568738778E+02
 -0.238588722859E+02
 -0.238588868245E+02
 -0.238596859202E+02
 -0.238880874689E+02
 -0.238910649502E+02
 -0.239596914785E+02
 -0.239626701051E+02
 -0.239660521915E+02
 -0.239672455717E+02
 -0.239910279507E+02
 -0.239940070846E+02
 -0.239975863226E+02
 -0.239980582740E+02
 -0.240045534897E+02
 -0.240075328317E+02
 -0.240102997115E+02
 -0.240104808222E+02
 -0.240103558379E+02
 -0.240133352602E+02
 -0.240128398499E+02
 -0.240158193007E+02
 -0.240139017175E+02
 -0.240168811786E+02
 -0.240154192052E+02
 -0.240154832077E+02
 -0.240143549075E+02
 -0.240173343725E+02
 -0.240145483191E+02
 -0.240175277857E+02
 -0.240146317515E+02
 -0.240176112188E+02
 -0.240146658830E+02
 -0.240176453508E+02
 -0.240159479168E+02
 -0.240180547130E+02
 -0.240173521324E+02
 -0.240174792831E+02
 -0.240174961547E+02
 -0.240183019667E+02
 -0.240376562009E+02
 -0.240388507359E+02
 -0.240691922280E+02
 -0.240696653358E+02
 -0.240689926727E+02
 -0.240701877311E+02
 -0.240819056170E+02
 -0.240820878843E+02
 -0.240825182115E+02
 -0.240837134938E+02
 -0.240870251107E+02
 -0.240870902699E+02
 -0.240883205596E+02
 -0.240895159325E+02
 -0.240890851877E+02
 -0.240891032161E+02
 -0.240899103425E+02
 -0.240908045714E+02
 -0.240919999791E+02
 -0.240918664391E+02
 -0.240930618591E+02
 -0.240923196290E+02
 -0.240935150535E+02
 -0.240925130407E+02
 -0.240937084668E+02
 -0.240925964731E+02
 -0.240937918999E+02
 -0.240926325008E+02
 -0.240938279281E+02
 -0.240931450889E+02
 -0.240939903814E+02
 -0.240937099586E+02
 -0.241005268037E+02
 -0.241010004386E+02
 -0.241132401925E+02
 -0.241134229876E+02
 -0.241140523424E+02
 -0.241145262076E+02
 -0.241183596863E+02
 -0.241184253734E+02
 -0.241198546904E+02
 -0.241203286528E+02
 -0.241204216594E+02
 -0.241204402156E+02
 -0.241212487832E+02
 -0.241223387022E+02
 -0.241228127037E+02
 -0.241234005698E+02
 -0.241238745863E+02
 -0.241238537598E+02
 -0.241243277817E+02
 -0.241240471714E+02
 -0.241245211952E+02
 -0.241241306039E+02
 -0.241246046284E+02
 -0.241241666315E+02
 -0.241246406565E+02
 -0.241243706803E+02
 -0.241247058658E+02
 -0.241245932664E+02
 -0.241267657312E+02
 -0.241269487581E+02
 -0.241318852249E+02
 -0.241319511441E+02
 -0.241325699755E+02
 -0.241327531021E+02
 -0.241339453020E+02
 -0.241339640903E+02
 -0.241347751829E+02
 -0.241350520910E+02
 -0.241352352594E+02
 -0.241361139587E+02
 -0.241362971439E+02
 -0.241365690448E+02
 -0.241367522366E+02
 -0.241367624564E+02
 -0.241369456504E+02
 -0.241368439926E+02
 -0.241370271875E+02
 -0.241368800203E+02
 -0.241370632156E+02
 -0.241369580457E+02
 -0.241370875841E+02
 -0.241370455707E+02
 -0.241376894692E+02
 -0.241377554885E+02
 -0.241397495461E+02
 -0.241397684347E+02
 -0.241401715847E+02
 -0.241402376469E+02
 -0.241405779024E+02
 -0.241412334523E+02
 -0.241412995325E+02
 -0.241416885385E+02
 -0.241417546259E+02
 -0.241418819500E+02
 -0.241419480402E+02
 -0.241419634863E+02
 -0.241420295775E+02
 -0.241419995139E+02
 -0.241420656056E+02
 -0.241420281547E+02
 -0.241420748886E+02
 -0.241420591070E+02
 -0.241422335578E+02
 -0.241422524895E+02
 -0.241430620735E+02
 -0.241432954255E+02
 -0.241433143755E+02
 -0.241437486154E+02
 -0.241437675731E+02
 -0.241439420269E+02
 -0.241439609878E+02
 -0.241440254594E+02
 -0.241440444215E+02
 -0.241440595909E+02
 -0.241440785535E+02
 -0.241440680564E+02
 -0.241440814651E+02
 -0.241440766573E+02
 -0.241441240092E+02
 -0.241445772280E+02
 -0.241447706514E+02
 -0.241448540883E+02
 -0.241448901228E+02
 -0.229379603244E+02
 -0.220883034415E+02
 -0.199696218732E+02
 -0.198830111718E+02
 -0.241447706516E+02
 -0.241445772282E+02
 -0.212039748164E+02
 -0.205422820304E+02
 -0.235313746873E+02
 -0.241448540884E+02
 -0.240183020568E+02
 -0.238596861141E+02
 -0.201592402392E+02
 -0.240899103825E+02
 -0.241212488005E+02
 -0.241347751904E+02
 -0.241405779057E+02
 -0.241430620749E+02
 -0.241441240098E+02
SCALARS phi_mu float 1
LOOKUP_TABLE default
 -0.103479667648E-04
 -0.866315435598E-01
 -0.276279690974E+00
 -0.284289009047E+00
 -0.365914490196E+00
 -0.370907620819E+00
 -0.452532668754E+00
 -0.560549383689E+00
 -0.642172246921E+00
 -0.659362469442E+00
 -0.943623413503E+00
 -0.102524272776E+01
 -0.132109480167E+01
 -0.132992489415E+01
 -0.149135707810E+01
 -0.141654168443E+01
 -0.157797357009E+01
 -0.160534941612E+01
 -0.168696494251E+01
 -0.160617948102E+01
 -0.176760897050E+01
 -0.198924734951E+01
 -0.215067277816E+01
 -0.220543014537E+01
 -0.248968750697E+01
 -0.257130160976E+01
 -0.265096681747E+01
 -0.281238784686E+01
 -0.305505261964E+01
 -0.333931891042E+01
 -0.342093520859E+01
 -0.353530223491E+01
 -0.369672159875E+01
 -0.364842274186E+01
 -0.361156311522E+01
 -0.384717344565E+01
 -0.369817953138E+01
 -0.393378977385E+01
 -0.393269691332E+01
 -0.401431713680E+01
 -0.397670155539E+01
 -0.388781544055E+01
 -0.412342345536E+01
 -0.413530027549E+01
 -0.420690175660E+01
 -0.423823522622E+01
 -0.425176014499E+01
 -0.425756271563E+01
 -0.426004614856E+01
 -0.426110797193E+01
 -0.426156161709E+01
 -0.426175549462E+01
 -0.426183844975E+01
 -0.426187407801E+01
 -0.426098042286E+01
 -0.434260388704E+01
 -0.427088014672E+01
 -0.450648421084E+01
 -0.441958077069E+01
 -0.450120609209E+01
 -0.438493743812E+01
 -0.454635934400E+01
 -0.449118309923E+01
 -0.457280928745E+01
 -0.452251734586E+01
 -0.460414389098E+01
 -0.453604192707E+01
 -0.461766860738E+01
 -0.454184503996E+01
 -0.462347177155E+01
 -0.454432850475E+01
 -0.462595525675E+01
 -0.454539034229E+01
 -0.462701710270E+01
 -0.454584399361E+01
 -0.462747075757E+01
 -0.454603739982E+01
 -0.462766416528E+01
 -0.454612035592E+01
 -0.462774712203E+01
 -0.454615630287E+01
 -0.462778297049E+01
 -0.458126387572E+01
 -0.463898258773E+01
 -0.461971321022E+01
 -0.493259642318E+01
 -0.516819608723E+01
 -0.497832227259E+01
 -0.513974870017E+01
 -0.530661128904E+01
 -0.546804138509E+01
 -0.546521549490E+01
 -0.562664763603E+01
 -0.553681946003E+01
 -0.569825252004E+01
 -0.556815440312E+01
 -0.572958782744E+01
 -0.558167924300E+01
 -0.574311280852E+01
 -0.558748244893E+01
 -0.574891607115E+01
 -0.558996594927E+01
 -0.575139959497E+01
 -0.559102732711E+01
 -0.575246098270E+01
 -0.559148098441E+01
 -0.575291464420E+01
 -0.559167486720E+01
 -0.575310852878E+01
 -0.559175782441E+01
 -0.575319148675E+01
 -0.559179326727E+01
 -0.575322671479E+01
 -0.566122667931E+01
 -0.577537716203E+01
 -0.573726888538E+01
 -0.581693089006E+01
 -0.605252886479E+01
 -0.666656793783E+01
 -0.690216845460E+01
 -0.725995608475E+01
 -0.749556108763E+01
 -0.747561922289E+01
 -0.772768739840E+01
 -0.756223561756E+01
 -0.781430194033E+01
 -0.758824785282E+01
 -0.782385642252E+01
 -0.774685364733E+01
 -0.798246414344E+01
 -0.775187018893E+01
 -0.800393483202E+01
 -0.781845835191E+01
 -0.805406968454E+01
 -0.784979311061E+01
 -0.808540477885E+01
 -0.786331853160E+01
 -0.809893033583E+01
 -0.786912177887E+01
 -0.810473363956E+01
 -0.787160482192E+01
 -0.810721670641E+01
 -0.787266668080E+01
 -0.810827857540E+01
 -0.787312081511E+01
 -0.810873271401E+01
 -0.787331422512E+01
 -0.810892612586E+01
 -0.787339670879E+01
 -0.810900861031E+01
 -0.787343300657E+01
 -0.810904462457E+01
 -0.797477009943E+01
 -0.814137234278E+01
 -0.808575398349E+01
 -0.813493308614E+01
 -0.838699451064E+01
 -0.879664710416E+01
 -0.904870418333E+01
 -0.968098013699E+01
 -0.993303452793E+01
 -0.105306197702E+02
 -0.107826757816E+02
 -0.111240097357E+02
 -0.113760702039E+02
 -0.114523036862E+02
 -0.117043680044E+02
 -0.116109099554E+02
 -0.118629762832E+02
 -0.116825146194E+02
 -0.119345817625E+02
 -0.117138500301E+02
 -0.119659174893E+02
 -0.117273755238E+02
 -0.119794431095E+02
 -0.117331788014E+02
 -0.119852464393E+02
 -0.117356618572E+02
 -0.119877295171E+02
 -0.117367237215E+02
 -0.119887913907E+02
 -0.117371778581E+02
 -0.119892455313E+02
 -0.117373712691E+02
 -0.119894389441E+02
 -0.117374537533E+02
 -0.119895214289E+02
 -0.117374898903E+02
 -0.119895572711E+02
 -0.118459054265E+02
 -0.120241429851E+02
 -0.119646407391E+02
 -0.120978940780E+02
 -0.122756708108E+02
 -0.121845091462E+02
 -0.123622856346E+02
 -0.123741427860E+02
 -0.125519173131E+02
 -0.127572052721E+02
 -0.129349761383E+02
 -0.134189180327E+02
 -0.135966846751E+02
 -0.143032502034E+02
 -0.144810152046E+02
 -0.151528902273E+02
 -0.153306577051E+02
 -0.157462814855E+02
 -0.159240532607E+02
 -0.158418469499E+02
 -0.159351417893E+02
 -0.159284621649E+02
 -0.160217569598E+02
 -0.160745756414E+02
 -0.162523507046E+02
 -0.161180966036E+02
 -0.162113892640E+02
 -0.162331825169E+02
 -0.164109592475E+02
 -0.163047883738E+02
 -0.164825657935E+02
 -0.163361248269E+02
 -0.165139025216E+02
 -0.163496484619E+02
 -0.165274262691E+02
 -0.163554527030E+02
 -0.165332305574E+02
 -0.163579367134E+02
 -0.165357145877E+02
 -0.163589985804E+02
 -0.165367764632E+02
 -0.163594517702E+02
 -0.165372296566E+02
 -0.163596451816E+02
 -0.165374230696E+02
 -0.163597286141E+02
 -0.165375065027E+02
 -0.163597627499E+02
 -0.165375405168E+02
 -0.164362269228E+02
 -0.165619345214E+02
 -0.165199691704E+02
 -0.165011578624E+02