# vtk DataFile Version 3.0
MachLine results file. Generated by MachLine, USU AeroLab (c) 2022.
ASCII
DATASET POLYDATA
POINTS                2966 float
  0.000000000000E+00  0.000000000000E+00  0.000000000000E+00
  0.895597194070E-03  0.000000000000E+00 -0.199021598680E-03
  0.895597194070E-03  0.000000000000E+00  0.199021598680E-03
  0.201978017340E-02  0.000000000000E+00 -0.448840038540E-03
  0.201978017340E-02  0.000000000000E+00  0.448840038540E-03
  0.342194336150E-02  0.000000000000E+00 -0.760431858110E-03
  0.342194336150E-02  0.000000000000E+00  0.760431858110E-03
  0.515701313740E-02  0.000000000000E+00 -0.114600291940E-02
  0.515701313740E-02  0.000000000000E+00  0.114600291940E-02
  0.728308852790E-02  0.000000000000E+00 -0.161846411730E-02
  0.728308852790E-02  0.000000000000E+00  0.161846411730E-02
  0.827775178670E-02  0.832120786070E-02  0.000000000000E+00
  0.827775178670E-02 -0.832120786070E-02  0.000000000000E+00
  0.914115697030E-02  0.832120786070E-02 -0.191867818590E-03
  0.914115697030E-02 -0.832120786070E-02 -0.191867818590E-03
  0.914115697030E-02  0.832120786070E-02  0.191867818590E-03
  0.914115697030E-02 -0.832120786070E-02  0.191867818590E-03
  0.985721679120E-02  0.000000000000E+00 -0.219049262030E-02
  0.985721679120E-02  0.000000000000E+00  0.219049262030E-02
  0.102249314820E-01  0.832120786070E-02 -0.432706598980E-03
  0.102249314820E-01 -0.832120786070E-02 -0.432706598980E-03
  0.102249314820E-01  0.832120786070E-02  0.432706598980E-03
  0.102249314820E-01 -0.832120786070E-02  0.432706598980E-03
  0.115766942760E-01  0.832120786070E-02 -0.733098330870E-03
  0.115766942760E-01 -0.832120786070E-02 -0.733098330870E-03
  0.115766942760E-01  0.832120786070E-02  0.733098330870E-03
  0.115766942760E-01 -0.832120786070E-02  0.733098330870E-03
  0.129289354540E-01  0.000000000000E+00 -0.287309676740E-02
  0.129289354540E-01  0.000000000000E+00  0.287309676740E-02
  0.132493974150E-01  0.832120786070E-02 -0.110481013970E-02
  0.132493974150E-01 -0.832120786070E-02 -0.110481013970E-02
  0.132493974150E-01  0.832120786070E-02  0.110481013970E-02
  0.132493974150E-01 -0.832120786070E-02  0.110481013970E-02
  0.152990515740E-01  0.832120786070E-02 -0.156028884160E-02
  0.152990515740E-01 -0.832120786070E-02 -0.156028884160E-02
  0.152990515740E-01  0.832120786070E-02  0.156028884160E-02
  0.152990515740E-01 -0.832120786070E-02  0.156028884160E-02
  0.165316099180E-01  0.000000000000E+00 -0.367369109300E-02
  0.165316099180E-01  0.000000000000E+00  0.367369109300E-02
  0.172182429130E-01  0.173086342730E-01  0.000000000000E+00
  0.172182429130E-01 -0.173086342730E-01  0.000000000000E+00
  0.177806534600E-01  0.832120786070E-02 -0.211175592730E-02
  0.177806534600E-01 -0.832120786070E-02 -0.211175592730E-02
  0.177806534600E-01  0.832120786070E-02  0.211175592730E-02
  0.177806534600E-01 -0.832120786070E-02  0.211175592730E-02
  0.180468787060E-01  0.173086342730E-01 -0.184141287390E-03
  0.180468787060E-01 -0.173086342730E-01 -0.184141287390E-03
  0.180468787060E-01  0.173086342730E-01  0.184141287390E-03
  0.180468787060E-01 -0.173086342730E-01  0.184141287390E-03
  0.190870095390E-01  0.173086342730E-01 -0.415281472340E-03
  0.190870095390E-01 -0.173086342730E-01 -0.415281472340E-03
  0.190870095390E-01  0.173086342730E-01  0.415281472340E-03
  0.190870095390E-01 -0.173086342730E-01  0.415281472340E-03
  0.203843367450E-01  0.173086342730E-01 -0.703576407050E-03
  0.203843367450E-01 -0.173086342730E-01 -0.703576407050E-03
  0.203843367450E-01  0.173086342730E-01  0.703576407050E-03
  0.203843367450E-01 -0.173086342730E-01  0.703576407050E-03
  0.206723337860E-01  0.000000000000E+00 -0.459385195240E-02
  0.207419599860E-01  0.832120786070E-02 -0.276982404430E-02
  0.207419599860E-01 -0.832120786070E-02 -0.276982404430E-02
  0.206723337860E-01  0.000000000000E+00  0.459385195240E-02
  0.207419599860E-01  0.832120786070E-02  0.276982404430E-02
  0.207419599860E-01 -0.832120786070E-02  0.276982404430E-02
  0.219896800060E-01  0.173086342730E-01 -0.106031935400E-02
  0.219896800060E-01 -0.173086342730E-01 -0.106031935400E-02
  0.219896800060E-01  0.173086342730E-01  0.106031935400E-02
  0.219896800060E-01 -0.173086342730E-01  0.106031935400E-02
  0.239567944400E-01  0.173086342730E-01 -0.149745589490E-02
  0.239567944400E-01 -0.173086342730E-01 -0.149745589490E-02
  0.239567944400E-01  0.173086342730E-01  0.149745589490E-02
  0.239567944400E-01 -0.173086342730E-01  0.149745589490E-02
  0.242151372450E-01  0.832120786070E-02 -0.354164121300E-02
  0.242151372450E-01 -0.832120786070E-02 -0.354164121300E-02
  0.242151372450E-01  0.832120786070E-02  0.354164121300E-02
  0.242151372450E-01 -0.832120786070E-02  0.354164121300E-02
  0.253221652780E-01  0.000000000000E+00 -0.562714783960E-02
  0.253221652780E-01  0.000000000000E+00  0.562714783960E-02
  0.263384620350E-01  0.173086342730E-01 -0.202671536050E-02
  0.263384620350E-01 -0.173086342730E-01 -0.202671536050E-02
  0.263384620350E-01  0.173086342730E-01  0.202671536050E-02
  0.263384620350E-01 -0.173086342730E-01  0.202671536050E-02
  0.267917395800E-01  0.269323893420E-01  0.000000000000E+00
  0.267917395800E-01 -0.269323893420E-01  0.000000000000E+00
  0.275831442370E-01  0.269323893420E-01 -0.175867701560E-03
  0.275831442370E-01 -0.269323893420E-01 -0.175867701560E-03
  0.275831442370E-01  0.269323893420E-01  0.175867701560E-03
  0.275831442370E-01 -0.269323893420E-01  0.175867701560E-03
  0.282070238600E-01  0.832120786070E-02 -0.442872712740E-02
  0.282070238600E-01 -0.832120786070E-02 -0.442872712740E-02
  0.282070238600E-01  0.832120786070E-02  0.442872712740E-02
  0.282070238600E-01 -0.832120786070E-02  0.442872712740E-02
  0.285765413250E-01  0.269323893420E-01 -0.396622610160E-03
  0.285765413250E-01 -0.269323893420E-01 -0.396622610160E-03
  0.285765413250E-01  0.269323893420E-01  0.396622610160E-03
  0.285765413250E-01 -0.269323893420E-01  0.396622610160E-03
  0.291805165300E-01  0.173086342730E-01 -0.265828302590E-02
  0.291805165300E-01 -0.173086342730E-01 -0.265828302590E-02
  0.291805165300E-01  0.173086342730E-01  0.265828302590E-02
  0.291805165300E-01 -0.173086342730E-01  0.265828302590E-02
  0.298155787900E-01  0.269323893420E-01 -0.671964269040E-03
  0.298155787900E-01 -0.269323893420E-01 -0.671964269040E-03
  0.298155787900E-01  0.269323893420E-01  0.671964269040E-03
  0.298155787900E-01 -0.269323893420E-01  0.671964269040E-03
  0.304094174850E-01  0.000000000000E+00 -0.675764833000E-02
  0.304094174850E-01  0.000000000000E+00  0.675764833000E-02
  0.313487929520E-01  0.269323893420E-01 -0.101267852710E-02
  0.313487929520E-01 -0.269323893420E-01 -0.101267852710E-02
  0.313487929520E-01  0.269323893420E-01  0.101267852710E-02
  0.313487929520E-01 -0.269323893420E-01  0.101267852710E-02
  0.325138286850E-01  0.173086342730E-01 -0.339901906030E-02
  0.325138286850E-01 -0.173086342730E-01 -0.339901906030E-02
  0.326897183580E-01  0.832120786070E-02 -0.542488146020E-02
  0.326897183580E-01 -0.832120786070E-02 -0.542488146020E-02
  0.325138286850E-01  0.173086342730E-01  0.339901906030E-02
  0.325138286850E-01 -0.173086342730E-01  0.339901906030E-02
  0.326897183580E-01  0.832120786070E-02  0.542488146020E-02
  0.326897183580E-01 -0.832120786070E-02  0.542488146020E-02
  0.332275236760E-01  0.269323893420E-01 -0.143017424370E-02
  0.332275236760E-01 -0.269323893420E-01 -0.143017424370E-02
  0.332275236760E-01  0.269323893420E-01  0.143017424370E-02
  0.332275236760E-01 -0.269323893420E-01  0.143017424370E-02
  0.355021814230E-01  0.269323893420E-01 -0.193565374290E-02
  0.355021814230E-01 -0.269323893420E-01 -0.193565374290E-02
  0.358190159330E-01  0.000000000000E+00 -0.795978131850E-02
  0.355021814230E-01  0.269323893420E-01  0.193565374290E-02
  0.355021814230E-01 -0.269323893420E-01  0.193565374290E-02
  0.358190159330E-01  0.000000000000E+00  0.795978131850E-02
  0.363449617310E-01  0.173086342730E-01 -0.425038195950E-02
  0.363449617310E-01 -0.173086342730E-01 -0.425038195950E-02
  0.363449617310E-01  0.173086342730E-01  0.425038195950E-02
  0.363449617310E-01 -0.173086342730E-01  0.425038195950E-02
  0.369489973750E-01  0.371429701360E-01  0.000000000000E+00
  0.369489973750E-01 -0.371429701360E-01  0.000000000000E+00
  0.375941105940E-01  0.832120786070E-02 -0.651474640160E-02
  0.375941105940E-01 -0.832120786070E-02 -0.651474640160E-02
  0.377009006610E-01  0.371429701360E-01 -0.167089619000E-03
  0.377009006610E-01 -0.371429701360E-01 -0.167089619000E-03
  0.377009006610E-01  0.371429701360E-01  0.167089619000E-03
  0.377009006610E-01 -0.371429701360E-01  0.167089619000E-03
  0.375941105940E-01  0.832120786070E-02  0.651474640160E-02
  0.375941105940E-01 -0.832120786070E-02  0.651474640160E-02
  0.382165405910E-01  0.269323893420E-01 -0.253884466910E-02
  0.382165405910E-01 -0.269323893420E-01 -0.253884466910E-02
  0.382165405910E-01  0.269323893420E-01  0.253884466910E-02
  0.382165405910E-01 -0.269323893420E-01  0.253884466910E-02
  0.386447143320E-01  0.371429701360E-01 -0.376825990390E-03
  0.386447143320E-01 -0.371429701360E-01 -0.376825990390E-03
  0.386447143320E-01  0.371429701360E-01  0.376825990390E-03
  0.386447143320E-01 -0.371429701360E-01  0.376825990390E-03
  0.398219077340E-01  0.371429701360E-01 -0.638424524220E-03
  0.398219077340E-01 -0.371429701360E-01 -0.638424524220E-03
  0.398219077340E-01  0.371429701360E-01  0.638424524220E-03
  0.398219077340E-01 -0.371429701360E-01  0.638424524220E-03
  0.406471377910E-01  0.173086342730E-01 -0.520642108390E-02
  0.406471377910E-01 -0.173086342730E-01 -0.520642108390E-02
  0.406471377910E-01  0.173086342730E-01  0.520642108390E-02
  0.406471377910E-01 -0.173086342730E-01  0.520642108390E-02
  0.414000000000E-01  0.000000000000E+00 -0.920000000000E-02
  0.412785945950E-01  0.371429701360E-01 -0.962132715490E-03
  0.412785945950E-01 -0.371429701360E-01 -0.962132715490E-03
  0.414000848990E-01  0.269323893420E-01 -0.324629895980E-02
[...]
CELL_DATA                5928
SCALARS C_p_ise float 1
LOOKUP_TABLE default
 -0.544342108128E+00
 -0.544342108128E+00
 -0.291732007132E-01
 -0.290320328536E-01
 -0.287885478300E-01
 -0.285612246581E-01
 -0.278713342685E-01
 -0.273775077846E-01
 -0.276845047420E-01
 -0.277304950500E-01
 -0.273011405080E-01
 -0.265844513699E-01
 -0.262924958230E-01
 -0.277244745069E-01
 -0.252922953764E-01
 -0.251490748845E-01
 -0.235970278217E-01
 -0.192376520445E-01
 -0.183747084942E-01
 -0.261581396843E-01
 -0.235813855404E-01
 -0.378496465922E-02
 -0.222327468653E-02
 -0.227480739848E-01
 -0.110755775258E+00
 -0.320008699273E-01
  0.294744324739E+00
  0.306409910190E+00
  0.294212188212E+00
  0.307624422574E+00
  0.294616686281E+00
  0.308927948750E+00
  0.292671324747E+00
  0.314567610848E+00
  0.293434409632E+00
  0.320489420662E+00
  0.295662060206E+00
  0.330287752426E+00
  0.296165704952E+00
  0.343467167957E+00
  0.292731297151E+00
  0.377311531736E+00
  0.297289621492E+00
  0.296516858265E+00
  0.299639845475E+00
  0.514336892545E+00
  0.292245652620E+00
  0.467887609836E+00
  0.290573719796E+00
  0.506836325424E+00
  0.282867758454E+00
  0.481655963405E+00
  0.436936682941E+00
  0.222045805624E+00
  0.473222863987E+00
  0.223702427175E+00
  0.236633308924E+00
  0.218555771801E+00
  0.495170914132E+00
  0.219038339326E+00
  0.197974123364E+00
  0.211993767335E+00
  0.291871359759E+00
  0.208563700592E+00
  0.246180576383E+00
  0.210188447432E+00
  0.233693612898E+00
  0.207932086678E+00
  0.224192546469E+00
  0.203865191706E+00
  0.218007615847E+00
  0.203344289994E+00
  0.216995513831E+00
  0.207352899284E+00
  0.212843693969E+00
  0.207626582603E+00
  0.210458607971E+00
  0.205562781333E+00
 -0.112404588937E+00
 -0.181035551538E+00
 -0.905068195354E-01
 -0.726979891815E-01
 -0.777790011571E-01
 -0.905432254431E-01
 -0.876179872612E-01
 -0.859920687225E-01
 -0.916422491635E-01
 -0.903607696931E-01
 -0.887071895599E-01
 -0.895200710795E-01
 -0.891000064748E-01
 -0.899642307845E-01
 -0.911636383359E-01
 -0.907272282137E-01
 -0.910594920811E-01
 -0.918614425131E-01
 -0.920828619043E-01
 -0.917625206892E-01
 -0.920284178361E-01
 -0.924428690285E-01
 -0.921582324614E-01
 -0.920846232153E-01
  0.169103712470E+01
  0.167256543892E+01
 -0.544342108128E+00
 -0.544342108128E+00
 -0.298328060859E-01
 -0.291732171329E-01
 -0.294832523519E-01
 -0.287886710420E-01
 -0.284689571189E-01
 -0.278716476661E-01
 -0.281170090830E-01
 -0.276850106226E-01
 -0.277706603603E-01
 -0.273021392458E-01
 -0.273717862055E-01
 -0.262949993506E-01
 -0.256226560244E-01
 -0.252952976328E-01
 -0.260189976327E-01
 -0.236119556785E-01
 -0.210468059883E-01
 -0.183990251083E-01
 -0.361018780261E-01
 -0.240389455019E-01
  0.341300597087E-02
 -0.204367114987E-02
 -0.177203216261E+00
 -0.127592974816E+00
  0.303872339306E+00
  0.321341902285E+00
  0.304484047372E+00
  0.324055250470E+00
  0.305061193749E+00
  0.329450550467E+00
  0.309637562516E+00
  0.341077886012E+00
  0.314161581934E+00
  0.356204287678E+00
  0.321813542665E+00
  0.366330420531E+00
  0.332729246175E+00
  0.396421971175E+00
  0.362713275413E+00
  0.429288492197E+00
  0.283384386352E+00
  0.449426543517E+00
  0.472190864749E+00
  0.492384638165E+00
  0.438875148320E+00
  0.480742565388E+00
  0.483581564863E+00
  0.481655868060E+00
  0.481655986855E+00
  0.481655989396E+00
  0.436936712521E+00
  0.436936699955E+00
  0.436936422807E+00
  0.459686822594E+00
  0.435506965691E+00
  0.231418839181E+00
  0.499790830397E+00
  0.481736741459E+00
  0.321804167438E+00
  0.192443449265E+00
  0.363976738704E+00
  0.285930984942E+00
  0.276101846031E+00
  0.240973613909E+00
  0.267540742569E+00
  0.229598668416E+00
  0.251558515709E+00
  0.221009154823E+00
  0.239975649659E+00
  0.215489479236E+00
  0.232183756391E+00
  0.214840506830E+00
  0.223006069827E+00
  0.211029319821E+00
  0.221692548632E+00
  0.208990808855E+00
 -0.196939783025E+00
 -0.238566033697E+00
 -0.728597183416E-01
 -0.702731937891E-01
 -0.912279114531E-01
 -0.108283193992E+00
 -0.860035590421E-01
 -0.838770148000E-01
 -0.903987380176E-01
 -0.904697210573E-01
 -0.895592151608E-01
 -0.916711594186E-01
 -0.899852738964E-01
 -0.910855590167E-01
 -0.907411006219E-01
 -0.921086101682E-01
 -0.918707271509E-01
 -0.920587199631E-01
 -0.917708976844E-01
 -0.923256281909E-01
 -0.924502739334E-01
 -0.923108340788E-01
 -0.920922311713E-01
 -0.922340970104E-01
  0.167169668662E+01
  0.164147744268E+01
 -0.544342108128E+00
 -0.544342108128E+00
 -0.301756825460E-01
 -0.298329344136E-01
 -0.296105920112E-01
 -0.294833866240E-01
 -0.297246891734E-01
 -0.284695049969E-01
 -0.293381280565E-01
 -0.281184798366E-01
 -0.287129895452E-01
 -0.277733967772E-01
 -0.260657948596E-01
 -0.273716060107E-01
 -0.273161921117E-01
 -0.256240344676E-01
 -0.280631354093E-01
 -0.260298986348E-01
 -0.278123998943E-01
 -0.211246063941E-01
 -0.360284560975E-01
 -0.361667205030E-01
 -0.193814297634E-01
  0.286426616632E-02
 -0.218980725057E+00
 -0.189599276784E+00
  0.317973318185E+00
  0.338088777518E+00
  0.320343652217E+00
  0.343063496275E+00
  0.325393654761E+00
  0.353087544318E+00
  0.336574048460E+00
  0.371218946963E+00
  0.351305533049E+00
  0.399180381840E+00
  0.359826665628E+00
  0.407223221342E+00
  0.389333804811E+00
  0.438047468039E+00
  0.421639889465E+00
  0.492304621310E+00
  0.444507903253E+00
  0.478586909217E+00
  0.481626752492E+00
  0.481655906042E+00
  0.481655900160E+00
  0.481655899884E+00
  0.481655864333E+00
  0.481655865113E+00
  0.481655986107E+00
  0.481655995298E+00
  0.436936848152E+00
  0.436936714888E+00
  0.436936406204E+00
  0.436936423402E+00
  0.436936364674E+00
  0.437218414918E+00
  0.436913509403E+00
  0.479250319071E+00
  0.434155721526E+00
  0.317139847440E+00
  0.447703046143E+00
  0.358381358580E+00
  0.334612313123E+00
  0.271977855092E+00
  0.306644769732E+00
  0.264311623945E+00
  0.291238574368E+00
  0.249103702409E+00
  0.267063525707E+00
  0.237824484233E+00
  0.249421721227E+00
  0.230066359019E+00
  0.239041383985E+00
  0.221155280098E+00
  0.237753287797E+00
  0.220143716593E+00
 -0.250702241917E+00
 -0.275698689045E+00
 -0.714516104319E-01
 -0.952915113739E-01
 -0.108684774204E+00
 -0.105807763881E+00
 -0.842261304020E-01
 -0.945328429000E-01
 -0.905313319739E-01
 -0.918607278825E-01
 -0.917329772581E-01
 -0.930466592208E-01
 -0.911364798825E-01
 -0.937149886683E-01
 -0.921414604421E-01
 -0.935604619532E-01
 -0.920825194436E-01
 -0.932034441087E-01
 -0.923452808949E-01
 -0.928861749044E-01
 -0.923281284871E-01
 -0.926608955183E-01
 -0.922506145172E-01
 -0.929475431461E-01
  0.164073337955E+01
  0.159529170383E+01
 -0.544342108128E+00
 -0.544342108128E+00
 -0.314085292863E-01
 -0.301763088828E-01
 -0.303895297107E-01
 -0.296115360521E-01
 -0.304902189648E-01
 -0.297261906314E-01
 -0.301890930994E-01
 -0.293399811013E-01
 -0.292006498868E-01
 -0.287143132331E-01
 -0.301240836184E-01
 -0.260782066860E-01
 -0.295828541281E-01
 -0.273464586828E-01
 -0.287207193600E-01
 -0.280956936804E-01
 -0.318994340444E-01
 -0.278887221892E-01
 -0.379910077734E-01
 -0.360417745156E-01
 -0.691864160941E-01
 -0.229136277079E-01
 -0.232620935941E+00
 -0.225609573856E+00
  0.334670833585E+00
  0.359024792387E+00
  0.339296093874E+00
  0.366596731945E+00
  0.348956901935E+00
  0.378962863063E+00
  0.366928162750E+00
  0.407427874964E+00
  0.394725332702E+00
  0.437421606617E+00
  0.401959554518E+00
  0.450608985674E+00
  0.430352411441E+00
  0.485771292043E+00
  0.481463042824E+00
  0.482806264198E+00
  0.479775344182E+00
  0.481655874635E+00
  0.481655911251E+00
  0.481655913082E+00
  0.481655903915E+00
  0.481655897162E+00
  0.481655872248E+00
  0.481655868766E+00
  0.481656006046E+00
  0.481656038923E+00
  0.436936812344E+00
  0.436936848879E+00
  0.436936427962E+00
  0.436936401598E+00
  0.436936373557E+00
  0.436936361973E+00
  0.436936518068E+00
  0.436936492138E+00
  0.436936394154E+00
  0.438844126464E+00
  0.439246600444E+00
  0.439538080978E+00
  0.445140747786E+00
  0.331870979106E+00
  0.365236319807E+00
  0.304506428365E+00
  0.332647309233E+00
  0.289492882276E+00
  0.302679189041E+00
  0.265321642418E+00
  0.272826811482E+00
  0.247663027871E+00
  0.262246024255E+00
  0.237664933042E+00
  0.255195777643E+00
  0.236422368027E+00
 -0.282917477183E+00
 -0.293770399123E+00
 -0.994942381697E-01
 -0.143460361678E+00
 -0.105607438047E+00
 -0.100932002713E+00
 -0.949005672906E-01
 -0.996968072418E-01
 -0.920714802750E-01
 -0.974458536257E-01
 -0.931470269927E-01
 -0.954430988043E-01
 -0.938035420309E-01
 -0.972346392304E-01
 -0.936163260330E-01
 -0.953011006148E-01
 -0.932499717845E-01
 -0.946722946423E-01
 -0.929251032738E-01
 -0.946009270015E-01
 -0.926921748400E-01
 -0.940987097444E-01
 -0.929750345035E-01
 -0.940027717875E-01
  0.159467522582E+01
  0.153069871549E+01
 -0.544342108128E+00
 -0.544342108128E+00
 -0.321791187919E-01
 -0.314092610220E-01
 -0.318207234711E-01
 -0.303906639214E-01
 -0.314947638905E-01
 -0.304918347330E-01
 -0.299102042605E-01
 -0.301897485798E-01
 -0.324966646299E-01
 -0.292065627317E-01
 -0.306702151767E-01
 -0.301310930023E-01
 -0.346413617691E-01
 -0.296038507151E-01
 -0.338897980935E-01
 -0.287829595033E-01
 -0.435694552297E-01
 -0.322343203074E-01
 -0.396469806821E-01
 -0.383346297936E-01
 -0.138572388720E+00
 -0.777261014703E-01
 -0.213476709894E+00
 -0.231688258023E+00
  0.355504731113E+00
  0.380418918209E+00
  0.363225047184E+00
  0.392453305656E+00
  0.375434012499E+00
  0.414340088769E+00
  0.403514217635E+00
  0.448065960553E+00
  0.431807799756E+00
  0.472309304809E+00
  0.443445435287E+00
  0.480172604308E+00
  0.482427535551E+00
  0.481705957160E+00
  0.481575841387E+00
  0.481655902759E+00
  0.481655876962E+00
  0.481655868057E+00
  0.481655921978E+00
  0.481655928204E+00
  0.481655900309E+00
  0.481655918917E+00
  0.481655864328E+00
  0.481655865175E+00
  0.481656042187E+00
  0.481656089607E+00
  0.436937037648E+00
  0.436936816355E+00
  0.436936312922E+00
  0.436936428000E+00
  0.436936278932E+00
  0.436936366661E+00
  0.436936555810E+00
  0.436936513591E+00
  0.436936374276E+00
  0.436936386169E+00
  0.436936515645E+00
  0.439195977684E+00
  0.437191972338E+00
  0.444095757485E+00
  0.441687511914E+00
  0.361534897131E+00
  0.399050282993E+00
  0.330546459317E+00
  0.348155112607E+00
  0.301176417241E+00
  0.305187379579E+00
  0.271253261872E+00
  0.286510088022E+00
  0.260751671398E+00
  0.277508231255E+00
  0.253654086248E+00
 -0.295638170316E+00
 -0.280526095047E+00
 -0.155280289488E+00
 -0.211078110482E+00
 -0.101920371834E+00
 -0.110354078898E+00
 -0.100325254754E+00
 -0.112461566723E+00
 -0.976886838197E-01
 -0.103079872468E+00
 -0.955787993459E-01
 -0.101002641203E+00
 -0.973161410487E-01
 -0.965709781347E-01
 -0.954083507851E-01
 -0.989903534012E-01
 -0.947486973910E-01
 -0.977394382933E-01
 -0.946614266135E-01
 -0.970150181450E-01
 -0.941501844026E-01
 -0.956651544027E-01
 -0.940502255085E-01
 -0.949659562994E-01
  0.153024520075E+01
  0.144541507635E+01
 -0.544342108128E+00
 -0.544342108128E+00
 -0.331366666861E-01
 -0.321801804452E-01
 -0.324533786305E-01
 -0.318218650922E-01
 -0.337199007043E-01
 -0.314971279913E-01
 -0.330204183136E-01
 -0.299166135860E-01
 -0.346222633001E-01
 -0.325099780491E-01
 -0.339761829767E-01
 -0.306901343715E-01
 -0.382113589968E-01
 -0.346883349132E-01
 -0.350474837729E-01
 -0.339125188681E-01
 -0.541880570423E-01
 -0.437315508147E-01
 -0.514977088745E-01
 -0.398850011335E-01
 -0.197828219475E+00
 -0.146727552062E+00
 -0.178557371194E+00
 -0.205423881462E+00
  0.376748923360E+00
  0.405738914119E+00
  0.388730469471E+00
  0.426800045163E+00
  0.410358643596E+00
  0.455268271092E+00
  0.442978553844E+00
  0.479765411028E+00
  0.465372425756E+00
  0.481435162804E+00
  0.481350587548E+00
  0.481665069501E+00
  0.481646176745E+00
  0.481655914758E+00
  0.481655907464E+00
  0.481655915212E+00
  0.481655861655E+00
  0.481655861933E+00
  0.481655924768E+00
  0.481655939864E+00
  0.481655916328E+00
  0.481655919291E+00
  0.481655861882E+00
  0.481655847251E+00
  0.481656099945E+00
  0.481656121250E+00
  0.436937072224E+00
  0.436937043332E+00
  0.436936340907E+00
  0.436936310852E+00
  0.436936241752E+00
  0.436936280677E+00
  0.436936576408E+00
  0.436936564134E+00
  0.436936318756E+00
  0.436936374377E+00
  0.436936551810E+00
  0.436936520272E+00
  0.436936438296E+00
  0.437414561308E+00
  0.436908422525E+00
  0.442177424496E+00
  0.437149742834E+00
  0.394638231501E+00
  0.424395400287E+00
  0.345899630101E+00
  0.358290834913E+00
  0.303791709583E+00
  0.317864702419E+00
  0.285026320325E+00
  0.300644219270E+00
  0.275900923414E+00
 -0.273222838539E+00
 -0.253095257150E+00
 -0.220980131238E+00
 -0.264691420382E+00
 -0.111735410473E+00
 -0.130022974515E+00
 -0.113150433223E+00
 -0.124837003382E+00
 -0.103379126197E+00
 -0.107918092168E+00
 -0.101272723783E+00
 -0.106163091531E+00
 -0.967131650825E-01
 -0.102398579487E+00
 -0.990849606718E-01
 -0.100375700350E+00
 -0.978445344686E-01
 -0.100082319442E+00
 -0.971138964880E-01
 -0.997591239946E-01
 -0.957516834258E-01
 -0.989339965611E-01
 -0.950377869480E-01
 -0.980334158273E-01
  0.144511109838E+01
  0.133641837725E+01
 -0.544342108128E+00
 -0.544342108128E+00
 -0.348795015362E-01
 -0.331391782190E-01
 -0.350144406176E-01
 -0.324576463961E-01
 -0.356206261089E-01
 -0.337263465157E-01
 -0.360865907569E-01
 -0.330306074829E-01
 -0.375638978681E-01
 -0.346362341064E-01
 -0.388295985944E-01
 -0.340081407584E-01
 -0.410614125318E-01
 -0.382514760782E-01
 -0.484405176773E-01
 -0.352467637417E-01
 -0.627313839512E-01
 -0.546689538753E-01
 -0.877652707645E-01
 -0.536239661244E-01
 -0.219466595099E+00
 -0.203245541016E+00
 -0.140829129303E+00
 -0.170776496526E+00
  0.401475517142E+00
  0.438164276735E+00
  0.422636850308E+00
  0.462470029087E+00
  0.451939992847E+00
  0.487051716742E+00
  0.474379807726E+00
  0.481895039381E+00
  0.481373716361E+00
  0.481655904968E+00
  0.481655852669E+00
  0.481655853859E+00
  0.481655910207E+00
  0.481655918693E+00
  0.481655909917E+00
  0.481655898454E+00
  0.481655863459E+00
  0.481655870426E+00
  0.481655944553E+00
  0.481655941786E+00
  0.481655926004E+00
  0.481655934938E+00
  0.481655847886E+00
  0.481655842448E+00
  0.481656127092E+00
  0.481656198966E+00
  0.436937288632E+00
  0.436937074863E+00
  0.436936278600E+00
  0.436936340029E+00
  0.436936211578E+00
  0.436936238138E+00
  0.436936552162E+00
  0.436936573739E+00
  0.436936360062E+00
  0.436936318402E+00
  0.436936512003E+00
  0.436936552690E+00
  0.436936453349E+00
  0.436936437459E+00
  0.436936394732E+00
  0.436968857840E+00
  0.436935571898E+00
  0.437918749093E+00
  0.437240185794E+00
  0.420882908500E+00
  0.437650679571E+00
  0.355797308728E+00
  0.373242297300E+00
  0.315765543610E+00
  0.334912856892E+00
  0.298748842436E+00
 -0.246013718517E+00
 -0.226798295141E+00
 -0.270993427994E+00
 -0.288803737448E+00
 -0.133629948740E+00
 -0.171202529633E+00
 -0.125697032198E+00
 -0.131407438516E+00
 -0.108580502672E+00
 -0.120575262700E+00
 -0.106503739160E+00
 -0.114276184076E+00
 -0.102638796507E+00
 -0.107831282879E+00
 -0.100535574766E+00
 -0.105078197776E+00
 -0.100202330978E+00
 -0.103100113153E+00
 -0.998694815194E-01
 -0.102207761242E+00
 -0.990443708933E-01
 -0.101793686933E+00
 -0.981399565840E-01
 -0.101573008700E+00
  0.133627547020E+01
  0.120395149571E+01
 -0.544342108128E+00
 -0.544342108128E+00
 -0.376751866635E-01
 -0.348865496415E-01
 -0.370141275071E-01
 -0.350227736485E-01
 -0.384206977428E-01
 -0.356312845038E-01
 -0.399533314194E-01
 -0.361043251763E-01
 -0.414021893290E-01
 -0.375898095450E-01
 -0.426047095275E-01
 -0.388669264697E-01
 -0.502922535273E-01
 -0.411592286969E-01
 -0.586985141909E-01
 -0.486954859373E-01
 -0.695102668778E-01
 -0.629374104100E-01
 -0.169361172627E+00
 -0.940874525852E-01
 -0.193235426075E+00
 -0.219955117965E+00
 -0.925456507115E-01
 -0.135373210140E+00
  0.433568046532E+00
  0.481347200516E+00
  0.453923107228E+00
  0.482505806728E+00
  0.480590805168E+00
  0.481683339510E+00
  0.481605506224E+00
  0.481655900193E+00
  0.481655901149E+00
  0.481655902988E+00
  0.481655849527E+00
  0.481655851014E+00
  0.481655920020E+00
  0.481655912111E+00
  0.481655897647E+00
  0.481655909913E+00
  0.481655866920E+00
  0.481655850794E+00
  0.481655943532E+00
  0.481655960570E+00
  0.481655933955E+00
  0.481655932185E+00
  0.481655840713E+00
  0.481655817635E+00
  0.481656213862E+00
  0.481656341731E+00
  0.436937552028E+00
  0.436937293532E+00
  0.436936253950E+00
  0.436936275499E+00
  0.436936154152E+00
  0.436936208624E+00
  0.436936645893E+00
  0.436936555732E+00
  0.436936297819E+00
  0.436936360684E+00
  0.436936572079E+00
  0.436936514124E+00
  0.436936404211E+00
  0.436936454423E+00
  0.436936432582E+00
  0.436936398068E+00
  0.436936465436E+00
  0.436939809757E+00
  0.436936009407E+00
  0.437345175600E+00
  0.437062868910E+00
  0.435109479025E+00
  0.441527547922E+00
  0.369390168065E+00
  0.389594714936E+00
  0.331309148733E+00
 -0.220971949636E+00
 -0.192758614184E+00
 -0.290572223438E+00
 -0.268269785358E+00
 -0.181080169565E+00
 -0.245406408325E+00
 -0.132893160256E+00
 -0.153240161811E+00
 -0.121316286251E+00
 -0.132354934001E+00
 -0.114785661772E+00
 -0.122898134012E+00
 -0.108203268536E+00
 -0.115347491797E+00
 -0.105363895440E+00
 -0.111904745460E+00
 -0.103313503131E+00
 -0.110259314020E+00
 -0.102358528847E+00
 -0.107214788269E+00
 -0.101919504194E+00
 -0.105395827134E+00
 -0.101692929654E+00
 -0.104425543961E+00
  0.120394469507E+01
  0.104248675186E+01
 -0.544342108128E+00
 -0.544342108128E+00
 -0.414705261921E-01
 -0.376861134555E-01
 -0.418790918935E-01
 -0.370299176729E-01
 -0.422496951439E-01
 -0.384425335606E-01
 -0.444042621075E-01
 -0.399844774771E-01
 -0.452131211422E-01
 -0.414401706252E-01
 -0.542420184597E-01
 -0.427135892334E-01
 -0.589148997279E-01
 -0.504927440764E-01
 -0.717501435192E-01
 -0.590674125630E-01
 -0.119635957092E+00
 -0.718981293992E-01
 -0.185725211356E+00
 -0.173612045959E+00
 -0.165758073237E+00
 -0.186796489295E+00
 -0.795564801851E-02
 -0.894865744593E-01
  0.470311076936E+00
  0.481804487109E+00
  0.481388581908E+00
  0.481672445341E+00
  0.481639227242E+00
  0.481655895353E+00
  0.481655896876E+00
  0.481655894511E+00
  0.481655903981E+00
  0.481655911900E+00
  0.481655846958E+00
  0.481655835103E+00
  0.481655910941E+00
  0.481655920666E+00
  0.481655909620E+00
  0.481655915057E+00
  0.481655841274E+00
  0.481655843496E+00
  0.481655955952E+00
  0.481655971488E+00
  0.481655922859E+00
  0.481655921512E+00
  0.481655804042E+00
  0.481655798192E+00
  0.481656348893E+00
  0.481656202755E+00
  0.436937349205E+00
  0.436937565235E+00
  0.436936357860E+00
  0.436936262325E+00
  0.436936124530E+00
  0.436936161821E+00
  0.436936645056E+00
  0.436936655680E+00
  0.436936228637E+00
  0.436936297714E+00
  0.436936591403E+00
  0.436936577768E+00
  0.436936409602E+00
  0.436936405009E+00
  0.436936420795E+00
  0.436936437137E+00
  0.436936393594E+00
  0.436936457304E+00
  0.436936612911E+00
  0.436936523695E+00
  0.436936398510E+00
  0.437106969052E+00
  0.436912243513E+00
  0.440573737031E+00
  0.436775011023E+00
  0.385032802475E+00
 -0.187107412661E+00
 -0.136093814332E+00
 -0.262107374335E+00
 -0.249729172509E+00
 -0.250946945013E+00
 -0.266229566765E+00
 -0.157696082813E+00
 -0.201672095358E+00
 -0.133693574540E+00
 -0.151500163958E+00
 -0.123645545117E+00
 -0.134849314390E+00
 -0.115884543637E+00
 -0.128162274828E+00
 -0.112259671570E+00
 -0.119467658663E+00
 -0.110576676450E+00
 -0.117454692844E+00
 -0.107486188709E+00
 -0.114341886845E+00
 -0.105622651377E+00
 -0.112435143375E+00
 -0.104614734957E+00
 -0.110981439654E+00
  0.104262170550E+01
  0.856677450863E+00
 -0.544342108128E+00
 -0.544342108128E+00
 -0.468175290883E-01
 -0.414958866017E-01
 -0.480036611093E-01
 -0.419125284977E-01
 -0.486262930639E-01
 -0.422934612328E-01
 -0.517735574382E-01
 -0.444703480485E-01
 -0.575084692265E-01
 -0.453443360170E-01