# vtk DataFile Version 3.0
MachLine results file. Generated by MachLine, USU AeroLab (c) 2022.
ASCII
DATASET POLYDATA
POINTS                3023 float
  0.000000000000E+00  0.000000000000E+00  0.000000000000E+00
  0.895597215276E-03  0.000000000000E+00 -0.199021596927E-03
  0.895597215276E-03  0.000000000000E+00  0.199021596927E-03
  0.201978022233E-02  0.000000000000E+00 -0.448840030003E-03
  0.201978022233E-02  0.000000000000E+00  0.448840030003E-03
  0.342194340192E-02  0.000000000000E+00 -0.760431867093E-03
  0.342194340192E-02  0.000000000000E+00  0.760431867093E-03
  0.515701295808E-02  0.000000000000E+00 -0.114600290544E-02
  0.515701295808E-02  0.000000000000E+00  0.114600290544E-02
  0.728308875114E-02  0.000000000000E+00 -0.161846412811E-02
  0.728308875114E-02  0.000000000000E+00  0.161846412811E-02
  0.794107001275E-02 -0.798275880516E-02  0.000000000000E+00
  0.794107001275E-02  0.798275880516E-02  0.000000000000E+00
  0.880578439683E-02 -0.798275880516E-02 -0.192158782738E-03
  0.880578439683E-02 -0.798275880516E-02  0.192158782738E-03
  0.880578439683E-02  0.798275880516E-02 -0.192158782738E-03
  0.880578439683E-02  0.798275880516E-02  0.192158782738E-03
  0.985721684992E-02  0.000000000000E+00 -0.219049258158E-02
  0.985721684992E-02  0.000000000000E+00  0.219049258158E-02
  0.989120267332E-02 -0.798275880516E-02 -0.433362787589E-03
  0.989120267332E-02 -0.798275880516E-02  0.433362787589E-03
  0.989120267332E-02  0.798275880516E-02 -0.433362787589E-03
  0.989120267332E-02  0.798275880516E-02  0.433362787589E-03
  0.112450150773E-01 -0.798275880516E-02 -0.734210072551E-03
  0.112450150773E-01 -0.798275880516E-02  0.734210072551E-03
  0.112450150773E-01  0.798275880516E-02 -0.734210072551E-03
  0.112450150773E-01  0.798275880516E-02  0.734210072551E-03
  0.129202548414E-01 -0.798275880516E-02 -0.110648560803E-02
  0.129202548414E-01 -0.798275880516E-02  0.110648560803E-02
  0.129202548414E-01  0.798275880516E-02 -0.110648560803E-02
  0.129202548414E-01  0.798275880516E-02  0.110648560803E-02
  0.129289356992E-01  0.000000000000E+00 -0.287309684791E-02
  0.129289356992E-01  0.000000000000E+00  0.287309684791E-02
  0.149730173871E-01 -0.798275880516E-02 -0.156265497208E-02
  0.149730173871E-01 -0.798275880516E-02  0.156265497208E-02
  0.149730173871E-01  0.798275880516E-02 -0.156265497208E-02
  0.149730173871E-01  0.798275880516E-02  0.156265497208E-02
  0.158821400255E-01 -0.159655176103E-01  0.000000000000E+00
  0.158821400255E-01  0.159655176103E-01  0.000000000000E+00
  0.165316089988E-01  0.000000000000E+00 -0.367369106971E-02
  0.165316089988E-01  0.000000000000E+00  0.367369106971E-02
  0.167159717530E-01 -0.159655176103E-01 -0.185295968549E-03
  0.167159717530E-01 -0.159655176103E-01  0.185295968549E-03
  0.167159717530E-01  0.159655176103E-01 -0.185295968549E-03
  0.167159717530E-01  0.159655176103E-01  0.185295968549E-03
  0.174583829939E-01 -0.798275880516E-02 -0.211495836265E-02
  0.174583829939E-01 -0.798275880516E-02  0.211495836265E-02
  0.174583829939E-01  0.798275880516E-02 -0.211495836265E-02
  0.174583829939E-01  0.798275880516E-02  0.211495836265E-02
  0.177626255900E-01 -0.159655176103E-01 -0.417885545176E-03
  0.177626255900E-01 -0.159655176103E-01  0.417885545176E-03
  0.177626255900E-01  0.159655176103E-01 -0.417885545176E-03
  0.177626255900E-01  0.159655176103E-01  0.417885545176E-03
  0.190680865198E-01 -0.159655176103E-01 -0.707988278009E-03
  0.190680865198E-01 -0.159655176103E-01  0.707988278009E-03
  0.190680865198E-01  0.159655176103E-01 -0.707988278009E-03
  0.190680865198E-01  0.159655176103E-01  0.707988278009E-03
  0.204241797328E-01 -0.798275880516E-02 -0.277402438223E-02
  0.204241797328E-01 -0.798275880516E-02  0.277402438223E-02
  0.204241797328E-01  0.798275880516E-02 -0.277402438223E-02
  0.204241797328E-01  0.798275880516E-02  0.277402438223E-02
  0.206723343581E-01  0.000000000000E+00 -0.459385197610E-02
  0.206723343581E-01  0.000000000000E+00  0.459385197610E-02
  0.206834971905E-01 -0.159655176103E-01 -0.106696819421E-02
  0.206834971905E-01 -0.159655176103E-01  0.106696819421E-02
  0.206834971905E-01  0.159655176103E-01 -0.106696819421E-02
  0.206834971905E-01  0.159655176103E-01  0.106696819421E-02
  0.226629469544E-01 -0.159655176103E-01 -0.150684593245E-02
  0.226629469544E-01 -0.159655176103E-01  0.150684593245E-02
  0.226629469544E-01  0.159655176103E-01 -0.150684593245E-02
  0.226629469544E-01  0.159655176103E-01  0.150684593245E-02
  0.238232109696E-01 -0.239482764155E-01  0.000000000000E+00
  0.238232109696E-01  0.239482764155E-01  0.000000000000E+00
  0.239026248455E-01 -0.798275880516E-02 -0.354701210745E-02
  0.239026248455E-01 -0.798275880516E-02  0.354701210745E-02
  0.239026248455E-01  0.798275880516E-02 -0.354701210745E-02
  0.239026248455E-01  0.798275880516E-02  0.354701210745E-02
  0.246261600405E-01 -0.239482764155E-01 -0.178433154360E-03
  0.246261600405E-01 -0.239482764155E-01  0.178433154360E-03
  0.246261600405E-01  0.239482764155E-01 -0.178433154360E-03
  0.246261600405E-01  0.239482764155E-01  0.178433154360E-03
  0.250595491379E-01 -0.159655176103E-01 -0.203942414373E-02
  0.250595491379E-01 -0.159655176103E-01  0.203942414373E-02
  0.250595491379E-01  0.159655176103E-01 -0.203942414373E-02
  0.250595491379E-01  0.159655176103E-01  0.203942414373E-02
  0.253221653402E-01  0.000000000000E+00 -0.562714785337E-02
  0.253221653402E-01  0.000000000000E+00  0.562714785337E-02
  0.256340466440E-01 -0.239482764155E-01 -0.402408302762E-03
  0.256340466440E-01 -0.239482764155E-01  0.402408302762E-03
  0.256340466440E-01  0.239482764155E-01 -0.402408302762E-03
  0.256340466440E-01  0.239482764155E-01  0.402408302762E-03
  0.268911588937E-01 -0.239482764155E-01 -0.681766483467E-03
  0.268911588937E-01 -0.239482764155E-01  0.681766483467E-03
  0.268911588937E-01  0.239482764155E-01 -0.681766483467E-03
  0.268911588937E-01  0.239482764155E-01  0.681766483467E-03
  0.279005654156E-01 -0.798275880516E-02 -0.443544331938E-02
  0.279005654156E-01 -0.798275880516E-02  0.443544331938E-02
  0.279005654156E-01  0.798275880516E-02 -0.443544331938E-02
  0.279005654156E-01  0.798275880516E-02  0.443544331938E-02
  0.279194246978E-01 -0.159655176103E-01 -0.267495214939E-02
  0.279194246978E-01 -0.159655176103E-01  0.267495214939E-02
  0.279194246978E-01  0.159655176103E-01 -0.267495214939E-02
  0.279194246978E-01  0.159655176103E-01  0.267495214939E-02
  0.284467395395E-01 -0.239482764155E-01 -0.102745089680E-02
  0.284467395395E-01 -0.239482764155E-01  0.102745089680E-02
  0.284467395395E-01  0.239482764155E-01 -0.102745089680E-02
  0.284467395395E-01  0.239482764155E-01  0.102745089680E-02
  0.303528755903E-01 -0.239482764155E-01 -0.145103677642E-02
  0.303528755903E-01 -0.239482764155E-01  0.145103677642E-02
  0.303528755903E-01  0.239482764155E-01 -0.145103677642E-02
  0.303528755903E-01  0.239482764155E-01  0.145103677642E-02
  0.304094180465E-01  0.000000000000E+00 -0.675764819607E-02
  0.304094180465E-01  0.000000000000E+00  0.675764819607E-02
  0.312736406922E-01 -0.159655176103E-01 -0.342033314519E-02
  0.312736406922E-01 -0.159655176103E-01  0.342033314519E-02
  0.312736406922E-01  0.159655176103E-01 -0.342033314519E-02
  0.312736406922E-01  0.159655176103E-01  0.342033314519E-02
  0.317642800510E-01 -0.319310352206E-01  0.000000000000E+00
  0.317642800510E-01  0.319310352206E-01  0.000000000000E+00
  0.323900580406E-01 -0.798275880516E-02 -0.543310819194E-02
  0.323900580406E-01 -0.798275880516E-02  0.543310819194E-02
  0.323900580406E-01  0.798275880516E-02 -0.543310819194E-02
  0.323900580406E-01  0.798275880516E-02  0.543310819194E-02
  0.325363464653E-01 -0.319310352206E-01 -0.171570340171E-03
  0.325363464653E-01 -0.319310352206E-01  0.171570340171E-03
  0.325363464653E-01  0.319310352206E-01 -0.171570340171E-03
  0.325363464653E-01  0.319310352206E-01  0.171570340171E-03
  0.326607152820E-01 -0.239482764155E-01 -0.196388992481E-02
  0.326607152820E-01 -0.239482764155E-01  0.196388992481E-02
  0.326607152820E-01  0.239482764155E-01 -0.196388992481E-02
  0.326607152820E-01  0.239482764155E-01  0.196388992481E-02
  0.335054695606E-01 -0.319310352206E-01 -0.386931060348E-03
  0.335054695606E-01 -0.319310352206E-01  0.386931060348E-03
  0.335054695606E-01  0.319310352206E-01 -0.386931060348E-03
  0.335054695606E-01  0.319310352206E-01  0.386931060348E-03
  0.347142331302E-01 -0.319310352206E-01 -0.655544688925E-03
  0.347142331302E-01 -0.319310352206E-01  0.655544688925E-03
  0.347142331302E-01  0.319310352206E-01 -0.655544688925E-03
  0.347142331302E-01  0.319310352206E-01  0.655544688925E-03
  0.351287946105E-01 -0.159655176103E-01 -0.427703466266E-02
  0.351287946105E-01 -0.159655176103E-01  0.427703466266E-02
  0.351287946105E-01  0.159655176103E-01 -0.427703466266E-02
  0.351287946105E-01  0.159655176103E-01  0.427703466266E-02
  0.354146696627E-01 -0.239482764155E-01 -0.257587991655E-02
  0.354146696627E-01 -0.239482764155E-01  0.257587991655E-02
  0.354146696627E-01  0.239482764155E-01 -0.257587991655E-02
  0.354146696627E-01  0.239482764155E-01  0.257587991655E-02
  0.358190163970E-01  0.000000000000E+00 -0.795978121459E-02
  0.358190163970E-01  0.000000000000E+00  0.795978121459E-02
  0.362099818885E-01 -0.319310352206E-01 -0.987933599390E-03
  0.362099818885E-01 -0.319310352206E-01  0.987933599390E-03
  0.362099818885E-01  0.319310352206E-01 -0.987933599390E-03
  0.362099818885E-01  0.319310352206E-01  0.987933599390E-03
  0.373018868268E-01 -0.798275880516E-02 -0.652462616563E-02
  0.373018868268E-01 -0.798275880516E-02  0.652462616563E-02
  0.373018868268E-01  0.798275880516E-02 -0.652462616563E-02
  0.373018868268E-01  0.798275880516E-02  0.652462616563E-02
  0.380428060889E-01 -0.319310352206E-01 -0.139522773679E-02
  0.380428060889E-01 -0.319310352206E-01  0.139522773679E-02
  0.380428060889E-01  0.319310352206E-01 -0.139522773679E-02
  0.380428060889E-01  0.319310352206E-01  0.139522773679E-02
[...]
CELL_DATA                5928
SCALARS C_p_ise float 1
LOOKUP_TABLE default
  0.691544424911E-02
  0.135046672756E-01
  0.111691163257E-01
  0.101078272739E-01
  0.121592741760E-01
  0.991633892398E-02
  0.743561544065E-02
  0.117559365284E-01
  0.801646056841E-02
  0.106151281032E-01
  0.772863223503E-02
  0.755845518840E-02
  0.112462934178E-01
  0.580210782659E-02
  0.818229821162E-02
  0.122555458742E-01
  0.107318725067E-01
  0.101956499471E-01
  0.123359874655E-01
  0.116949720239E-01
  0.140742797574E-01
  0.167058277592E-01
  0.155427866477E-01
  0.109086409417E-01
  0.750749781060E-01
  0.117240820579E+00
  0.215013395861E+00
  0.137489334369E+00
  0.216580750902E+00
  0.222662521598E+00
  0.215898750057E+00
  0.222481803942E+00
  0.216628343856E+00
  0.224172774619E+00
  0.216339618067E+00
  0.227101982408E+00
  0.214013679588E+00
  0.230923937405E+00
  0.213110582128E+00
  0.234815125989E+00
  0.214334373055E+00
  0.241403153444E+00
  0.215545552014E+00
  0.252080279068E+00
  0.216910405349E+00
  0.267530312744E+00
  0.218466579498E+00
  0.291248989725E+00
  0.219850560902E+00
  0.328809665240E+00
  0.221896448514E+00
  0.438154033890E+00
  0.438153991253E+00
  0.221896448106E+00
  0.328809685779E+00
  0.219850560767E+00
  0.291248992293E+00
  0.218466579279E+00
  0.267530317834E+00
  0.216910404669E+00
  0.252080287523E+00
  0.215545550507E+00
  0.241403170088E+00
  0.214334372267E+00
  0.234815122573E+00
  0.213110582317E+00
  0.230923929554E+00
  0.214013679431E+00
  0.227101981923E+00
  0.216339619469E+00
  0.224172763206E+00
  0.216628344524E+00
  0.222481814222E+00
  0.215898749761E+00
  0.222662504255E+00
  0.216580748442E+00
  0.137489356599E+00
  0.215013397266E+00
  0.117240821114E+00
  0.750749762317E-01
  0.109086416103E-01
  0.155427861028E-01
  0.167058273009E-01
  0.140742822178E-01
  0.116949720963E-01
  0.123359913238E-01
  0.101956506023E-01
  0.107318685494E-01
  0.122555462378E-01
  0.818230116956E-02
  0.580210847370E-02
  0.112462865645E-01
  0.755844053746E-02
  0.772861800162E-02
  0.106151381687E-01
  0.801647819893E-02
  0.117559292842E-01
  0.743568670066E-02
  0.991598984430E-02
  0.121591530897E-01
  0.101083013457E-01
  0.111690796278E-01
  0.135046856991E-01
  0.688853679317E-02
  0.114394450881E-01
  0.691709993250E-02
  0.123234422610E-01
  0.111675882928E-01
  0.736656462677E-02
  0.121590609607E-01
  0.106505994334E-01
  0.743597709474E-02
  0.963761725514E-02
  0.801467940885E-02
  0.991489981602E-02
  0.772569317947E-02
  0.905165912126E-02
  0.112482312299E-01
  0.486513651597E-02
  0.818360679628E-02
  0.109387729347E-01
  0.107331927978E-01
  0.111090612082E-01
  0.123308789070E-01
  0.954922811566E-02
  0.140098570975E-01
  0.198609758899E-01
  0.155487218471E-01
  0.439151248652E-01
  0.749986727188E-01
  0.137126831379E+00
  0.616721062223E-01
  0.221794681274E+00
  0.230216731792E+00
  0.221489764593E+00
  0.231768578717E+00
  0.222985430868E+00
  0.234843473220E+00
  0.225698893802E+00
  0.240247614578E+00
  0.229315860560E+00
  0.247687599507E+00
  0.232984221825E+00
  0.256705652962E+00
  0.239254253660E+00
  0.267140019187E+00
  0.249601870219E+00
  0.282407023335E+00
  0.264780722886E+00
  0.303675723339E+00
  0.288396425330E+00
  0.332624103405E+00
  0.326419480819E+00
  0.375651073768E+00
  0.439941432377E+00
  0.482384522673E+00
  0.482384475085E+00
  0.439941389007E+00
  0.375651127236E+00
  0.326419502814E+00
  0.332624108342E+00
  0.288396428784E+00
  0.303675698411E+00
  0.264780727839E+00
  0.282407034949E+00
  0.249601878461E+00
  0.267140004150E+00
  0.239254269015E+00
  0.256705649153E+00
  0.232984217375E+00
  0.247687604705E+00
  0.229315852313E+00
  0.240247617819E+00
  0.225698893089E+00
  0.234843470475E+00
  0.222985419691E+00
  0.231768580458E+00
  0.221489774718E+00
  0.230216753786E+00
  0.221794664999E+00
  0.616720795995E-01
  0.137126852463E+00
  0.749986710972E-01
  0.439151244355E-01
  0.155487212903E-01
  0.198609747195E-01
  0.140098596204E-01
  0.954923463179E-02
  0.123308827660E-01
  0.111090637594E-01
  0.107331888410E-01
  0.109387642498E-01
  0.818360976180E-02
  0.486513536671E-02
  0.112482243365E-01
  0.905166314516E-02
  0.772567894847E-02
  0.991488551802E-02
  0.801469703885E-02
  0.963765661466E-02
  0.743604829597E-02
  0.106505460293E-01
  0.121589398489E-01
  0.736657186169E-02
  0.111675515990E-01
  0.123234332516E-01
  0.689021352959E-02
  0.114089503359E-01
  0.609880446768E-02
  0.114376372698E-01
  0.794087286543E-02
  0.123242511285E-01
  0.787801374180E-02
  0.736787603458E-02
  0.105549514244E-01
  0.106508703862E-01
  0.923494830855E-02
  0.963844026935E-02
  0.951826457138E-02
  0.991836701069E-02
  0.516595419542E-02
  0.905122354631E-02
  0.953716177224E-02
  0.486589876880E-02
  0.905799947745E-02
  0.109402307980E-01
  0.109743509936E-01
  0.111096820685E-01
  0.650672247714E-02
  0.953233772629E-02
  0.264262713724E-01
  0.198512299566E-01
  0.107115803374E-01
  0.429475131945E-01
  0.625550146894E-01
 -0.128633834147E-01
  0.229510099724E+00
  0.237493297098E+00
  0.231079998300E+00
  0.241696184869E+00
  0.234112906184E+00
  0.246852879094E+00
  0.239461119971E+00
  0.253853735983E+00
  0.246891983759E+00
  0.263380292444E+00
  0.255991545075E+00
  0.275844339537E+00
  0.266514156777E+00
  0.290647397398E+00
  0.281853467901E+00
  0.307904038434E+00
  0.303313157718E+00
  0.331410009702E+00
  0.332574016081E+00
  0.362584096652E+00
  0.376107398907E+00
  0.407027675819E+00
  0.483750435243E+00
  0.508725256892E+00
  0.508725211425E+00
  0.483750387297E+00
  0.407027692911E+00
  0.376107451571E+00
  0.362584077004E+00
  0.332574018572E+00
  0.331410006490E+00
  0.303313131497E+00
  0.307904035233E+00
  0.281853478731E+00
  0.290647404021E+00
  0.266514141783E+00
  0.275844335702E+00
  0.255991542131E+00
  0.263380311268E+00
  0.246891990093E+00
  0.253853751196E+00
  0.239461124203E+00
  0.246852864507E+00
  0.234112903780E+00
  0.241696193812E+00
  0.231080000319E+00
  0.237493289718E+00
  0.229510121059E+00
 -0.128633883858E-01
  0.625549894128E-01
  0.429475127838E-01
  0.107115796748E-01
  0.198512287535E-01
  0.264262734512E-01
  0.953234422123E-02
  0.650672706067E-02
  0.111096846181E-01
  0.109743500440E-01
  0.109402221055E-01
  0.905800051486E-02
  0.486589764183E-02
  0.953716442737E-02
  0.905122749484E-02
  0.516594291431E-02
  0.991835270550E-02
  0.951823415676E-02
  0.963847960991E-02
  0.923499587926E-02
  0.106508169283E-01
  0.105549210520E-01
  0.736788326320E-02
  0.787805283969E-02
  0.123242421002E-01
  0.794090185988E-02
  0.114071431553E-01
  0.177175977150E-01
  0.287202156129E-02
  0.610481285505E-02
  0.557877069940E-02
  0.794260754869E-02
  0.120194180418E-01
  0.787545379162E-02
  0.570064668070E-02
  0.105548931296E-01
  0.895768222472E-02
  0.923462658115E-02
  0.782134216574E-02
  0.951553074032E-02
  0.800444763394E-02
  0.516646889729E-02
  0.106021807756E-01
  0.954591049814E-02
  0.765025478519E-02
  0.905913069800E-02
  0.964037376029E-02
  0.109735589033E-01
  0.282382367201E-02
  0.646394337329E-02
  0.241534498364E-01
  0.264111971133E-01
 -0.423091560662E-01
  0.405047931045E-02
 -0.140951122791E-01
  0.649185977613E-01
  0.236357975902E+00
  0.230628163068E+00
  0.241240206314E+00
  0.252355564511E+00
  0.246410528242E+00
  0.258941819268E+00
  0.253416347889E+00
  0.266927275579E+00
  0.262977428537E+00
  0.278558848018E+00
  0.275509189019E+00
  0.292356596419E+00
  0.290495035302E+00
  0.309425783824E+00
  0.307920980693E+00
  0.330483144194E+00
  0.331523214975E+00
  0.355144284886E+00
  0.362838662326E+00
  0.385509640772E+00
  0.407572329660E+00
  0.429891237727E+00
  0.509817334379E+00
  0.526599573831E+00
  0.526599572036E+00
  0.509817291385E+00
  0.429891299806E+00
  0.407572350450E+00
  0.385509535047E+00
  0.362838643334E+00
  0.355144325625E+00
  0.331523214712E+00
  0.330483164964E+00
  0.307920980101E+00
  0.309425719023E+00
  0.290495041731E+00
  0.292356617302E+00
  0.275509185267E+00
  0.278558872768E+00
  0.262977447676E+00
  0.266927238172E+00
  0.253416360639E+00
  0.258941822389E+00
  0.246410511952E+00
  0.252355567443E+00
  0.241240213942E+00
  0.230628164216E+00
  0.236357967489E+00
  0.649186080462E-01
 -0.140951178903E-01
  0.405047861461E-02
 -0.423091628148E-01
  0.264111992684E-01
  0.241534575586E-01
  0.646394799876E-02
  0.282383235534E-02
  0.109735579428E-01
  0.964037510379E-02
  0.905913171957E-02
  0.765025575890E-02
  0.954591324520E-02
  0.106021703550E-01
  0.516645761614E-02
  0.800442792906E-02
  0.951550035503E-02
  0.782136698572E-02
  0.923467413104E-02
  0.895767780267E-02
  0.105548627563E-01
  0.570067020562E-02
  0.787549294614E-02
  0.120194704236E-01
  0.794263648177E-02
  0.557872198376E-02
  0.177167561694E-01
  0.738484046430E-02
  0.191412784901E-02
  0.287411296357E-02
  0.135251873798E-01
  0.557267008853E-02
  0.327065292017E-02
  0.120194537261E-01
  0.109698518298E-01
  0.569982166443E-02
  0.877275799803E-02
  0.895446691972E-02
  0.865298114378E-02
  0.781664150321E-02
  0.922794300999E-02
  0.799752805924E-02
  0.569929434816E-02
  0.106023470508E-01
  0.943816749347E-02
  0.765146793163E-02
  0.694917998873E-02
  0.963663385712E-02
  0.173113371725E-02
  0.280905835538E-02
  0.157585654660E-01
  0.240686916480E-01
 -0.552206524212E-01
 -0.438817860629E-01
  0.644735900426E-01
 -0.852834149453E-02
  0.229204319118E+00
  0.217319298949E+00
  0.251902669080E+00
  0.259724440858E+00
  0.258693437899E+00
  0.270145688336E+00
  0.266735901836E+00
  0.280204828247E+00
  0.278406930503E+00
  0.292288091740E+00
  0.292274228717E+00
  0.307784581763E+00
  0.309419428667E+00
  0.325897613226E+00
  0.330670917741E+00
  0.347757817035E+00
  0.355558801691E+00
  0.374213966608E+00
  0.386063650662E+00
  0.406932806146E+00
  0.430528869982E+00
  0.450194362386E+00
  0.527469223293E+00
  0.539373171592E+00
  0.539373275446E+00
  0.527469229102E+00
  0.450194300444E+00
  0.430528929753E+00
  0.406932670857E+00
  0.386063539693E+00
  0.374214016694E+00
  0.355558842177E+00
  0.347757739036E+00
  0.330670932356E+00
  0.325897662981E+00
  0.309419362951E+00
  0.307784571918E+00
  0.292274250396E+00
  0.292288138628E+00
  0.278406955917E+00
  0.280204816666E+00
  0.266735866006E+00
  0.270145678007E+00
  0.258693443975E+00
  0.259724452334E+00
  0.251902674085E+00
  0.217319324687E+00
  0.229204323250E+00
 -0.852834791978E-02
  0.644736003765E-01
 -0.438817941946E-01
 -0.552206588904E-01
  0.240686992122E-01
  0.157585649706E-01
  0.280906707558E-02
  0.173114134968E-02
  0.963663520830E-02
  0.694917352276E-02
  0.765146887738E-02
  0.943816799272E-02
  0.106023366499E-01
  0.569928469120E-02
  0.799750826916E-02
  0.922794847989E-02
  0.781666638229E-02
  0.865298774662E-02
  0.895446248352E-02
  0.877280538381E-02
  0.569984521061E-02
  0.109699195377E-01
  0.120195060834E-01
  0.327057282018E-02
  0.557262135494E-02
  0.135251372757E-01
  0.739475079530E-02
  0.125981881503E-01
  0.280240986457E-02
  0.190935118688E-02
  0.264248121090E-02
  0.135253614842E-01
  0.136699993263E-01
  0.326977411067E-02
  0.260278342123E-02
  0.109697997565E-01
  0.955724454121E-02
  0.877649834682E-02
  0.855476450208E-02
  0.865631977568E-02
  0.613092778247E-02
  0.922886583388E-02
  0.782762382446E-02
  0.570678293128E-02
  0.110920838429E-01
  0.943736385674E-02
  0.469230894789E-02
  0.694664934590E-02
 -0.131148173601E-02
  0.170458918919E-02
  0.981341459689E-02
  0.156682066120E-01
 -0.593427914892E-01
 -0.554191035805E-01
 -0.782337439276E-02
 -0.140668363664E+00
  0.216779048796E+00
  0.219704192996E+00
  0.259281597437E+00
  0.264865899022E+00
  0.270007100338E+00
  0.280927303443E+00
  0.280178865436E+00
  0.292534944248E+00
  0.292303392679E+00
  0.305601329626E+00
  0.307865071527E+00
  0.321749846252E+00
  0.326054338809E+00
  0.340866272522E+00
  0.347968855637E+00
  0.363313454740E+00
  0.374532276017E+00
  0.389950216512E+00
  0.407486832348E+00
  0.422701186419E+00
  0.451022137515E+00
  0.464933470646E+00
  0.540530718771E+00
  0.552232166461E+00
  0.552232337132E+00
  0.540530828853E+00
  0.464933339456E+00
  0.451022070103E+00
  0.422701077658E+00
  0.407486698711E+00
  0.389950237379E+00
  0.374532327688E+00
  0.363313486064E+00
  0.347968783433E+00
  0.340866317737E+00
  0.326054397439E+00
  0.321749844354E+00
  0.307865064244E+00
  0.305601344541E+00
  0.292303441616E+00
  0.292534884308E+00
  0.280178851928E+00
  0.280927350127E+00
  0.270007090197E+00
  0.264865916288E+00
  0.259281610219E+00
  0.219704178575E+00
  0.216779073525E+00
 -0.140668365903E+00
 -0.782337996917E-02
 -0.554191093306E-01
 -0.593427949008E-01
  0.156682060485E-01
  0.981341709101E-02
  0.170459672764E-02
 -0.131148294018E-02
  0.694664289504E-02
  0.469230791631E-02
  0.943736434276E-02
  0.110920814778E-01
  0.570677332378E-02
  0.782760913281E-02
  0.922887128528E-02
  0.613094147698E-02
  0.865632639144E-02
  0.855477611589E-02
  0.877654565298E-02
  0.955724987317E-02
  0.109698674929E-01
  0.260286919353E-02
  0.326969397855E-02
  0.136699206814E-01
  0.135253113899E-01
  0.264248644997E-02
  0.125928163987E-01
  0.105420302491E-01
  0.513108078395E-02
  0.280589587307E-02
  0.117238744972E-01
  0.263763125545E-02
  0.235307518677E-02
  0.136701377852E-01
  0.125670016486E-01
  0.259891875459E-02
  0.333304594120E-02
  0.955669956761E-02
  0.408314241116E-02
  0.855173603097E-02
  0.984120612457E-02
  0.613081034234E-02
  0.115958084032E-01
  0.782000542247E-02
  0.586194908844E-02
  0.110918362335E-01
  0.439394308583E-02
  0.468795096564E-02
 -0.441987321439E-02
 -0.134693348845E-02
  0.524765565293E-02
  0.974796951224E-02
 -0.624907708308E-01
 -0.594403185671E-01
 -0.136319527199E+00
 -0.175483489010E+00
  0.214120728237E+00
  0.116340103660E+00
  0.264552985255E+00
  0.271615389947E+00
  0.280825723985E+00
  0.290510898252E+00
  0.292576149237E+00
  0.303842031713E+00
  0.305734985616E+00
  0.318576998180E+00
  0.321903187233E+00
  0.334579354625E+00
  0.341095155413E+00
  0.354382168195E+00
  0.363610544883E+00
  0.377401495804E+00
  0.390296670745E+00
  0.403902596535E+00
  0.423114863696E+00
  0.436411564538E+00
  0.465407231624E+00
  0.477529556578E+00
  0.553041168892E+00
  0.561195127693E+00
  0.561195101185E+00
  0.553041324537E+00
  0.477529553822E+00
  0.465407091642E+00
  0.436411484692E+00
  0.423114752167E+00
  0.403902685716E+00
  0.390296691924E+00
  0.377401542658E+00
  0.363610578632E+00
  0.354382232246E+00
  0.341095198872E+00
  0.334579323264E+00
  0.321903182835E+00
  0.318577031051E+00
  0.305734999163E+00
  0.303841978240E+00
  0.292576090235E+00
  0.290510903120E+00
  0.280825771685E+00
  0.271615401348E+00
  0.264552999974E+00
  0.116340070926E+00
  0.214120711212E+00
 -0.175483483365E+00
 -0.136319529202E+00
 -0.594403214038E-01
 -0.624907693484E-01
  0.974797206050E-02
  0.524765696079E-02
 -0.134693470926E-02
 -0.441987729500E-02
  0.468794994828E-02
  0.439394105612E-02
  0.110918338729E-01
  0.586194983382E-02
  0.781999072346E-02
  0.115958004728E-01
  0.613082403904E-02
  0.984118902036E-02
  0.855174770910E-02
  0.408320038427E-02
  0.955670489986E-02
  0.333298491649E-02
  0.259900442307E-02
  0.125670643275E-01
  0.136700591364E-01
  0.235312015601E-02
  0.263763650815E-02
  0.117238887365E-01
  0.105488154532E-01
  0.982481932193E-02
  0.618246169170E-02
  0.512434579727E-02
  0.634692579440E-03
  0.117249742611E-01
  0.143586618377E-01
  0.235147785316E-02
 -0.203522759943E-02
  0.125648246417E-01
  0.139586544577E-01
  0.333701315056E-02
  0.612384855210E-02
  0.406838524381E-02
  0.500832089547E-02
  0.984194251386E-02
  0.820851505626E-02
  0.115963702119E-01
  0.481596350594E-02
  0.586537003467E-02
  0.585792461430E-02
  0.439467453048E-02
 -0.741677784472E-02
 -0.444981830376E-02
  0.111457408843E-02
  0.519679483645E-02
 -0.733598145652E-01
 -0.633026673075E-01
 -0.175032249731E+00
 -0.158907363086E+00
  0.112945559637E+00
  0.972037304607E-02
  0.269633457598E+00
  0.250707934621E+00
  0.290289494068E+00
  0.296266518559E+00
  0.303951722627E+00
  0.314946599091E+00
  0.318785950300E+00
  0.330101898017E+00
  0.334846961885E+00
  0.347745777075E+00
  0.354638566009E+00
  0.366778694573E+00
  0.377719724674E+00
  0.389930176771E+00
  0.404273958309E+00
  0.416799724457E+00
  0.436819167396E+00
  0.448707702363E+00
  0.477983979962E+00
  0.488682036069E+00
  0.561785285020E+00
  0.568562233921E+00
  0.568562199890E+00
  0.561785257670E+00
  0.488682315163E+00
  0.477984003277E+00
  0.448707721428E+00
  0.436819106970E+00
  0.416799725706E+00
  0.404274058137E+00
  0.389930215901E+00
  0.377719776777E+00
  0.366778636187E+00
  0.354638627240E+00
  0.347745760713E+00
  0.334846927729E+00
  0.330101835620E+00
  0.318785976805E+00
  0.314946589259E+00
  0.303951665131E+00
  0.296266560288E+00
  0.290289497468E+00
  0.250707952401E+00
  0.269633470529E+00
  0.972037250022E-02
  0.112945529908E+00
 -0.158907414739E+00
 -0.175032244773E+00
 -0.633026656845E-01
 -0.733598121665E-01
  0.519679613878E-02
  0.111456931086E-02
 -0.444982233106E-02
 -0.741677289433E-02
  0.439467247255E-02
  0.585791174925E-02
  0.586537083672E-02
  0.481597051621E-02
  0.115963622716E-01
  0.820850790939E-02
  0.984192536194E-02
  0.500835534249E-02
  0.406844341552E-02
  0.612381368987E-02
  0.333695217533E-02
  0.139586138913E-01
  0.125648873513E-01
 -0.203512192330E-02
  0.235152281799E-02
  0.143587107493E-01
  0.117249884848E-01
  0.634663282565E-03
  0.981895740722E-02
  0.105975014582E-01
  0.108341071864E-02
  0.618750877090E-02
  0.147737815935E-01
  0.625010549699E-03
  0.554420961183E-03
  0.143584097991E-01
  0.109001285720E-01
 -0.204380646142E-02
  0.189437248762E-01
  0.139068332955E-01
 -0.696156223790E-02
  0.613239080943E-02
  0.671264651912E-02
  0.502294909458E-02
  0.563941556417E-02
  0.820970337162E-02
  0.661682561707E-02
  0.481985748462E-02
  0.402095308731E-02
  0.586469669914E-02
 -0.102592041011E-01
 -0.744615618566E-02
 -0.356473948728E-02
  0.105210151126E-02
 -0.884172470290E-01
 -0.746896815978E-01
 -0.159527913950E+00
 -0.137178585689E+00
  0.948762520087E-02
 -0.101931615542E-01
  0.244475516597E+00
  0.144873880062E+00
  0.296142620864E+00
  0.304408311286E+00
  0.314996715837E+00
  0.324183218744E+00
  0.330279098579E+00
  0.340799918375E+00
  0.348058016631E+00
  0.359141299779E+00
  0.367136603568E+00
  0.379512238313E+00
  0.390256052186E+00
  0.402315016448E+00
  0.417132273057E+00
  0.427817458501E+00
  0.449108642541E+00
  0.459516456033E+00
  0.489140999239E+00
  0.498893712469E+00
  0.569110157917E+00
  0.575179410152E+00
  0.575179403124E+00
  0.569110126078E+00
  0.498893750220E+00
  0.489141268320E+00
  0.459516661939E+00
  0.449108649984E+00
  0.427817434905E+00
  0.417132259557E+00
  0.402314918879E+00
  0.390256076454E+00
  0.379512250575E+00
  0.367136536999E+00
  0.359141257663E+00
  0.348057998331E+00
  0.340799897592E+00
  0.330279035981E+00
  0.324183234248E+00
  0.314996712744E+00
  0.304408304616E+00
  0.296142662445E+00
  0.144873889647E+00
  0.244475530782E+00
 -0.101931024283E-01
  0.948762493746E-02
 -0.137178628314E+00
 -0.159527965397E+00
 -0.746896799669E-01
 -0.884172529940E-01
  0.105209666643E-02
 -0.356474286039E-02
 -0.744615120787E-02
 -0.102592023521E-01
  0.586468380670E-02
  0.402093476454E-02
  0.481986447249E-02
  0.661684599874E-02
  0.820969622199E-02
  0.563942123563E-02
  0.502298333272E-02
  0.671262267732E-02
  0.613235603891E-02
 -0.696155428943E-02
  0.139067927413E-01
  0.189437837247E-01
 -0.204370048618E-02
  0.109001509197E-01
  0.143584587187E-01
  0.554388193727E-03
  0.624981178041E-03
  0.147737862779E-01
  0.106029627907E-01
  0.228357664469E-02
  0.789964575320E-02
  0.107075240087E-02
 -0.322925918272E-02
  0.147747829921E-01
  0.115316635249E-01
  0.562131567733E-03
  0.287319828418E-02
  0.108997980706E-01
  0.793394790222E-02
  0.189631961243E-01
  0.111701355278E-02
 -0.692977328412E-02