# vtk DataFile Version 3.0
MachLine results file. Generated by MachLine, USU AeroLab (c) 2022.
ASCII
DATASET POLYDATA
POINTS                3023 float
  0.000000000000E+00  0.000000000000E+00  0.000000000000E+00
  0.895597194070E-03  0.000000000000E+00 -0.199021598680E-03
  0.895597194070E-03  0.000000000000E+00  0.199021598680E-03
  0.201978017340E-02  0.000000000000E+00 -0.448840038540E-03
  0.201978017340E-02  0.000000000000E+00  0.448840038540E-03
  0.342194336150E-02  0.000000000000E+00 -0.760431858110E-03
  0.342194336150E-02  0.000000000000E+00  0.760431858110E-03
  0.515701313740E-02  0.000000000000E+00 -0.114600291940E-02
  0.515701313740E-02  0.000000000000E+00  0.114600291940E-02
  0.728308852790E-02  0.000000000000E+00 -0.161846411730E-02
  0.728308852790E-02  0.000000000000E+00  0.161846411730E-02
  0.827775178670E-02  0.832120786070E-02  0.000000000000E+00
  0.827775178670E-02 -0.832120786070E-02  0.000000000000E+00
  0.914115697030E-02  0.832120786070E-02 -0.191867818590E-03
  0.914115697030E-02  0.832120786070E-02  0.191867818590E-03
  0.914115697030E-02 -0.832120786070E-02 -0.191867818590E-03
  0.914115697030E-02 -0.832120786070E-02  0.191867818590E-03
  0.985721679120E-02  0.000000000000E+00 -0.219049262030E-02
  0.985721679120E-02  0.000000000000E+00  0.219049262030E-02
  0.102249314820E-01  0.832120786070E-02 -0.432706598980E-03
  0.102249314820E-01  0.832120786070E-02  0.432706598980E-03
  0.102249314820E-01 -0.832120786070E-02 -0.432706598980E-03
  0.102249314820E-01 -0.832120786070E-02  0.432706598980E-03
  0.115766942760E-01  0.832120786070E-02 -0.733098330870E-03
  0.115766942760E-01  0.832120786070E-02  0.733098330870E-03
  0.115766942760E-01 -0.832120786070E-02 -0.733098330870E-03
  0.115766942760E-01 -0.832120786070E-02  0.733098330870E-03
  0.129289354540E-01  0.000000000000E+00 -0.287309676740E-02
  0.129289354540E-01  0.000000000000E+00  0.287309676740E-02
  0.132493974150E-01  0.832120786070E-02 -0.110481013970E-02
  0.132493974150E-01  0.832120786070E-02  0.110481013970E-02
  0.132493974150E-01 -0.832120786070E-02 -0.110481013970E-02
  0.132493974150E-01 -0.832120786070E-02  0.110481013970E-02
  0.152990515740E-01  0.832120786070E-02 -0.156028884160E-02
  0.152990515740E-01  0.832120786070E-02  0.156028884160E-02
  0.152990515740E-01 -0.832120786070E-02 -0.156028884160E-02
  0.152990515740E-01 -0.832120786070E-02  0.156028884160E-02
  0.165316099180E-01  0.000000000000E+00 -0.367369109300E-02
  0.165316099180E-01  0.000000000000E+00  0.367369109300E-02
  0.172182429130E-01  0.173086342730E-01  0.000000000000E+00
  0.172182429130E-01 -0.173086342730E-01  0.000000000000E+00
  0.177806534600E-01  0.832120786070E-02 -0.211175592730E-02
  0.177806534600E-01  0.832120786070E-02  0.211175592730E-02
  0.177806534600E-01 -0.832120786070E-02 -0.211175592730E-02
  0.177806534600E-01 -0.832120786070E-02  0.211175592730E-02
  0.180468787060E-01  0.173086342730E-01 -0.184141287390E-03
  0.180468787060E-01  0.173086342730E-01  0.184141287390E-03
  0.180468787060E-01 -0.173086342730E-01 -0.184141287390E-03
  0.180468787060E-01 -0.173086342730E-01  0.184141287390E-03
  0.190870095390E-01  0.173086342730E-01 -0.415281472340E-03
  0.190870095390E-01  0.173086342730E-01  0.415281472340E-03
  0.190870095390E-01 -0.173086342730E-01 -0.415281472340E-03
  0.190870095390E-01 -0.173086342730E-01  0.415281472340E-03
  0.203843367450E-01  0.173086342730E-01 -0.703576407050E-03
  0.203843367450E-01  0.173086342730E-01  0.703576407050E-03
  0.203843367450E-01 -0.173086342730E-01 -0.703576407050E-03
  0.203843367450E-01 -0.173086342730E-01  0.703576407050E-03
  0.206723337860E-01  0.000000000000E+00 -0.459385195240E-02
  0.206723337860E-01  0.000000000000E+00  0.459385195240E-02
  0.207419599860E-01  0.832120786070E-02 -0.276982404430E-02
  0.207419599860E-01  0.832120786070E-02  0.276982404430E-02
  0.207419599860E-01 -0.832120786070E-02 -0.276982404430E-02
  0.207419599860E-01 -0.832120786070E-02  0.276982404430E-02
  0.219896800060E-01  0.173086342730E-01 -0.106031935400E-02
  0.219896800060E-01  0.173086342730E-01  0.106031935400E-02
  0.219896800060E-01 -0.173086342730E-01 -0.106031935400E-02
  0.219896800060E-01 -0.173086342730E-01  0.106031935400E-02
  0.239567944400E-01  0.173086342730E-01 -0.149745589490E-02
  0.239567944400E-01  0.173086342730E-01  0.149745589490E-02
  0.239567944400E-01 -0.173086342730E-01 -0.149745589490E-02
  0.239567944400E-01 -0.173086342730E-01  0.149745589490E-02
  0.242151372450E-01  0.832120786070E-02 -0.354164121300E-02
  0.242151372450E-01  0.832120786070E-02  0.354164121300E-02
  0.242151372450E-01 -0.832120786070E-02 -0.354164121300E-02
  0.242151372450E-01 -0.832120786070E-02  0.354164121300E-02
  0.253221652780E-01  0.000000000000E+00 -0.562714783960E-02
  0.253221652780E-01  0.000000000000E+00  0.562714783960E-02
  0.263384620350E-01  0.173086342730E-01 -0.202671536050E-02
  0.263384620350E-01  0.173086342730E-01  0.202671536050E-02
  0.263384620350E-01 -0.173086342730E-01 -0.202671536050E-02
  0.263384620350E-01 -0.173086342730E-01  0.202671536050E-02
  0.267917395800E-01  0.269323893420E-01  0.000000000000E+00
  0.267917395800E-01 -0.269323893420E-01  0.000000000000E+00
  0.275831442370E-01  0.269323893420E-01 -0.175867701560E-03
  0.275831442370E-01  0.269323893420E-01  0.175867701560E-03
  0.275831442370E-01 -0.269323893420E-01 -0.175867701560E-03
  0.275831442370E-01 -0.269323893420E-01  0.175867701560E-03
  0.282070238600E-01  0.832120786070E-02 -0.442872712740E-02
  0.282070238600E-01  0.832120786070E-02  0.442872712740E-02
  0.282070238600E-01 -0.832120786070E-02 -0.442872712740E-02
  0.282070238600E-01 -0.832120786070E-02  0.442872712740E-02
  0.285765413250E-01  0.269323893420E-01 -0.396622610160E-03
  0.285765413250E-01  0.269323893420E-01  0.396622610160E-03
  0.285765413250E-01 -0.269323893420E-01 -0.396622610160E-03
  0.285765413250E-01 -0.269323893420E-01  0.396622610160E-03
  0.291805165300E-01  0.173086342730E-01 -0.265828302590E-02
  0.291805165300E-01  0.173086342730E-01  0.265828302590E-02
  0.291805165300E-01 -0.173086342730E-01 -0.265828302590E-02
  0.291805165300E-01 -0.173086342730E-01  0.265828302590E-02
  0.298155787900E-01  0.269323893420E-01 -0.671964269040E-03
  0.298155787900E-01  0.269323893420E-01  0.671964269040E-03
  0.298155787900E-01 -0.269323893420E-01 -0.671964269040E-03
  0.298155787900E-01 -0.269323893420E-01  0.671964269040E-03
  0.304094174850E-01  0.000000000000E+00 -0.675764833000E-02
  0.304094174850E-01  0.000000000000E+00  0.675764833000E-02
  0.313487929520E-01  0.269323893420E-01 -0.101267852710E-02
  0.313487929520E-01  0.269323893420E-01  0.101267852710E-02
  0.313487929520E-01 -0.269323893420E-01 -0.101267852710E-02
  0.313487929520E-01 -0.269323893420E-01  0.101267852710E-02
  0.325138286850E-01  0.173086342730E-01 -0.339901906030E-02
  0.325138286850E-01  0.173086342730E-01  0.339901906030E-02
  0.325138286850E-01 -0.173086342730E-01 -0.339901906030E-02
  0.325138286850E-01 -0.173086342730E-01  0.339901906030E-02
  0.326897183580E-01  0.832120786070E-02 -0.542488146020E-02
  0.326897183580E-01  0.832120786070E-02  0.542488146020E-02
  0.326897183580E-01 -0.832120786070E-02 -0.542488146020E-02
  0.326897183580E-01 -0.832120786070E-02  0.542488146020E-02
  0.332275236760E-01  0.269323893420E-01 -0.143017424370E-02
  0.332275236760E-01  0.269323893420E-01  0.143017424370E-02
  0.332275236760E-01 -0.269323893420E-01 -0.143017424370E-02
  0.332275236760E-01 -0.269323893420E-01  0.143017424370E-02
  0.355021814230E-01  0.269323893420E-01 -0.193565374290E-02
  0.355021814230E-01  0.269323893420E-01  0.193565374290E-02
  0.355021814230E-01 -0.269323893420E-01 -0.193565374290E-02
  0.355021814230E-01 -0.269323893420E-01  0.193565374290E-02
  0.358190159330E-01  0.000000000000E+00 -0.795978131850E-02
  0.358190159330E-01  0.000000000000E+00  0.795978131850E-02
  0.363449617310E-01  0.173086342730E-01 -0.425038195950E-02
  0.363449617310E-01  0.173086342730E-01  0.425038195950E-02
  0.363449617310E-01 -0.173086342730E-01 -0.425038195950E-02
  0.363449617310E-01 -0.173086342730E-01  0.425038195950E-02
  0.369489973750E-01  0.371429701360E-01  0.000000000000E+00
  0.369489973750E-01 -0.371429701360E-01  0.000000000000E+00
  0.375941105940E-01  0.832120786070E-02 -0.651474640160E-02
  0.375941105940E-01  0.832120786070E-02  0.651474640160E-02
  0.375941105940E-01 -0.832120786070E-02 -0.651474640160E-02
  0.375941105940E-01 -0.832120786070E-02  0.651474640160E-02
  0.377009006610E-01  0.371429701360E-01 -0.167089619000E-03
  0.377009006610E-01  0.371429701360E-01  0.167089619000E-03
  0.377009006610E-01 -0.371429701360E-01 -0.167089619000E-03
  0.377009006610E-01 -0.371429701360E-01  0.167089619000E-03
  0.382165405910E-01  0.269323893420E-01 -0.253884466910E-02
  0.382165405910E-01  0.269323893420E-01  0.253884466910E-02
  0.382165405910E-01 -0.269323893420E-01 -0.253884466910E-02
  0.382165405910E-01 -0.269323893420E-01  0.253884466910E-02
  0.386447143320E-01  0.371429701360E-01 -0.376825990390E-03
  0.386447143320E-01  0.371429701360E-01  0.376825990390E-03
  0.386447143320E-01 -0.371429701360E-01 -0.376825990390E-03
  0.386447143320E-01 -0.371429701360E-01  0.376825990390E-03
  0.398219077340E-01  0.371429701360E-01 -0.638424524220E-03
  0.398219077340E-01  0.371429701360E-01  0.638424524220E-03
  0.398219077340E-01 -0.371429701360E-01 -0.638424524220E-03
  0.398219077340E-01 -0.371429701360E-01  0.638424524220E-03
  0.406471377910E-01  0.173086342730E-01 -0.520642108390E-02
  0.406471377910E-01  0.173086342730E-01  0.520642108390E-02
  0.406471377910E-01 -0.173086342730E-01 -0.520642108390E-02
  0.406471377910E-01 -0.173086342730E-01  0.520642108390E-02
  0.412785945950E-01  0.371429701360E-01 -0.962132715490E-03
  0.412785945950E-01  0.371429701360E-01  0.962132715490E-03
  0.412785945950E-01 -0.371429701360E-01 -0.962132715490E-03
  0.412785945950E-01 -0.371429701360E-01  0.962132715490E-03
[...]
CELL_DATA                5928
SCALARS C_p_ise float 1
LOOKUP_TABLE default
  0.726981507990E-01
 -0.264861234358E+00
 -0.289782163989E+00
 -0.324793425243E+00
 -0.307639071831E+00
 -0.338485257415E+00
  0.911560757314E-01
  0.133985685402E+00
 -0.309621002451E+00
 -0.342686076389E+00
 -0.581568215085E-01
 -0.369271666090E-01
 -0.317015383156E+00
 -0.329613684846E+00
 -0.158792467499E+00
 -0.165058003674E+00
 -0.163559985207E+00
 -0.153186241759E+00
 -0.289153524601E+00
 -0.284028695554E+00
 -0.293840185440E+00
 -0.298556038575E+00
 -0.268723599036E+00
 -0.274219026007E+00
 -0.395614470909E+00
 -0.337527651892E+00
  0.668490616494E-02
  0.666404930866E-02
  0.669341294682E-02
  0.684896206797E-02
  0.712331943730E-02
  0.682625280320E-02
  0.786549314761E-02
  0.755105847164E-02
  0.778549471687E-02
  0.691896150917E-02
  0.672907509926E-02
  0.642482653280E-02
  0.666313648764E-02
  0.655587773087E-02
  0.654824918651E-02
  0.701624805069E-02
  0.647481222463E-02
  0.814519594988E-02
  0.685036030474E-02
  0.104969622481E-01
  0.704172571847E-02
  0.153642753936E-01
  0.725561405789E-02
  0.258965889035E-01
  0.835948164167E-02
  0.882534893021E-01
  0.882534731454E-01
  0.835954301125E-02
  0.258965817696E-01
  0.725561811863E-02
  0.153642632416E-01
  0.704171734290E-02
  0.104969546099E-01
  0.685034026104E-02
  0.814518821518E-02
  0.647479253483E-02
  0.701624002096E-02
  0.654823869924E-02
  0.655586956007E-02
  0.666312585567E-02
  0.642481312473E-02
  0.672906759347E-02
  0.691896055826E-02
  0.778548996139E-02
  0.755106578128E-02
  0.786549509721E-02
  0.682626056657E-02
  0.712331967347E-02
  0.684896962291E-02
  0.669341577959E-02
  0.666405684124E-02
  0.668491316943E-02
 -0.337527649201E+00
 -0.395614468590E+00
 -0.274219024677E+00
 -0.268723598125E+00
 -0.298556035824E+00
 -0.293840185545E+00
 -0.284028692337E+00
 -0.289153519815E+00
 -0.153186250686E+00
 -0.163559986413E+00
 -0.165058020492E+00
 -0.158792477796E+00
 -0.329613672554E+00
 -0.317015384687E+00
 -0.369271875252E-01
 -0.581568101226E-01
 -0.342686042169E+00
 -0.309620999237E+00
  0.133985736713E+00
  0.911561743883E-01
 -0.338485187641E+00
 -0.307639057606E+00
 -0.324793460516E+00
 -0.289782203180E+00
 -0.264861012153E+00
  0.731458509244E-01
 -0.283165423985E+00
  0.724803004293E-01
  0.163941203218E-01
 -0.289795483384E+00
 -0.312934468962E+00
 -0.307819468244E+00
 -0.756253483816E-01
  0.868660121883E-01
 -0.193606566891E+00
 -0.309799492255E+00
 -0.178015134699E+00
 -0.626694934676E-01
 -0.219393071907E+00
 -0.317110298836E+00
 -0.154093941946E+00
 -0.158253111544E+00
 -0.164057647091E+00
 -0.162683630991E+00
 -0.287989268257E+00
 -0.289327343202E+00
 -0.296809631772E+00
 -0.294001246087E+00
 -0.276975680373E+00
 -0.269242787430E+00
 -0.459708943593E+00
 -0.416549316714E+00
  0.667814675702E-02
  0.632152968746E-02
  0.686888347962E-02
  0.661440152559E-02
  0.684531490164E-02
  0.646801612834E-02
  0.757076442017E-02
  0.702612159875E-02
  0.693500013370E-02
  0.799672427902E-02
  0.643000528541E-02
  0.793956218342E-02
  0.654999117860E-02
  0.925350709791E-02
  0.699667869077E-02
  0.113611140765E-01
  0.810997778611E-02
  0.147093405161E-01
  0.104436379946E-01
  0.200385254091E-01
  0.152948077645E-01
  0.296141482222E-01
  0.258225351101E-01
  0.481154325476E-01
  0.885227968596E-01
  0.128166569840E+00
  0.128166552319E+00
  0.885227806544E-01
  0.481154136423E-01
  0.258225281967E-01
  0.296141173603E-01
  0.152947957596E-01
  0.200385252891E-01
  0.104436305213E-01
  0.147093326783E-01
  0.810997015130E-02
  0.113611014824E-01
  0.699667067482E-02
  0.925350522772E-02
  0.654998304298E-02
  0.793955796056E-02
  0.642999195493E-02
  0.799672186310E-02
  0.693499929815E-02
  0.702612840957E-02
  0.757077181054E-02
  0.646802854054E-02
  0.684532273217E-02
  0.661440910987E-02
  0.686889101417E-02
  0.632154017086E-02
  0.667815424234E-02
 -0.416549314627E+00
 -0.459708943650E+00
 -0.269242786381E+00
 -0.276975679061E+00
 -0.294001246190E+00
 -0.296809629017E+00
 -0.289327338450E+00
 -0.287989267056E+00
 -0.162683632725E+00
 -0.164057647393E+00
 -0.158253122655E+00
 -0.154093959731E+00
 -0.317110300211E+00
 -0.219393070953E+00
 -0.626694825240E-01
 -0.178015117716E+00
 -0.309799489027E+00
 -0.193606572166E+00
  0.868661111971E-01
 -0.756252872088E-01
 -0.307819453550E+00
 -0.312934499047E+00
 -0.289795522007E+00
  0.163941389101E-01
  0.729520321185E-01
 -0.282268818338E+00
  0.888306940511E-01
 -0.286645726563E+00
 -0.378742270984E+00
  0.258966865326E-01
  0.908436532171E-01
 -0.318102092270E+00
 -0.332102646585E+00
 -0.756127858941E-01
 -0.179652174655E+00
 -0.187905214912E+00
 -0.151604922923E+00
 -0.178010242575E+00
 -0.233385934761E+00
 -0.212649506825E+00
 -0.135317764092E+00
 -0.154152629052E+00
 -0.170467825408E+00
 -0.163963948493E+00
 -0.292356459775E+00
 -0.288349896421E+00
 -0.308612411380E+00
 -0.298086074762E+00
 -0.289933164454E+00
 -0.279039073687E+00
 -0.513853383518E+00
 -0.479826409785E+00
  0.632744943423E-02
  0.608885467136E-02
  0.661986919398E-02
  0.675342068851E-02
  0.646849199628E-02
  0.732230603435E-02
  0.701420119474E-02
  0.894874940526E-02
  0.797744197981E-02
  0.990869132740E-02
  0.791697609850E-02
  0.110544027572E-01
  0.922650211628E-02
  0.135240203345E-01
  0.113316979187E-01
  0.170803532925E-01
  0.146802813213E-01
  0.222606604725E-01
  0.200139121990E-01
  0.300886585244E-01
  0.296033275688E-01
  0.431666515519E-01
  0.481449034373E-01
  0.670416757193E-01
  0.128418845859E+00
  0.158435084974E+00
  0.158435053477E+00
  0.128418828188E+00
  0.670416621211E-01
  0.481448845010E-01
  0.431666134380E-01
  0.296032967112E-01
  0.300886408401E-01
  0.200139120778E-01
  0.222606456665E-01
  0.146802734182E-01
  0.170803703570E-01
  0.113316854303E-01
  0.135240304054E-01
  0.922650043325E-02
  0.110543972212E-01
  0.791697200411E-02
  0.990868318159E-02
  0.797743957927E-02
  0.894875555081E-02
  0.701420802422E-02
  0.732231974185E-02
  0.646850444441E-02
  0.675342417991E-02
  0.661987673235E-02
  0.608885974896E-02
  0.632745982234E-02
 -0.479826409896E+00
 -0.513853385851E+00
 -0.279039071835E+00
 -0.289933155635E+00
 -0.298086072142E+00
 -0.308612414385E+00
 -0.288349895109E+00
 -0.292356455850E+00
 -0.163963948771E+00
 -0.170467832620E+00
 -0.154152646859E+00
 -0.135317760880E+00
 -0.212649506919E+00
 -0.233385930741E+00
 -0.178010225480E+00
 -0.151604907694E+00
 -0.187905221243E+00
 -0.179652169911E+00
 -0.756127251881E-01
 -0.332102573579E+00
 -0.318102119575E+00
  0.908435508743E-01
  0.258966999359E-01
 -0.378742239007E+00
 -0.285751713715E+00
  0.896185115728E-01
  0.632204710441E-01
  0.882073633686E-01
 -0.549381436096E+00
 -0.380318287685E+00
  0.328634461749E+00
  0.914807876524E-01
 -0.336172343296E+00
 -0.327906929586E+00
 -0.155525874915E+00
 -0.179779305302E+00
 -0.135651608527E+00
 -0.151617150429E+00
 -0.247492363459E+00
 -0.233861247343E+00
 -0.130884977593E+00
 -0.135369043065E+00
 -0.234612048687E+00
 -0.174469336863E+00
 -0.253832668039E+00
 -0.293836706045E+00
 -0.303742326308E+00
 -0.309459012225E+00
 -0.316962827017E+00
 -0.292684660394E+00
 -0.560576750992E+00
 -0.531251649221E+00
  0.607997394193E-02
  0.669571986936E-02
  0.674041200617E-02
  0.784660444876E-02
  0.730753424091E-02
  0.861706039525E-02
  0.893949126948E-02
  0.125680960175E-01
  0.988583624326E-02
  0.123407112630E-01
  0.110359559077E-01
  0.149734536764E-01
  0.135064702986E-01
  0.185035472372E-01
  0.170652202480E-01
  0.233663380714E-01
  0.222500423752E-01
  0.301952084249E-01
  0.300865363712E-01
  0.401830376254E-01
  0.431809263440E-01
  0.562263433278E-01
  0.670925575824E-01
  0.844880238710E-01
  0.158666357582E+00
  0.183539661565E+00
  0.183539656239E+00
  0.158666326280E+00
  0.844879752908E-01
  0.670925439781E-01
  0.562262791569E-01
  0.431808880676E-01
  0.401830420230E-01
  0.300865187071E-01
  0.301952381880E-01
  0.222500279119E-01
  0.233663338779E-01
  0.170652375238E-01
  0.185035386819E-01
  0.135064802718E-01
  0.149734649364E-01
  0.110359503230E-01
  0.123407098824E-01
  0.988582811375E-02
  0.125680890388E-01
  0.893949736809E-02
  0.861706457985E-02
  0.730754783085E-02
  0.784661425869E-02
  0.674041542849E-02
  0.669572370571E-02
  0.607997897962E-02
 -0.531251652380E+00
 -0.560576750761E+00
 -0.292684652042E+00
 -0.316962822080E+00
 -0.309459015677E+00
 -0.303742333251E+00
 -0.293836702022E+00
 -0.253832671133E+00
 -0.174469342917E+00
 -0.234612040503E+00
 -0.135369039890E+00
 -0.130884967935E+00
 -0.233861243653E+00
 -0.247492351519E+00
 -0.151617135244E+00
 -0.135651605006E+00
 -0.179779300424E+00
 -0.155525873344E+00
 -0.327906858729E+00
 -0.336172351292E+00
  0.914806870436E-01
  0.328634363108E+00
 -0.380318254175E+00
 -0.549381407259E+00
  0.889949205200E-01
  0.630254333553E-01
  0.581231454861E-01
  0.623491713855E-01
  0.249193194143E+00
 -0.555945269557E+00
 -0.357085865788E+00
  0.335546858850E+00
 -0.340060170565E+00
 -0.336107161031E+00
 -0.185003680840E+00
 -0.155855936728E+00
 -0.104696368863E+00
 -0.135739540566E+00
 -0.243047888039E+00
 -0.247792284764E+00
 -0.144253036144E+00
 -0.131087506977E+00
 -0.217306223595E+00
 -0.234508708009E+00
 -0.260656592153E+00
 -0.249090930325E+00
 -0.334697193620E+00
 -0.306785482344E+00
 -0.390878182793E+00
 -0.334989776619E+00
 -0.576009546401E+00
 -0.575649127507E+00
  0.669079279482E-02
  0.903052476228E-02
  0.783266035028E-02
  0.105283029992E-01
  0.859229883220E-02
  0.999652081278E-02
  0.125617514051E-01
  0.171058270942E-01
  0.123182111441E-01
  0.147248338307E-01
  0.149615757299E-01
  0.194292819033E-01
  0.184943260224E-01
  0.239641095467E-01
  0.233610207428E-01
  0.300564186124E-01
  0.301957595978E-01
  0.384182389222E-01
  0.401930006782E-01
  0.503720622889E-01
  0.562530849092E-01
  0.690686357508E-01
  0.845498169412E-01
  0.100980180142E+00
  0.183752328803E+00
  0.205430338645E+00
  0.205430307471E+00
  0.183752323217E+00
  0.100980108904E+00
  0.845497679274E-01
  0.690686277446E-01
  0.562530208948E-01
  0.503721145496E-01
  0.401930056048E-01
  0.384182459266E-01
  0.301957895655E-01
  0.300563885213E-01
  0.233610163250E-01
  0.239640994363E-01
  0.184943173906E-01
  0.194292885016E-01
  0.149615870085E-01
  0.147248292094E-01
  0.123182096391E-01
  0.171058195705E-01
  0.125617442474E-01
  0.999652807852E-02
  0.859230298432E-02
  0.105283127264E-01
  0.783267020780E-02
  0.903052691246E-02
  0.669079661092E-02
 -0.575649125842E+00
 -0.576009547352E+00
 -0.334989769270E+00
 -0.390878182996E+00
 -0.306785487329E+00
 -0.334697197338E+00
 -0.249090933838E+00
 -0.260656576703E+00
 -0.234508699771E+00
 -0.217306209270E+00
 -0.131087497376E+00
 -0.144253015870E+00
 -0.247792272993E+00
 -0.243047885826E+00
 -0.135739537095E+00
 -0.104696376925E+00
 -0.155855935023E+00
 -0.185003754275E+00
 -0.336107169146E+00
 -0.340060133893E+00
  0.335546754997E+00
 -0.357085931662E+00
 -0.555945242953E+00
  0.249193296946E+00
  0.621471234379E-01
  0.579885376472E-01
  0.808294920497E+00
  0.568314732094E-01
 -0.303601770077E+00
  0.247783064867E+00
 -0.286031557266E+00
 -0.345169344446E+00
 -0.342375774300E+00
 -0.340689257152E+00
  0.132495142264E+00
 -0.188556275873E+00
 -0.336630960212E+00
 -0.104659507288E+00
 -0.246186689086E+00
 -0.243937188260E+00
 -0.222291057924E+00
 -0.149320437596E+00
 -0.145196765579E+00
 -0.217495374428E+00
 -0.276125794779E+00
 -0.262658309557E+00
 -0.355828898772E+00
 -0.338745586615E+00
 -0.349984221705E+00
 -0.386128106237E+00
 -0.625131931621E+00
 -0.576044056720E+00
  0.901571375513E-02
  0.105234767009E-01
  0.105252494729E-01
  0.138334428995E-01
  0.997949208195E-02
  0.132640911868E-01
  0.170996580866E-01
  0.186343631739E-01
  0.147264981954E-01
  0.203897747173E-01
  0.194224657760E-01
  0.243137039239E-01
  0.239608961381E-01
  0.298351531969E-01
  0.300578734913E-01
  0.371126433734E-01
  0.384262154359E-01
  0.469336931156E-01
  0.503899015231E-01
  0.607210526727E-01
  0.691034663293E-01
  0.818336941591E-01
  0.101048104193E+00
  0.116827373711E+00
  0.205626989074E+00
  0.225092109199E+00
  0.225092058058E+00
  0.205626957663E+00
  0.116827371283E+00
  0.101048033384E+00
  0.818336845385E-01
  0.691034587779E-01
  0.607210802446E-01
  0.503899537299E-01
  0.469336827965E-01
  0.384262220266E-01
  0.371126190141E-01
  0.300578432095E-01
  0.298351444389E-01
  0.239608860304E-01
  0.243137007331E-01
  0.194224723191E-01
  0.203897707146E-01
  0.147264935633E-01
  0.186343581151E-01
  0.170996505984E-01
  0.132640939777E-01
  0.997949934310E-02
  0.138334492089E-01
  0.105252591451E-01
  0.105234871952E-01
  0.901571591770E-02
 -0.576044059367E+00
 -0.625131939928E+00
 -0.386128107338E+00
 -0.349984211146E+00
 -0.338745591167E+00
 -0.355828889294E+00
 -0.262658294821E+00
 -0.276125783367E+00
 -0.217495360130E+00
 -0.145196741579E+00
 -0.149320418612E+00
 -0.222291051802E+00
 -0.243937186051E+00
 -0.246186692676E+00
 -0.104659515336E+00
 -0.336630972901E+00
 -0.188556349334E+00
  0.132495114407E+00
 -0.340689221963E+00
 -0.342375764098E+00
 -0.345169411395E+00
 -0.286031607141E+00
  0.247783165655E+00
 -0.303601744837E+00
  0.566980052249E-01
  0.808210732434E+00
  0.353603702409E-01
  0.810501632724E+00
 -0.327847180374E+00
 -0.303410804134E+00
 -0.365203587377E+00
 -0.286280977935E+00
 -0.363239342277E+00
 -0.344305116715E+00
  0.188308310156E+00
  0.131969321200E+00
 -0.335199648364E+00
 -0.337139544115E+00
 -0.268065404550E+00
 -0.247749998173E+00
 -0.206951769373E+00
 -0.222908804065E+00
 -0.128555814395E+00
 -0.140755873930E+00
 -0.296301262856E+00
 -0.278192310220E+00
 -0.371017276564E+00
 -0.358679845194E+00
 -0.399608097114E+00
 -0.358273199215E+00
 -0.655175524140E+00
 -0.643558139467E+00
  0.105009112681E-01
  0.121952062652E-01
  0.138256345184E-01
  0.167235884873E-01
  0.132619662702E-01
  0.176163823667E-01
  0.186091649834E-01
  0.221838718758E-01
  0.203822083872E-01
  0.245904826183E-01
  0.243116853333E-01
  0.296816444936E-01
  0.298368047822E-01
  0.361155358327E-01
  0.371193913972E-01
  0.445498314240E-01
  0.469473351952E-01
  0.557770663519E-01
  0.607447871041E-01
  0.712870270429E-01
  0.818744084308E-01
  0.946305006275E-01
  0.116899050165E+00
  0.132174318734E+00
  0.225275373158E+00
  0.244703065694E+00
  0.244703117020E+00
  0.225275323013E+00
  0.132174257208E+00
  0.116899048042E+00
  0.946304262491E-01
  0.818743982835E-01
  0.712870103409E-01
  0.607448140229E-01
  0.557771123024E-01
  0.469473247912E-01
  0.445498496665E-01
  0.371193673280E-01
  0.361155011927E-01
  0.298367960749E-01
  0.296816213581E-01
  0.243116820421E-01
  0.245904859140E-01
  0.203822044177E-01
  0.221838778408E-01
  0.186091600370E-01
  0.176163787007E-01
  0.132619690907E-01
  0.167235844254E-01
  0.138256408131E-01
  0.121952197146E-01
  0.105009217939E-01
 -0.643558148985E+00
 -0.655175531960E+00
 -0.358273189557E+00
 -0.399608087437E+00
 -0.358679834677E+00
 -0.371017255631E+00
 -0.278192299496E+00
 -0.296301256851E+00
 -0.140755848674E+00
 -0.128555807029E+00
 -0.222908797279E+00
 -0.206951769046E+00
 -0.247750000901E+00
 -0.268065434995E+00
 -0.337139555068E+00
 -0.335199612672E+00
  0.131969294061E+00
  0.188308318064E+00
 -0.344305106934E+00
 -0.363239424585E+00
 -0.286281024752E+00
 -0.365203478857E+00
 -0.303410780336E+00
 -0.327847294194E+00
  0.810418566925E+00
  0.353151333451E-01
 -0.271453956470E+00
  0.363777300999E-01
 -0.310828408224E+00
 -0.328727400132E+00
 -0.580576053906E+00
 -0.372382929811E+00
  0.373903816543E+00
 -0.362258295805E+00
 -0.223927841875E+00
  0.189210859168E+00
 -0.380380042342E+00
 -0.337750088946E+00
  0.378314351608E-01
 -0.267344129239E+00
 -0.313959237701E+00
 -0.204357320111E+00
 -0.226256301958E+00
 -0.129595561069E+00
 -0.303586175412E+00
 -0.299112122776E+00
 -0.393683101116E+00
 -0.375026194955E+00
 -0.451961163806E+00
 -0.410776060150E+00
 -0.669316390382E+00
 -0.660611038757E+00
  0.121768729796E-01
  0.152568141159E-01
  0.167050826469E-01
  0.186176706879E-01
  0.176206564213E-01
  0.240414505347E-01
  0.221668342690E-01
  0.248278254395E-01
  0.245867226257E-01
  0.294944965915E-01
  0.296821909465E-01
  0.353297526884E-01
  0.361211768640E-01
  0.428223632666E-01
  0.445609025663E-01
  0.523854518760E-01
  0.557953838080E-01
  0.649719860923E-01
  0.713156442812E-01
  0.821251839078E-01
  0.946760250684E-01
  0.107508074695E+00
  0.132248481813E+00
  0.147231180041E+00
  0.244894628031E+00
  0.262469494450E+00
  0.262469432669E+00
  0.244894678233E+00
  0.147231163289E+00
  0.132248419252E+00
  0.107508059796E+00
  0.946759506011E-01
  0.821251756332E-01
  0.713156279364E-01
  0.649720055126E-01
  0.557954301645E-01
  0.523854544750E-01
  0.445609207088E-01
  0.428223454100E-01
  0.361211419662E-01
  0.353297388031E-01
  0.296821678285E-01
  0.294944855238E-01
  0.245867259799E-01
  0.248278382045E-01
  0.221668402814E-01
  0.240414541655E-01
  0.176206527653E-01
  0.186176700395E-01
  0.167050786788E-01
  0.152568094163E-01
  0.121768864600E-01
 -0.660611045947E+00
 -0.669316395713E+00
 -0.410776050788E+00
 -0.451961138340E+00
 -0.375026175790E+00
 -0.393683093135E+00
 -0.299112117346E+00
 -0.303586186411E+00
 -0.129595553727E+00
 -0.226256312512E+00
 -0.204357320423E+00
 -0.313959190578E+00
 -0.267344159943E+00
  0.378314034345E-01
 -0.337750055419E+00
 -0.380380052714E+00
  0.189210868216E+00
 -0.223927916638E+00
 -0.362258380853E+00
  0.373903706963E+00
 -0.372382818013E+00
 -0.580576159038E+00
 -0.328727507857E+00
 -0.310828164297E+00
  0.363318032718E-01
 -0.271470824093E+00
 -0.325552790925E+00
 -0.277240869503E+00
 -0.361073987701E+00
 -0.315402088284E+00
  0.314726249090E+00
 -0.580809128620E+00
 -0.114244906922E+00
  0.384849925165E+00
 -0.362086826332E+00
 -0.224123690453E+00
 -0.383082449961E+00
 -0.380596511534E+00
 -0.243224200208E-01
  0.374120542958E-01
 -0.322911676415E+00
 -0.320304636342E+00
 -0.185116857287E+00
 -0.229183289498E+00
 -0.359975139436E+00
 -0.307906873048E+00
 -0.393753707811E+00
 -0.397284350301E+00
 -0.528352208421E+00
 -0.467741567715E+00
 -0.674109285432E+00
 -0.673119920470E+00
  0.152566721568E-01
  0.211368449753E-01
  0.185885906478E-01
  0.207770656594E-01
  0.240507883605E-01
  0.281662882716E-01
  0.248271569040E-01
  0.298170836411E-01
  0.294950722833E-01
  0.349525979525E-01
  0.353330687490E-01
  0.415271085702E-01
  0.428303217766E-01
  0.497968684634E-01
  0.524003215289E-01
  0.606790532621E-01
  0.649941127061E-01
  0.745454317548E-01
  0.821578160548E-01
  0.933723581419E-01
  0.107556538278E+00
  0.120385924423E+00
  0.147307311979E+00
  0.162019373899E+00
  0.262645318665E+00
  0.279212330484E+00
  0.279212392468E+00
  0.262645258126E+00
  0.162019285488E+00
  0.147307296207E+00
  0.120385845727E+00
  0.107556523464E+00
  0.933723151094E-01
  0.821578073002E-01
  0.745454563666E-01
  0.649941317160E-01
  0.606790824697E-01
  0.524003241104E-01
  0.497968812744E-01
  0.428303042105E-01
  0.415271055795E-01
  0.353330550786E-01
  0.349525929172E-01
  0.294950613842E-01
  0.298170713464E-01
  0.248271697481E-01
  0.281662975301E-01
  0.240507920549E-01
  0.207770819876E-01
  0.185885901259E-01
  0.211368387590E-01
  0.152566675321E-01
 -0.673119925673E+00
 -0.674109287725E+00
 -0.467741541276E+00
 -0.528352196436E+00
 -0.397284340149E+00
 -0.393753688593E+00
 -0.307906885161E+00
 -0.359975152012E+00
 -0.229183300790E+00
 -0.185116860895E+00
 -0.320304590033E+00
 -0.322911662373E+00
  0.374120256909E-01
 -0.243224304795E-01
 -0.380596521729E+00
 -0.383082503744E+00
 -0.224123761653E+00
 -0.362086629638E+00
  0.384849812397E+00
 -0.114245000880E+00
 -0.580809233897E+00
  0.314726003198E+00
 -0.315401857722E+00
 -0.361074396871E+00
 -0.277257538974E+00
 -0.325560801865E+00
  0.763566680132E+00
 -0.321005483823E+00
 -0.346937585986E+00
 -0.356032126318E+00
 -0.131492469906E+00
  0.322943269710E+00
 -0.318887184325E+00
 -0.114646831487E+00
 -0.420933049788E+00
 -0.370948713730E+00
  0.252123609401E+00
 -0.381771910477E+00