# vtk DataFile Version 3.0
MachLine results file. Generated by MachLine, USU AeroLab (c) 2022.
ASCII
DATASET POLYDATA
POINTS                9799 float
  0.128275122948E-08 -0.839510241408E-25 -0.839510241408E-25
  0.165600025034E-02 -0.546129621059E-26 -0.367998873462E-03
  0.165600021987E-02 -0.239824656101E-25  0.367999010595E-03
  0.331200024402E-02 -0.106467309053E-25 -0.735998901914E-03
  0.331200018809E-02 -0.451356766849E-25  0.735999153596E-03
  0.481797995078E-02  0.484327269480E-02  0.000000000000E+00
  0.481798128067E-02 -0.484327137185E-02  0.134162226623E-24
  0.496800023602E-02 -0.514888120121E-26 -0.110399893791E-02
  0.496800018016E-02  0.000000000000E+00  0.110399918930E-02
  0.643933417889E-02  0.484327285067E-02 -0.360300745363E-03
  0.643933418847E-02  0.484327284114E-02  0.360300702254E-03
  0.643933451539E-02 -0.484327251593E-02 -0.360299231140E-03
  0.643933447405E-02 -0.484327255706E-02  0.360299417186E-03
  0.662400023373E-02  0.509896104358E-26 -0.147199894820E-02
  0.662400017743E-02  0.387074929914E-26  0.147199920155E-02
  0.806068856211E-02  0.484327285225E-02 -0.720601726908E-03
  0.806068856174E-02  0.484327285261E-02  0.720601728540E-03
  0.806068890667E-02 -0.484327250949E-02 -0.720600176393E-03
  0.806068885002E-02 -0.484327256584E-02  0.720600431283E-03
  0.828000023384E-02 -0.510127238840E-26 -0.183999894773E-02
  0.828000017447E-02 -0.761243666109E-26  0.183999921487E-02
  0.968204293660E-02  0.484327286251E-02 -0.108090274771E-02
  0.968204295242E-02  0.484327284677E-02  0.108090267652E-02
  0.968204329746E-02 -0.484327250353E-02 -0.108090112382E-02
  0.968204319749E-02 -0.484327260298E-02  0.108090157370E-02
  0.987082491689E-02  0.992264378254E-02  0.000000000000E+00
  0.987082659924E-02 -0.992264210898E-02  0.000000000000E+00
  0.993600022885E-02  0.149773254662E-25 -0.220799897018E-02
  0.993600017379E-02  0.113739166206E-25  0.220799921794E-02
  0.113033973209E-01  0.484327286258E-02 -0.144120372245E-02
  0.113033973278E-01  0.484327285569E-02  0.144120369128E-02
  0.113033976808E-01 -0.484327250461E-02 -0.144120210312E-02
  0.113033975770E-01 -0.484327260784E-02  0.144120257010E-02
  0.114558446433E-01  0.992264393231E-02 -0.352226340830E-03
  0.114558446334E-01  0.992264394224E-02  0.352226385759E-03
  0.114558451525E-01 -0.992264342580E-02 -0.352224049594E-03
  0.114558451325E-01 -0.992264344567E-02  0.352224139442E-03
  0.115920002227E-01  0.291506635038E-25 -0.257599899782E-02
  0.115920001880E-01  0.123066086525E-25  0.257599915381E-02
  0.129247516988E-01  0.484327286971E-02 -0.180150472912E-02
  0.129247517163E-01  0.484327285223E-02  0.180150465001E-02
  0.129247520672E-01 -0.484327250320E-02 -0.180150307113E-02
  0.129247519930E-01 -0.484327257703E-02  0.180150340514E-02
  0.130408645244E-01  0.992264392829E-02 -0.704452961989E-03
  0.130408645225E-01  0.992264393018E-02  0.704452970548E-03
  0.130408650217E-01 -0.992264343353E-02 -0.704450723875E-03
  0.130408649842E-01 -0.992264347092E-02  0.704450893015E-03
  0.132480002177E-01  0.474961016376E-26 -0.294399902027E-02
  0.132480002010E-01  0.876951205012E-26  0.294399909553E-02
  0.145461060920E-01  0.484327286150E-02 -0.216180566635E-02
  0.145461060963E-01  0.484327285722E-02  0.216180564702E-02
  0.145461064527E-01 -0.484327250270E-02 -0.216180404329E-02
  0.145461064117E-01 -0.484327254343E-02  0.216180422755E-02
  0.146258843892E-01  0.992264394044E-02 -0.105667965624E-02
  0.146258844009E-01  0.992264392880E-02  0.105667960360E-02
  0.146258848650E-01 -0.992264346704E-02 -0.105667751480E-02
  0.146258848160E-01 -0.992264351580E-02  0.105667773537E-02
  0.149040002103E-01 -0.458871355961E-26 -0.331199905346E-02
  0.149040001981E-01 -0.864174153696E-26  0.331199910870E-02
  0.151547365409E-01  0.152342945812E-01 -0.191917193544E-25
  0.151547382364E-01 -0.152342928946E-01  0.167137595492E-24
  0.161674604740E-01  0.484327286454E-02 -0.252210665452E-02
  0.161674604906E-01  0.484327284798E-02  0.252210657960E-02
  0.161674608428E-01 -0.484327249760E-02 -0.252210499460E-02
  0.161674608081E-01 -0.484327253210E-02  0.252210515068E-02
  0.162109042571E-01  0.992264394948E-02 -0.140890633654E-02
  0.162109042681E-01  0.992264393847E-02  0.140890628673E-02
  0.162109047515E-01 -0.992264345761E-02 -0.140890411151E-02
  0.162109046865E-01 -0.992264352228E-02  0.140890440407E-02
  0.165600002092E-01  0.912590441167E-26 -0.367999905877E-02
  0.165600002037E-01 -0.444481171139E-26  0.367999908314E-02
  0.167017601832E-01  0.152342947302E-01 -0.343782749064E-03
  0.167017601816E-01  0.152342947317E-01  0.343782755960E-03
  0.167017606777E-01 -0.152342942382E-01 -0.343780523596E-03
  0.167017606624E-01 -0.152342942535E-01  0.343780592632E-03
  0.177888148610E-01  0.484327286147E-02 -0.288240761505E-02
  0.177888148620E-01  0.484327286052E-02  0.288240761074E-02
  0.177888152229E-01 -0.484327250151E-02 -0.288240598669E-02
  0.177888151828E-01 -0.484327254140E-02  0.288240616716E-02
  0.177959241345E-01  0.992264394908E-02 -0.176113297405E-02
  0.177959241361E-01  0.992264394745E-02  0.176113296667E-02
  0.177959246355E-01 -0.992264345071E-02 -0.176113071960E-02
  0.177959245682E-01 -0.992264351766E-02  0.176113102244E-02
  0.182160002034E-01  0.177510609945E-25 -0.404799908459E-02
  0.182160002151E-01 -0.938403779077E-26  0.404799903215E-02
  0.182487839831E-01  0.152342947223E-01 -0.687565778337E-03
  0.182487839824E-01  0.152342947230E-01  0.687565781252E-03
  0.182487844504E-01 -0.152342942574E-01 -0.687563675355E-03
  0.182487844516E-01 -0.152342942563E-01  0.687563670150E-03
  0.193809440089E-01  0.992264395160E-02 -0.211335962486E-02
  0.193809440155E-01  0.992264394506E-02  0.211335959526E-02
  0.193809445389E-01 -0.992264342439E-02 -0.211335723993E-02
  0.193809444105E-01 -0.992264355214E-02  0.211335781786E-02
  0.194101692445E-01  0.484327286301E-02 -0.324270859638E-02
  0.194101692418E-01  0.484327286567E-02  0.324270860841E-02
  0.194101696039E-01 -0.484327250546E-02 -0.324270697898E-02
  0.194101695828E-01 -0.484327252648E-02  0.324270707405E-02
  0.197958077733E-01  0.152342947241E-01 -0.103134885145E-02
  0.197958077617E-01  0.152342947356E-01  0.103134890330E-02
  0.197958082435E-01 -0.152342942563E-01 -0.103134673520E-02
  0.197958082281E-01 -0.152342942717E-01  0.103134680460E-02
  0.198720002029E-01  0.132793366437E-25 -0.441599908693E-02
  0.198720002221E-01  0.484472761431E-26  0.441599900065E-02
  0.206636576557E-01  0.207721359200E-01  0.000000000000E+00
  0.206636591200E-01 -0.207721344634E-01  0.000000000000E+00
  0.209659638904E-01  0.992264394716E-02 -0.246558624405E-02
  0.209659639030E-01  0.992264393464E-02  0.246558618741E-02
  0.209659644196E-01 -0.992264342072E-02 -0.246558386262E-02
  0.209659643116E-01 -0.992264352817E-02  0.246558434869E-02
  0.210315236201E-01  0.484327287238E-02 -0.360300961306E-02
  0.210315236309E-01  0.484327286159E-02  0.360300956426E-02
  0.210315239870E-01 -0.484327250734E-02 -0.360300796177E-02
  0.210315239662E-01 -0.484327252807E-02  0.360300805553E-02
  0.213428315505E-01  0.152342947378E-01 -0.137513197814E-02
  0.213428315504E-01  0.152342947379E-01  0.137513197845E-02
  0.213428320276E-01 -0.152342942632E-01 -0.137512983129E-02
  0.213428320074E-01 -0.152342942833E-01  0.137512992213E-02
  0.215280002073E-01  0.452136603147E-26 -0.478399906735E-02
  0.215280002190E-01  0.000000000000E+00  0.478399901466E-02
  0.221710671036E-01  0.207721361568E-01 -0.334979563198E-03
  0.221710670882E-01  0.207721361722E-01  0.334979632462E-03
  0.221710676118E-01 -0.207721356513E-01 -0.334977276383E-03
  0.221710675436E-01 -0.207721357191E-01  0.334977583054E-03
  0.225509837612E-01  0.992264395332E-02 -0.281781291131E-02
  0.225509837619E-01  0.992264395269E-02  0.281781290846E-02
  0.225509842987E-01 -0.992264341864E-02 -0.281781049262E-02
  0.225509842022E-01 -0.992264351463E-02  0.281781092685E-02
  0.226528780146E-01  0.484327286285E-02 -0.396331054438E-02
  0.226528780098E-01  0.484327286768E-02  0.396331056621E-02
  0.226528783729E-01 -0.484327250645E-02 -0.396330893215E-02
  0.226528783602E-01 -0.484327251909E-02  0.396330898934E-02
  0.228898553437E-01  0.152342947366E-01 -0.171891503759E-02
  0.228898553583E-01  0.152342947221E-01  0.171891497211E-02
  0.228898558337E-01 -0.152342942492E-01 -0.171891283283E-02
  0.228898557592E-01 -0.152342943233E-01  0.171891316791E-02
  0.231840001903E-01  0.830388520452E-26 -0.515199914355E-02
  0.231840002178E-01  0.950289281103E-26  0.515199901989E-02
  0.236784767870E-01  0.207721361604E-01 -0.669959509686E-03
  0.236784767805E-01  0.207721361669E-01  0.669959539060E-03
  0.236784773249E-01 -0.207721356253E-01 -0.669957088843E-03
  0.236784772375E-01 -0.207721357122E-01  0.669957482126E-03
  0.241360036349E-01  0.992264395758E-02 -0.317003956991E-02
  0.241360036410E-01  0.992264395152E-02  0.317003954250E-02
  0.241360041855E-01 -0.992264340991E-02 -0.317003709246E-02
  0.241360041021E-01 -0.992264349285E-02  0.317003746763E-02
  0.242742324012E-01  0.484327286133E-02 -0.432361151189E-02
  0.242742323993E-01  0.484327286322E-02  0.432361152042E-02
  0.242742327334E-01 -0.484327253080E-02 -0.432361001672E-02
  0.242742327378E-01 -0.484327252643E-02  0.432360999692E-02
  0.244368791508E-01  0.152342947216E-01 -0.206269803431E-02
  0.244368791506E-01  0.152342947218E-01  0.206269803557E-02
  0.244368796409E-01 -0.152342942341E-01 -0.206269582906E-02
  0.244368795864E-01 -0.152342942883E-01  0.206269607424E-02
  0.248400001665E-01  0.363117848065E-26 -0.551999925097E-02
  0.248400002205E-01  0.481134442738E-26  0.551999900753E-02
  0.251858864866E-01  0.207721361469E-01 -0.100493937888E-02
  0.251858864905E-01  0.207721361430E-01  0.100493936135E-02
  0.251858869905E-01 -0.207721356456E-01 -0.100493711127E-02
  0.251858869604E-01 -0.207721356756E-01  0.100493724677E-02
  0.257210235169E-01  0.992264395267E-02 -0.352226618708E-02
  0.257210235071E-01  0.992264396239E-02  0.352226623107E-02
[...]
POINT_DATA                9799
SCALARS phi float 1
LOOKUP_TABLE default
  0.129246970711E-25
  0.542101086243E-19
 -0.271050543121E-19
  0.108420217249E-18
  0.542101086243E-19
 -0.646234853557E-26
 -0.516987882846E-25
  0.108420217249E-18
 -0.108420217249E-18
  0.108420217249E-18
  0.000000000000E+00
  0.542101086243E-19
  0.108420217249E-18
  0.000000000000E+00
 -0.108420217249E-18
  0.108420217249E-18
 -0.216840434497E-18
 -0.216840434497E-18
  0.108420217249E-18
  0.108420217249E-18
  0.108420217249E-18
  0.325260651746E-18
 -0.108420217249E-18
  0.000000000000E+00
  0.216840434497E-18
 -0.323117426779E-25
  0.258493941423E-25
 -0.216840434497E-18
 -0.108420217249E-18
  0.216840434497E-18
  0.108420217249E-18
  0.108420217249E-18
  0.108420217249E-18
  0.000000000000E+00
  0.000000000000E+00
  0.108420217249E-18
  0.162630325873E-18
  0.216840434497E-18
 -0.216840434497E-18
  0.433680868994E-18
  0.433680868994E-18
 -0.216840434497E-18
  0.867361737988E-18
  0.108420217249E-18
  0.325260651746E-18
 -0.108420217249E-18
 -0.108420217249E-18
  0.433680868994E-18
  0.216840434497E-18
  0.000000000000E+00
  0.000000000000E+00
  0.000000000000E+00
  0.000000000000E+00
  0.216840434497E-18
 -0.433680868994E-18
 -0.216840434497E-18
 -0.216840434497E-18
  0.216840434497E-18
 -0.216840434497E-18
 -0.323117426779E-26
 -0.206795153138E-24
  0.216840434497E-18
  0.216840434497E-18
  0.867361737988E-18
  0.000000000000E+00
 -0.650521303491E-18
 -0.867361737988E-18
 -0.433680868994E-18
  0.433680868994E-18
 -0.216840434497E-18
  0.433680868994E-18
  0.000000000000E+00
 -0.542101086243E-19
  0.542101086243E-19
  0.000000000000E+00
 -0.433680868994E-18
  0.650521303491E-18
  0.433680868994E-18
  0.216840434497E-18
 -0.433680868994E-18
  0.000000000000E+00
 -0.216840434497E-18
  0.108420217249E-17
  0.216840434497E-18
 -0.650521303491E-18
  0.325260651746E-18
  0.000000000000E+00
 -0.108420217249E-18
  0.216840434497E-18
  0.433680868994E-18
 -0.433680868994E-18
  0.216840434497E-18
 -0.216840434497E-18
  0.216840434497E-18
 -0.433680868994E-18
 -0.867361737988E-18
 -0.433680868994E-18
  0.000000000000E+00
 -0.650521303491E-18
  0.433680868994E-18
 -0.433680868994E-18
  0.000000000000E+00
 -0.867361737988E-18
  0.258493941423E-25
 -0.129246970711E-24
  0.867361737988E-18
  0.108420217249E-17
  0.650521303491E-18
 -0.216840434497E-18
  0.216840434497E-18
  0.000000000000E+00
  0.000000000000E+00
  0.216840434497E-18
  0.433680868994E-18
  0.433680868994E-18
  0.216840434497E-18
  0.216840434497E-18
  0.216840434497E-18
  0.130104260698E-17
  0.108420217249E-18
  0.542101086243E-19
 -0.542101086243E-19
  0.000000000000E+00
 -0.650521303491E-18
 -0.151788304148E-17
  0.216840434497E-18
  0.108420217249E-17
 -0.433680868994E-18
  0.433680868994E-18
  0.130104260698E-17
 -0.867361737988E-18
 -0.433680868994E-18
  0.433680868994E-18
 -0.216840434497E-18
  0.216840434497E-18
 -0.433680868994E-18
 -0.867361737988E-18
  0.108420217249E-18
 -0.108420217249E-18
  0.108420217249E-18
 -0.216840434497E-18
  0.867361737988E-18
 -0.130104260698E-17
 -0.130104260698E-17
 -0.867361737988E-18
 -0.433680868994E-18
  0.173472347598E-17
  0.000000000000E+00
  0.433680868994E-18
 -0.867361737988E-18
  0.650521303491E-18
 -0.650521303491E-18
 -0.216840434497E-18
  0.433680868994E-18
 -0.216840434497E-17
  0.000000000000E+00
 -0.216840434497E-18
  0.433680868994E-18
  0.000000000000E+00
  0.000000000000E+00
  0.867361737988E-18
  0.130104260698E-17
  0.867361737988E-18
 -0.130104260698E-17
  0.433680868994E-18
  0.000000000000E+00
  0.433680868994E-18
  0.433680868994E-18
  0.433680868994E-18
  0.000000000000E+00
  0.000000000000E+00
  0.323117426779E-25
 -0.516987882846E-25
 -0.867361737988E-18
 -0.216840434497E-17
  0.216840434497E-18
  0.216840434497E-18
 -0.216840434497E-18
  0.000000000000E+00
 -0.433680868994E-18
  0.000000000000E+00
 -0.433680868994E-18
 -0.260208521397E-17
  0.000000000000E+00
  0.000000000000E+00
 -0.130104260698E-17
 -0.433680868994E-18
  0.303576608296E-17
  0.433680868994E-18
 -0.216840434497E-17
  0.867361737988E-18
  0.542101086243E-19
  0.000000000000E+00
 -0.162630325873E-18
  0.000000000000E+00
  0.433680868994E-18
 -0.216840434497E-17
  0.650521303491E-18
 -0.867361737988E-18
 -0.130104260698E-17
 -0.650521303491E-18
  0.216840434497E-17
 -0.867361737988E-18
  0.260208521397E-17
 -0.216840434497E-17
 -0.867361737988E-18
  0.260208521397E-17
  0.867361737988E-18
 -0.433680868994E-18
 -0.130104260698E-17
 -0.130104260698E-17
  0.867361737988E-18
  0.346944695195E-17
  0.108420217249E-18
  0.108420217249E-18
  0.108420217249E-18
  0.108420217249E-18
  0.130104260698E-17
 -0.867361737988E-18
  0.867361737988E-18
 -0.216840434497E-18
 -0.433680868994E-18
  0.867361737988E-18
 -0.433680868994E-18
  0.130104260698E-17
 -0.216840434497E-17
  0.000000000000E+00
  0.000000000000E+00
  0.867361737988E-18
 -0.433680868994E-18
 -0.130104260698E-17
 -0.173472347598E-17
  0.867361737988E-18
 -0.216840434497E-17
  0.000000000000E+00
  0.000000000000E+00
  0.000000000000E+00
  0.433680868994E-18
  0.216840434497E-18
  0.433680868994E-18
 -0.130104260698E-17
 -0.867361737988E-18
  0.867361737988E-18
  0.000000000000E+00
  0.867361737988E-18
  0.173472347598E-17
  0.173472347598E-17
 -0.433680868994E-18
  0.000000000000E+00
  0.000000000000E+00
 -0.867361737988E-18
 -0.216840434497E-17
 -0.216840434497E-17
 -0.216840434497E-18
  0.433680868994E-18
  0.000000000000E+00
 -0.216840434497E-18
 -0.129246970711E-25
  0.155096364854E-24
 -0.260208521397E-17
  0.000000000000E+00
 -0.173472347598E-17
  0.433680868994E-18
  0.000000000000E+00
  0.130104260698E-17
  0.303576608296E-17
  0.130104260698E-17
  0.867361737988E-18
  0.433680868994E-18
 -0.216840434497E-17
  0.216840434497E-17
 -0.433680868994E-18
  0.000000000000E+00
  0.433680868994E-18
  0.303576608296E-17
  0.173472347598E-17
  0.867361737988E-18
  0.216840434497E-18
  0.650521303491E-18
 -0.216840434497E-18
  0.216840434497E-18
  0.000000000000E+00
  0.542101086243E-19
  0.000000000000E+00
  0.000000000000E+00
  0.260208521397E-17
  0.000000000000E+00
  0.216840434497E-17
  0.260208521397E-17
 -0.433680868994E-18
 -0.173472347598E-17
  0.433680868994E-18
  0.000000000000E+00
  0.303576608296E-17
 -0.216840434497E-17
  0.000000000000E+00
  0.000000000000E+00
 -0.108420217249E-18
  0.000000000000E+00
  0.433680868994E-18
  0.433680868994E-18
  0.000000000000E+00
  0.433680868994E-18
  0.260208521397E-17
  0.867361737988E-18
  0.867361737988E-18
 -0.346944695195E-17
  0.433680868994E-18
 -0.477048955894E-17
 -0.173472347598E-17
  0.130104260698E-17
  0.000000000000E+00
 -0.130104260698E-17
  0.000000000000E+00
  0.260208521397E-17
  0.000000000000E+00
 -0.867361737988E-18
 -0.130104260698E-17
 -0.130104260698E-17
  0.433680868994E-17
  0.433680868994E-18
  0.650521303491E-18
  0.433680868994E-18
 -0.216840434497E-18
  0.216840434497E-18
 -0.216840434497E-17
  0.000000000000E+00
  0.130104260698E-17
  0.433680868994E-18
 -0.173472347598E-17
  0.867361737988E-18
  0.000000000000E+00
 -0.867361737988E-18
 -0.216840434497E-17
 -0.260208521397E-17
  0.346944695195E-17
  0.216840434497E-17
 -0.346944695195E-17
  0.000000000000E+00
  0.433680868994E-18
 -0.520417042793E-17
  0.130104260698E-17
  0.433680868994E-18
  0.130104260698E-17
 -0.173472347598E-17
  0.216840434497E-18
  0.000000000000E+00
 -0.216840434497E-18
  0.000000000000E+00
 -0.130104260698E-17
  0.260208521397E-17
  0.433680868994E-18
  0.000000000000E+00
  0.173472347598E-17
 -0.303576608296E-17
  0.477048955894E-17
 -0.303576608296E-17
 -0.130104260698E-17
  0.173472347598E-17
  0.130104260698E-17
 -0.173472347598E-17
 -0.303576608296E-17
 -0.867361737988E-18
  0.387740912134E-25
  0.103397576569E-24
  0.433680868994E-18
  0.433680868994E-18
 -0.433680868994E-18
 -0.867361737988E-18
  0.173472347598E-17
  0.216840434497E-17
 -0.130104260698E-17
 -0.260208521397E-17
 -0.216840434497E-18
 -0.433680868994E-18
  0.000000000000E+00
  0.216840434497E-18
 -0.173472347598E-17
 -0.260208521397E-17
 -0.216840434497E-17
 -0.303576608296E-17
  0.563785129692E-17
 -0.303576608296E-17
 -0.542101086243E-19
 -0.542101086243E-19
  0.000000000000E+00
 -0.108420217249E-18
 -0.303576608296E-17
 -0.563785129692E-17
  0.867361737988E-18
  0.260208521397E-17
 -0.867361737988E-18
  0.000000000000E+00
 -0.433680868994E-18
  0.867361737988E-18
 -0.130104260698E-17
  0.867361737988E-18
  0.000000000000E+00
  0.260208521397E-17
  0.000000000000E+00
 -0.433680868994E-17
 -0.260208521397E-17
  0.260208521397E-17
 -0.173472347598E-17
 -0.867361737988E-18
 -0.433680868994E-18
  0.130104260698E-17
  0.130104260698E-17
  0.867361737988E-18
 -0.130104260698E-17
  0.000000000000E+00
  0.108420217249E-18
  0.000000000000E+00
 -0.216840434497E-18
  0.000000000000E+00
  0.260208521397E-17
  0.216840434497E-17
 -0.216840434497E-17
  0.260208521397E-17
  0.867361737988E-18
 -0.130104260698E-17
 -0.867361737988E-18
  0.867361737988E-18
  0.173472347598E-17
 -0.216840434497E-17
  0.000000000000E+00
  0.216840434497E-17
 -0.173472347598E-17
  0.000000000000E+00
  0.173472347598E-17
  0.000000000000E+00
 -0.390312782095E-17
  0.867361737988E-18
  0.867361737988E-18
  0.000000000000E+00
 -0.433680868994E-18
  0.173472347598E-17
 -0.433680868994E-18
  0.346944695195E-17
 -0.216840434497E-17
  0.303576608296E-17
  0.216840434497E-18
  0.216840434497E-18
 -0.433680868994E-18
  0.000000000000E+00
 -0.433680868994E-18
  0.346944695195E-17
 -0.477048955894E-17
  0.867361737988E-18
 -0.693889390391E-17
  0.260208521397E-17
 -0.520417042793E-17
 -0.216840434497E-17
 -0.390312782095E-17
 -0.867361737988E-18
 -0.433680868994E-18
 -0.260208521397E-17
 -0.867361737988E-18
 -0.130104260698E-17
 -0.130104260698E-17
  0.216840434497E-17
 -0.867361737988E-17
  0.260208521397E-17
  0.477048955894E-17
 -0.173472347598E-17
  0.433680868994E-18
  0.216840434497E-18
 -0.216840434497E-18
  0.216840434497E-18
  0.433680868994E-18
  0.433680868994E-18
 -0.867361737988E-18
  0.867361737988E-18
  0.260208521397E-17
  0.303576608296E-17
  0.390312782095E-17
 -0.130104260698E-17
 -0.954097911787E-17
 -0.346944695195E-17
 -0.173472347598E-17
  0.867361737988E-18
 -0.129246970711E-25
  0.775481824268E-25
  0.346944695195E-17
 -0.346944695195E-17
 -0.433680868994E-18
  0.260208521397E-17
  0.433680868994E-18
 -0.130104260698E-17
  0.433680868994E-18
 -0.867361737988E-18
  0.108420217249E-17
  0.867361737988E-18
 -0.867361737988E-18
  0.433680868994E-18
 -0.260208521397E-17
 -0.607153216592E-17
  0.000000000000E+00
 -0.520417042793E-17
 -0.173472347598E-17
 -0.173472347598E-17
  0.867361737988E-18
 -0.216840434497E-17
  0.000000000000E+00
 -0.542101086243E-19
  0.000000000000E+00
  0.542101086243E-19
  0.173472347598E-17
 -0.346944695195E-17
 -0.173472347598E-17
  0.000000000000E+00
  0.433680868994E-18
  0.260208521397E-17
  0.346944695195E-17
  0.390312782095E-17
  0.346944695195E-17
  0.520417042793E-17
  0.520417042793E-17
 -0.520417042793E-17
  0.173472347598E-17
  0.216840434497E-17
  0.130104260698E-17
  0.867361737988E-18
 -0.433680868994E-18
 -0.433680868994E-18
 -0.433680868994E-18
 -0.433680868994E-18
 -0.433680868994E-18
  0.260208521397E-17
  0.433680868994E-18
  0.260208521397E-17
  0.000000000000E+00
 -0.108420217249E-18
  0.000000000000E+00
  0.000000000000E+00
  0.346944695195E-17
 -0.607153216592E-17
 -0.433680868994E-17
  0.693889390391E-17
 -0.867361737988E-18
  0.433680868994E-17
 -0.346944695195E-17
 -0.867361737988E-18
 -0.173472347598E-17
  0.000000000000E+00
  0.173472347598E-17
  0.520417042793E-17
  0.433680868994E-18
 -0.173472347598E-17
 -0.867361737988E-18
  0.173472347598E-17
 -0.130104260698E-17
 -0.130104260698E-17
  0.433680868994E-18
  0.000000000000E+00
  0.867361737988E-18
 -0.173472347598E-17
 -0.173472347598E-17
  0.000000000000E+00
 -0.325260651746E-18
  0.108420217249E-18
  0.216840434497E-18
 -0.325260651746E-18
 -0.346944695195E-17
  0.173472347598E-17
 -0.433680868994E-17
 -0.867361737988E-18
 -0.520417042793E-17
 -0.346944695195E-17
 -0.607153216592E-17
  0.346944695195E-17
  0.260208521397E-17
 -0.173472347598E-17
  0.173472347598E-17
  0.260208521397E-17
  0.433680868994E-18
  0.130104260698E-17
 -0.867361737988E-18
 -0.433680868994E-18
 -0.130104260698E-17
 -0.433680868994E-18
  0.433680868994E-17
 -0.433680868994E-17
  0.867361737988E-18
 -0.346944695195E-17
  0.000000000000E+00
 -0.173472347598E-17
 -0.867361737988E-18
  0.433680868994E-17
 -0.216840434497E-18
 -0.433680868994E-18
 -0.216840434497E-18
  0.000000000000E+00
 -0.260208521397E-17
 -0.693889390391E-17
 -0.346944695195E-17
 -0.173472347598E-17
  0.433680868994E-17
 -0.867361737988E-18
 -0.173472347598E-17
 -0.520417042793E-17
 -0.173472347598E-17
  0.433680868994E-18
 -0.260208521397E-17
  0.260208521397E-17
 -0.867361737988E-18
 -0.130104260698E-17
  0.346944695195E-17
  0.303576608296E-17
 -0.646234853557E-26
  0.155096364854E-24
  0.346944695195E-17
  0.260208521397E-17
 -0.260208521397E-17
  0.520417042793E-17
  0.000000000000E+00
  0.000000000000E+00
 -0.650521303491E-18
  0.216840434497E-18
  0.867361737988E-18
 -0.433680868994E-18
 -0.433680868994E-18
 -0.867361737988E-18
 -0.433680868994E-18
  0.173472347598E-17
  0.433680868994E-18
  0.173472347598E-17
  0.520417042793E-17
 -0.173472347598E-17
 -0.173472347598E-17
 -0.954097911787E-17
 -0.520417042793E-17
 -0.173472347598E-17
 -0.607153216592E-17
  0.867361737988E-18
  0.542101086243E-19
  0.000000000000E+00
  0.000000000000E+00
  0.000000000000E+00
 -0.867361737988E-17
  0.346944695195E-17
 -0.173472347598E-17
  0.173472347598E-17
 -0.216840434497E-18
  0.867361737988E-18
 -0.216840434497E-18
 -0.108420217249E-17
 -0.433680868994E-17
 -0.173472347598E-17
  0.000000000000E+00
 -0.867361737988E-18
 -0.433680868994E-18
 -0.130104260698E-17
  0.867361737988E-18
  0.000000000000E+00
  0.867361737988E-18
 -0.260208521397E-17
 -0.867361737988E-18
 -0.867361737988E-18
  0.108420217249E-18
  0.000000000000E+00
  0.000000000000E+00
  0.108420217249E-18
  0.607153216592E-17
 -0.780625564190E-17
 -0.104083408559E-16
 -0.433680868994E-17
  0.000000000000E+00
  0.607153216592E-17
 -0.260208521397E-17
  0.693889390391E-17
 -0.433680868994E-18
 -0.433680868994E-18
 -0.867361737988E-18
 -0.260208521397E-17
 -0.433680868994E-17
  0.260208521397E-17
 -0.607153216592E-17
  0.433680868994E-17
  0.303576608296E-17
  0.303576608296E-17
  0.390312782095E-17
 -0.303576608296E-17
 -0.216840434497E-18
 -0.216840434497E-18
 -0.108420217249E-18
 -0.108420217249E-18
 -0.260208521397E-17
 -0.433680868994E-17
  0.260208521397E-17
 -0.346944695195E-17
 -0.867361737988E-18
  0.520417042793E-17
 -0.607153216592E-17
  0.693889390391E-17
 -0.433680868994E-18
  0.000000000000E+00
  0.130104260698E-17
  0.433680868994E-18
  0.780625564190E-17
 -0.693889390391E-17
  0.433680868994E-17
 -0.520417042793E-17
 -0.216840434497E-18
 -0.216840434497E-18
 -0.216840434497E-18
  0.433680868994E-18
  0.000000000000E+00
  0.216840434497E-17
  0.130104260698E-17
 -0.867361737988E-18
  0.693889390391E-17
  0.954097911787E-17
 -0.607153216592E-17
 -0.260208521397E-17
  0.173472347598E-17
  0.867361737988E-18
 -0.693889390391E-17
  0.867361737988E-18
  0.867361737988E-18
  0.520417042793E-17
 -0.433680868994E-18
  0.000000000000E+00
  0.000000000000E+00
 -0.867361737988E-18
 -0.867361737988E-18
  0.693889390391E-17
 -0.954097911787E-17
  0.520417042793E-17
 -0.104083408559E-16
  0.693889390391E-17
  0.346944695195E-17
 -0.173472347598E-17
  0.650521303491E-18
  0.000000000000E+00
 -0.216840434497E-18
  0.216840434497E-18
  0.173472347598E-17
  0.173472347598E-17
  0.173472347598E-17
 -0.867361737988E-18
  0.258493941423E-25
  0.775481824268E-25
 -0.173472347598E-17
  0.867361737988E-18
 -0.260208521397E-17
  0.173472347598E-17
 -0.130104260698E-17
 -0.130104260698E-17
  0.867361737988E-18
 -0.433680868994E-18
 -0.867361737988E-18
 -0.173472347598E-17
 -0.173472347598E-17
 -0.260208521397E-17
 -0.867361737988E-18
  0.520417042793E-17
  0.000000000000E+00
 -0.433680868994E-17
 -0.108420217249E-17
  0.433680868994E-18
 -0.433680868994E-18
 -0.108420217249E-17
  0.000000000000E+00
  0.000000000000E+00
  0.542101086243E-19
  0.542101086243E-19
  0.346944695195E-17
  0.693889390391E-17
  0.260208521397E-17
  0.867361737988E-18
  0.260208521397E-17
  0.433680868994E-17
  0.346944695195E-17
 -0.346944695195E-17
 -0.173472347598E-17
 -0.130104260698E-17
  0.173472347598E-17
 -0.346944695195E-17
  0.104083408559E-16
 -0.260208521397E-17
  0.867361737988E-18
 -0.607153216592E-17
 -0.607153216592E-17
 -0.433680868994E-17
  0.260208521397E-17
 -0.867361737988E-18
  0.000000000000E+00
 -0.433680868994E-18
  0.000000000000E+00
  0.130104260698E-17
 -0.216840434497E-18
 -0.216840434497E-18
 -0.108420217249E-18
  0.108420217249E-18
 -0.433680868994E-17
 -0.433680868994E-17
 -0.607153216592E-17
 -0.173472347598E-17
 -0.346944695195E-17
 -0.867361737988E-18
 -0.216840434497E-17
  0.000000000000E+00
  0.607153216592E-17
  0.867361737988E-18
 -0.346944695195E-17
  0.260208521397E-17
  0.260208521397E-17
 -0.433680868994E-17
 -0.867361737988E-18
  0.000000000000E+00
  0.130104260698E-17
  0.216840434497E-17
  0.867361737988E-18
  0.000000000000E+00
 -0.216840434497E-18
 -0.216840434497E-18
 -0.216840434497E-18
  0.000000000000E+00
 -0.867361737988E-17
 -0.346944695195E-17
  0.260208521397E-17
  0.693889390391E-17
 -0.867361737988E-18
 -0.780625564190E-17
 -0.867361737988E-18
  0.346944695195E-17
  0.607153216592E-17
  0.867361737988E-18
  0.433680868994E-18
 -0.433680868994E-18
  0.173472347598E-17
 -0.260208521397E-17
 -0.780625564190E-17
 -0.173472347598E-17
 -0.216840434497E-18
  0.433680868994E-18
  0.433680868994E-18
  0.000000000000E+00
 -0.867361737988E-18
  0.130104260698E-17
 -0.130104260698E-17
  0.433680868994E-18
  0.520417042793E-17
  0.867361737988E-17
 -0.433680868994E-17
  0.173472347598E-17
  0.867361737988E-18
  0.173472347598E-17
 -0.433680868994E-17
 -0.173472347598E-17
 -0.173472347598E-17
 -0.867361737988E-18
  0.346944695195E-17
 -0.433680868994E-17
 -0.433680868994E-17
  0.000000000000E+00
 -0.260208521397E-17
  0.173472347598E-17
 -0.104083408559E-16
 -0.147451495458E-16
 -0.520417042793E-17
  0.693889390391E-17
  0.000000000000E+00
 -0.216840434497E-18
 -0.867361737988E-18
 -0.433680868994E-18
 -0.954097911787E-17
 -0.260208521397E-17
 -0.433680868994E-18
 -0.433680868994E-18
 -0.130104260698E-17
  0.130104260698E-17
  0.516987882846E-25
  0.516987882846E-25
 -0.173472347598E-17
  0.260208521397E-17
 -0.260208521397E-17
 -0.520417042793E-17
  0.260208521397E-17
 -0.173472347598E-17
  0.867361737988E-18
  0.000000000000E+00
 -0.346944695195E-17
 -0.693889390391E-17
  0.520417042793E-17
 -0.138777878078E-16
  0.156125112838E-16
 -0.346944695195E-17
  0.433680868994E-17
  0.780625564190E-17
 -0.216840434497E-18
  0.216840434497E-18
 -0.433680868994E-18
  0.433680868994E-18
 -0.433680868994E-18
 -0.433680868994E-18
  0.867361737988E-18
 -0.867361737988E-18
  0.000000000000E+00
 -0.542101086243E-19
  0.000000000000E+00
  0.000000000000E+00
 -0.173472347598E-17
  0.260208521397E-17
 -0.520417042793E-17
  0.867361737988E-18
  0.260208521397E-17
  0.260208521397E-17
  0.954097911787E-17
  0.346944695195E-17
  0.216840434497E-17
  0.000000000000E+00
  0.867361737988E-18
  0.000000000000E+00
 -0.954097911787E-17
 -0.780625564190E-17
  0.260208521397E-17
 -0.520417042793E-17
  0.130104260698E-17
  0.000000000000E+00
  0.433680868994E-18
 -0.130104260698E-17
 -0.108420217249E-18
  0.000000000000E+00
  0.108420217249E-18
  0.000000000000E+00
  0.000000000000E+00
  0.433680868994E-17
 -0.780625564190E-17
 -0.867361737988E-18
 -0.607153216592E-17
  0.954097911787E-17
  0.433680868994E-17
  0.173472347598E-17
 -0.867361737988E-18
  0.346944695195E-17
 -0.867361737988E-18
  0.520417042793E-17
  0.130104260698E-17
  0.173472347598E-17
 -0.130104260698E-17
 -0.173472347598E-17
 -0.433680868994E-17
  0.173472347598E-17
  0.433680868994E-17
  0.867361737988E-18
 -0.260208521397E-17