# vtk DataFile Version 3.0
MachLine results file. Generated by MachLine, USU AeroLab (c) 2022.
ASCII
DATASET POLYDATA
POINTS                3970 float
  0.000000000000E+00  0.000000000000E+00  0.000000000000E+00
  0.254254401780E-02  0.000000000000E+00 -0.565009781740E-03
  0.254254401780E-02  0.000000000000E+00  0.565009781740E-03
  0.481797974320E-02  0.484327290130E-02  0.000000000000E+00
  0.500082277470E-02  0.000000000000E+00 -0.111129394990E-02
  0.500082277470E-02  0.000000000000E+00  0.111129394990E-02
  0.730733052330E-02  0.484327290130E-02 -0.553189062230E-03
  0.730733052330E-02  0.484327290130E-02  0.553189062230E-03
  0.738270318610E-02  0.000000000000E+00 -0.164060070800E-02
  0.738270318610E-02  0.000000000000E+00  0.164060070800E-02
  0.969533310910E-02  0.000000000000E+00 -0.215451846870E-02
  0.969533310910E-02  0.000000000000E+00  0.215451846870E-02
  0.971417897830E-02  0.484327290130E-02 -0.108804427450E-02
  0.971417897830E-02  0.484327290130E-02  0.108804427450E-02
  0.987082470000E-02  0.992264399830E-02  0.000000000000E+00
  0.119452349740E-01  0.000000000000E+00 -0.265449666100E-02
  0.119452349740E-01  0.000000000000E+00  0.265449666100E-02
  0.120462274380E-01  0.484327290130E-02 -0.160627726550E-02
  0.120462274380E-01  0.484327290130E-02  0.160627726550E-02
  0.123043891970E-01  0.992264399830E-02 -0.540792110380E-03
  0.123043891970E-01  0.992264399830E-02  0.540792110380E-03
  0.141383863230E-01  0.000000000000E+00 -0.314186362730E-02
  0.141383863230E-01  0.000000000000E+00  0.314186362730E-02
  0.143104742170E-01  0.484327290130E-02 -0.210944321640E-02
  0.143104742170E-01  0.484327290130E-02  0.210944321640E-02
  0.146573002430E-01  0.992264399830E-02 -0.106366123180E-02
  0.146573002430E-01  0.992264399830E-02  0.106366123180E-02
  0.151547363210E-01  0.152342948000E-01  0.000000000000E+00
  0.162802894430E-01  0.000000000000E+00 -0.361784209840E-02
  0.162802894430E-01  0.000000000000E+00  0.361784209840E-02
  0.165133052880E-01  0.484327290130E-02 -0.259896123230E-02
  0.165133052880E-01  0.484327290130E-02  0.259896123230E-02
  0.169370875600E-01  0.992264399830E-02 -0.157028063560E-02
  0.169370875600E-01  0.992264399830E-02  0.157028063560E-02
  0.175299634270E-01  0.152342948000E-01 -0.527828245750E-03
  0.175299634270E-01  0.152342948000E-01  0.527828245750E-03
  0.183760319030E-01  0.000000000000E+00 -0.408356264510E-02
  0.183760319030E-01  0.000000000000E+00  0.408356264510E-02
  0.186605731360E-01  0.484327290130E-02 -0.307613186500E-02
  0.186605731360E-01  0.484327290130E-02  0.307613186500E-02
  0.191505926300E-01  0.992264399830E-02 -0.206217065120E-02
  0.191505926300E-01  0.992264399830E-02  0.206217065120E-02
  0.198264705070E-01  0.152342948000E-01 -0.103816315230E-02
  0.198264705070E-01  0.152342948000E-01  0.103816315230E-02
  0.204303394680E-01  0.000000000000E+00 -0.454007543720E-02
  0.204303394680E-01  0.000000000000E+00  0.454007543720E-02
  0.206636573360E-01  0.207721362380E-01  0.000000000000E+00
  0.207576649320E-01  0.484327290130E-02 -0.354215226420E-02
  0.207576649320E-01  0.484327290130E-02  0.354215226420E-02
  0.213040583170E-01  0.992264399830E-02 -0.254071858160E-02
  0.213040583170E-01  0.992264399830E-02  0.254071858160E-02
  0.220516067780E-01  0.152342948000E-01 -0.153263787940E-02
  0.220516067780E-01  0.152342948000E-01  0.153263787940E-02
  0.224476226130E-01  0.000000000000E+00 -0.498836058060E-02
  0.224476226130E-01  0.000000000000E+00  0.498836058060E-02
  0.228095618090E-01  0.484327290130E-02 -0.399812934790E-02
  0.228095618090E-01  0.484327290130E-02  0.399812934790E-02
  0.229780628190E-01  0.207721362380E-01 -0.514312329630E-03
  0.229780628190E-01  0.207721362380E-01  0.514312329630E-03
  0.234032059510E-01  0.992264399830E-02 -0.300719583350E-02
  0.234032059510E-01  0.992264399830E-02  0.300719583350E-02
  0.242120497210E-01  0.152342948000E-01 -0.201273631100E-02
  0.242120497210E-01  0.152342948000E-01  0.201273631100E-02
  0.244320176720E-01  0.000000000000E+00 -0.542933726040E-02
  0.244320176720E-01  0.000000000000E+00  0.542933726040E-02
  0.248208906600E-01  0.484327290130E-02 -0.444509131480E-02
  0.248208906600E-01  0.484327290130E-02  0.444509131480E-02
  0.252157640330E-01  0.207721362380E-01 -0.101157926600E-02
  0.252157640330E-01  0.207721362380E-01  0.101157926600E-02
  0.254533019770E-01  0.992264399830E-02 -0.346277272820E-02
  0.254533019770E-01  0.992264399830E-02  0.346277272820E-02
  0.263138925440E-01  0.152342948000E-01 -0.247981249390E-02
  0.263138925440E-01  0.152342948000E-01  0.247981249390E-02
  0.263874234650E-01  0.000000000000E+00 -0.586387188120E-02
  0.263874234650E-01  0.000000000000E+00  0.586387188120E-02
  0.263891562660E-01  0.265276925690E-01  0.000000000000E+00
  0.267959696890E-01  0.484327290130E-02 -0.488399776580E-02
  0.267959696890E-01  0.484327290130E-02  0.488399776580E-02
  0.273839220070E-01  0.207721362380E-01 -0.149339214900E-02
  0.273839220070E-01  0.207721362380E-01  0.149339214900E-02
  0.274592159000E-01  0.992264399830E-02 -0.390853137780E-02
  0.274592159000E-01  0.992264399830E-02  0.390853137780E-02
  0.283175341400E-01  0.000000000000E+00 -0.629278536430E-02
  0.283175341400E-01  0.000000000000E+00  0.629278536430E-02
  0.283627194250E-01  0.152342948000E-01 -0.293510735640E-02
  0.283627194250E-01  0.152342948000E-01  0.293510735640E-02
  0.286403489830E-01  0.265276925690E-01 -0.500265048310E-03
  0.286403489830E-01  0.265276925690E-01  0.500265048310E-03
  0.287388486930E-01  0.484327290130E-02 -0.531574865560E-02
  0.287388486930E-01  0.484327290130E-02  0.531574865560E-02
  0.294254709270E-01  0.992264399830E-02 -0.434547693920E-02
  0.294254709270E-01  0.992264399830E-02  0.434547693920E-02
  0.294890432300E-01  0.207721362380E-01 -0.196119686540E-02
  0.294890432300E-01  0.207721362380E-01  0.196119686540E-02
  0.302258688330E-01  0.000000000000E+00 -0.671685974070E-02
  0.302258688330E-01  0.000000000000E+00  0.671685974070E-02
  0.303636705640E-01  0.152342948000E-01 -0.337976316500E-02
  0.303636705640E-01  0.152342948000E-01  0.337976316500E-02
  0.306533449230E-01  0.484327290130E-02 -0.574119226230E-02
  0.306533449230E-01  0.484327290130E-02  0.574119226230E-02
  0.308169324350E-01  0.265276925690E-01 -0.983950259840E-03
  0.308169324350E-01  0.265276925690E-01  0.983950259840E-03
  0.313562884890E-01  0.992264399830E-02 -0.477454750860E-02
  0.313562884890E-01  0.992264399830E-02  0.477454750860E-02
  0.315370648880E-01  0.207721362380E-01 -0.241631278930E-02
  0.315370648880E-01  0.207721362380E-01  0.241631278930E-02
  0.321157987010E-01  0.000000000000E+00 -0.713684415580E-02
  0.321157987010E-01  0.000000000000E+00  0.713684415580E-02
  0.323203536390E-01  0.324900272070E-01  0.000000000000E+00
  0.323214987330E-01  0.152342948000E-01 -0.381483609140E-02
  0.323214987330E-01  0.152342948000E-01  0.381483609140E-02
  0.325430752400E-01  0.484327290130E-02 -0.616113233270E-02
  0.325430752400E-01  0.484327290130E-02  0.616113233270E-02
  0.329258720630E-01  0.265276925690E-01 -0.145260351060E-02
  0.329258720630E-01  0.265276925690E-01  0.145260351060E-02
  0.332556276270E-01  0.992264399830E-02 -0.519662287260E-02
  0.332556276270E-01  0.992264399830E-02  0.519662287260E-02
  0.335334281650E-01  0.207721362380E-01 -0.285994907310E-02
  0.335334281650E-01  0.207721362380E-01  0.285994907310E-02
  0.339905717520E-01  0.000000000000E+00 -0.755346038930E-02
  0.339905717520E-01  0.000000000000E+00  0.755346038930E-02
  0.342406187070E-01  0.152342948000E-01 -0.424130719690E-02
  0.342406187070E-01  0.152342948000E-01  0.424130719690E-02
  0.344114851580E-01  0.484327290130E-02 -0.657633453660E-02
  0.344114851580E-01  0.484327290130E-02  0.657633453660E-02
  0.345060625630E-01  0.324900272070E-01 -0.485713094130E-03
  0.345060625630E-01  0.324900272070E-01  0.485713094130E-03
  0.349734966490E-01  0.265276925690E-01 -0.190763119620E-02
  0.349734966490E-01  0.265276925690E-01  0.190763119620E-02
  0.351272200480E-01  0.992264399830E-02 -0.561253229960E-02
  0.351272200480E-01  0.992264399830E-02  0.561253229960E-02
  0.354831416370E-01  0.207721362380E-01 -0.329321873350E-02
  0.354831416370E-01  0.207721362380E-01  0.329321873350E-02
  0.358533359100E-01  0.000000000000E+00 -0.796740798000E-02
  0.358533359100E-01  0.000000000000E+00  0.796740798000E-02
  0.361251507250E-01  0.152342948000E-01 -0.466009208970E-02
  0.361251507250E-01  0.152342948000E-01  0.466009208970E-02
  0.362618753020E-01  0.484327290130E-02 -0.698753234630E-02
  0.362618753020E-01  0.484327290130E-02  0.698753234630E-02
  0.366193324910E-01  0.324900272070E-01 -0.955328633870E-03
  0.366193324910E-01  0.324900272070E-01  0.955328633870E-03
  0.369655812140E-01  0.265276925690E-01 -0.235031665510E-02
  0.369655812140E-01  0.265276925690E-01  0.235031665510E-02
  0.369746015600E-01  0.992264399830E-02 -0.602306152450E-02
  0.369746015600E-01  0.992264399830E-02  0.602306152450E-02
  0.373908363740E-01  0.207721362380E-01 -0.371715089740E-02
  0.373908363740E-01  0.207721362380E-01  0.371715089740E-02
  0.377071606530E-01  0.000000000000E+00 -0.837936903390E-02
  0.377071606530E-01  0.000000000000E+00  0.837936903390E-02
  0.379789589180E-01  0.152342948000E-01 -0.507204946610E-02
  0.379789589180E-01  0.152342948000E-01  0.507204946610E-02
  0.380974257280E-01  0.484327290130E-02 -0.739543244110E-02
  0.380974257280E-01  0.484327290130E-02  0.739543244110E-02
  0.384438972060E-01  0.386457178070E-01  0.000000000000E+00
  0.386669262530E-01  0.324900272070E-01 -0.141034946980E-02
  0.386669262530E-01  0.324900272070E-01  0.141034946980E-02
  0.388011404620E-01  0.992264399830E-02 -0.642895905830E-02
  0.388011404620E-01  0.992264399830E-02  0.642895905830E-02
  0.389074183300E-01  0.265276925690E-01 -0.278183601440E-02
  0.389074183300E-01  0.265276925690E-01  0.278183601440E-02
  0.392608141050E-01  0.207721362380E-01 -0.413270150410E-02
[...]
CELL_DATA                7760
SCALARS C_p_ise float 1
LOOKUP_TABLE default
 -0.613198289850E-01
 -0.612945579280E-01
 -0.616254675949E-01
 -0.616375850973E-01
 -0.617726149910E-01
 -0.617033166360E-01
 -0.613310579757E-01
 -0.612192925913E-01
 -0.612574659181E-01
 -0.608268778886E-01
 -0.597930433483E-01
 -0.599700242432E-01
 -0.593054432540E-01
 -0.589868133751E-01
 -0.604421722097E-01
 -0.610793863117E-01
 -0.602177219719E-01
 -0.582797017061E-01
 -0.543596672232E-01
 -0.561570356205E-01
 -0.649878761580E-01
 -0.647675709502E-01
 -0.548379224643E-01
 -0.497971546266E-01
 -0.481718229305E-01
 -0.497819121443E-01
 -0.636749486358E-01
 -0.677492655804E-01
 -0.637982309568E-01
 -0.530212604382E-01
 -0.373509487068E-01
 -0.391411688008E-01
 -0.313814159075E-01
 -0.361176804809E-01
 -0.757951401861E-01
 -0.615221744217E-01
 -0.579521470617E-01
 -0.420350864200E-01
 -0.165669967007E+00
 -0.543534551056E-01
  0.246431208973E+00
  0.259264057038E+00
  0.250482629895E+00
  0.259187272556E+00
  0.248028447882E+00
  0.255486325603E+00
  0.249620959180E+00
  0.259126413142E+00
  0.250119226640E+00
  0.263535763301E+00
  0.252187417618E+00
  0.251933468124E+00
  0.238322729198E+00
  0.245511626221E+00
  0.241032490312E+00
  0.254234839781E+00
  0.246870442627E+00
  0.251864092275E+00
  0.249876119954E+00
  0.255622814908E+00
  0.243339372077E+00
  0.259659639051E+00
  0.249232340198E+00
  0.259642922184E+00
  0.245149268606E+00
  0.261411876390E+00
  0.247048207170E+00
  0.248417790976E+00
  0.221021814792E+00
  0.255671476406E+00
  0.231648534581E+00
  0.261521352847E+00
  0.235526428507E+00
  0.255191069012E+00
  0.239259991910E+00
  0.291842222354E+00
  0.243821317762E+00
  0.305832430527E+00
  0.245411306293E+00
  0.430335761115E+00
  0.430335762838E+00
  0.245411316068E+00
  0.305832430889E+00
  0.243821328032E+00
  0.291842231801E+00
  0.239259980169E+00
  0.255191071806E+00
  0.235526443081E+00
  0.261521345864E+00
  0.231648523365E+00
  0.255671481001E+00
  0.221021811630E+00
  0.248417795873E+00
  0.247048217383E+00
  0.261411862834E+00
  0.245149269943E+00
  0.259642929387E+00
  0.249232361469E+00
  0.259659627768E+00
  0.243339337082E+00
  0.255622813901E+00
  0.249876137155E+00
  0.251864084602E+00
  0.246870414769E+00
  0.254234842149E+00
  0.241032519432E+00
  0.245511622612E+00
  0.238322710332E+00
  0.251933478049E+00
  0.252187405378E+00
  0.263535762842E+00
  0.250119217738E+00
  0.259126404620E+00
  0.249620978615E+00
  0.255486326695E+00
  0.248028422218E+00
  0.259187267108E+00
  0.250482629741E+00
  0.259264050844E+00
  0.246431197371E+00
 -0.543534038062E-01
 -0.165669955506E+00
 -0.420351248989E-01
 -0.579521529269E-01
 -0.615221673788E-01
 -0.757951293676E-01
 -0.361176954651E-01
 -0.313814301621E-01
 -0.391411639685E-01
 -0.373509411677E-01
 -0.530212568756E-01
 -0.637982345974E-01
 -0.677492658385E-01
 -0.636749455583E-01
 -0.497819139968E-01
 -0.481718257028E-01
 -0.497971556803E-01
 -0.548379206610E-01
 -0.647675700360E-01
 -0.649878772368E-01
 -0.561570354359E-01
 -0.543596668028E-01
 -0.582797007965E-01
 -0.602177212688E-01
 -0.610793863192E-01
 -0.604421723495E-01
 -0.589868139167E-01
 -0.593054432755E-01
 -0.599700241248E-01
 -0.597930435552E-01
 -0.608268776158E-01
 -0.612574656767E-01
 -0.612192930127E-01
 -0.613310581105E-01
 -0.617033165793E-01
 -0.617726152646E-01
 -0.616375856156E-01
 -0.616254683804E-01
 -0.619968328330E-01
 -0.619288526921E-01
 -0.615548917845E-01
 -0.613205862896E-01
 -0.618199010297E-01
 -0.616266385750E-01
 -0.618932807570E-01
 -0.617740995404E-01
 -0.615662950954E-01
 -0.613330624530E-01
 -0.616105000914E-01
 -0.612604718979E-01
 -0.591837493548E-01
 -0.597935880557E-01
 -0.613355639374E-01
 -0.593133617621E-01
 -0.596249490261E-01
 -0.604464368343E-01
 -0.612687729479E-01
 -0.602277256875E-01
 -0.561365105012E-01
 -0.543712243177E-01
 -0.632207129968E-01
 -0.650039870295E-01
 -0.582663341948E-01
 -0.548605908873E-01
 -0.498636229019E-01
 -0.481863619295E-01
 -0.628031190366E-01
 -0.637120890902E-01
 -0.672672876363E-01
 -0.639135255216E-01
 -0.442879929793E-01
 -0.374088611089E-01
 -0.492321339438E-01
 -0.318019235440E-01
 -0.825493823634E-01
 -0.772665851126E-01
 -0.897760624201E-01
 -0.610357541294E-01
 -0.242331062781E+00
 -0.183754627737E+00
  0.258632643803E+00
  0.271012546129E+00
  0.258437432817E+00
  0.268339605932E+00
  0.254717344776E+00
  0.265235485516E+00
  0.258172287384E+00
  0.265577747464E+00
  0.262432912922E+00
  0.269080994097E+00
  0.251000535531E+00
  0.259378045355E+00
  0.244637905837E+00
  0.264774509518E+00
  0.252923073060E+00
  0.264763561880E+00
  0.250449913164E+00
  0.266497315109E+00
  0.253858690174E+00
  0.275466624773E+00
  0.257457440690E+00
  0.281940205276E+00
  0.256963121865E+00
  0.273265868513E+00
  0.258423428203E+00
  0.270302074468E+00
  0.245584471395E+00
  0.252346543420E+00
  0.252850041016E+00
  0.289148092210E+00
  0.257862312671E+00
  0.294411444217E+00
  0.250746495938E+00
  0.291316516416E+00
  0.285715327572E+00
  0.326979960191E+00
  0.299733745865E+00
  0.386027409875E+00
  0.446329267235E+00
  0.478704733756E+00
  0.478704736464E+00
  0.446329269560E+00
  0.386027409800E+00
  0.299733746813E+00
  0.326979956447E+00
  0.285715336683E+00
  0.291316522420E+00
  0.250746498155E+00
  0.294411445677E+00
  0.257862306065E+00
  0.289148094932E+00
  0.252850045459E+00
  0.252346537051E+00
  0.245584475722E+00
  0.270302068937E+00
  0.258423414970E+00
  0.273265882937E+00
  0.256963129024E+00
  0.281940195329E+00
  0.257457430060E+00
  0.275466619795E+00
  0.253858689207E+00
  0.266497311735E+00
  0.250449905845E+00
  0.264763557387E+00
  0.252923075327E+00
  0.264774518418E+00
  0.244637902456E+00
  0.259378043819E+00
  0.251000545227E+00
  0.269080987579E+00
  0.262432912326E+00
  0.265577751003E+00
  0.258172279051E+00
  0.265235488295E+00
  0.254717345901E+00
  0.268339598596E+00
  0.258437427497E+00
  0.271012543635E+00
  0.258632637788E+00
 -0.183754620246E+00
 -0.242331062722E+00
 -0.610357594857E-01
 -0.897760605402E-01
 -0.772665740386E-01
 -0.825493722468E-01
 -0.318019379470E-01
 -0.492321443108E-01
 -0.374088535543E-01
 -0.442879860089E-01
 -0.639135292211E-01
 -0.672672948278E-01
 -0.637120859835E-01
 -0.628031139085E-01
 -0.481863647102E-01
 -0.498636255845E-01
 -0.548605890830E-01
 -0.582663328186E-01
 -0.650039881087E-01
 -0.632207135107E-01
 -0.543712238991E-01
 -0.561365104639E-01
 -0.602277249835E-01
 -0.612687730986E-01
 -0.604464369711E-01
 -0.596249486127E-01
 -0.593133617818E-01
 -0.613355634055E-01
 -0.597935882632E-01
 -0.591837497357E-01
 -0.612604716568E-01
 -0.616105002059E-01
 -0.613330625869E-01
 -0.615662952651E-01
 -0.617740998133E-01
 -0.618932811958E-01
 -0.616266393598E-01
 -0.618199015152E-01
 -0.619295597923E-01
 -0.620316467653E-01
 -0.617529113252E-01
 -0.615572973150E-01
 -0.619186142043E-01
 -0.618222391187E-01
 -0.621242207288E-01
 -0.618960304615E-01
 -0.622418109698E-01
 -0.615716106797E-01
 -0.613232201053E-01
 -0.616138508179E-01
 -0.605305772836E-01
 -0.591920148264E-01
 -0.620947847973E-01
 -0.613517351027E-01
 -0.591858199098E-01
 -0.596291815014E-01
 -0.629939723498E-01
 -0.612907769132E-01
 -0.568762167739E-01
 -0.561544934701E-01
 -0.647431753624E-01
 -0.632485253550E-01
 -0.596814975628E-01
 -0.583156547693E-01
 -0.540889809653E-01
 -0.499260341093E-01
 -0.649063313466E-01
 -0.629193829751E-01
 -0.658362889908E-01
 -0.673768369068E-01
 -0.532807931329E-01
 -0.444471750485E-01
 -0.774333954312E-01
 -0.504003810790E-01
 -0.878799087111E-01
 -0.836655790035E-01
 -0.135500014499E+00
 -0.951416098964E-01
 -0.282425096774E+00
 -0.253510604388E+00
  0.269685641738E+00
  0.276131504281E+00
  0.267062694916E+00
  0.275904859947E+00
  0.263981014659E+00
  0.279424261206E+00
  0.264128835861E+00
  0.276278686246E+00
  0.267427913917E+00
  0.273115862581E+00
  0.257890368424E+00
  0.273512469971E+00
  0.263195044631E+00
  0.280438559115E+00
  0.262996434853E+00
  0.281250303297E+00
  0.264558750288E+00
  0.282885585971E+00
  0.273362992369E+00
  0.294529601664E+00
  0.279728906776E+00
  0.302505251121E+00
  0.270883182005E+00
  0.286851182891E+00
  0.267758234337E+00
  0.271548189022E+00
  0.250190582580E+00
  0.291956677843E+00
  0.285923881595E+00
  0.313028708388E+00
  0.291461013728E+00
  0.310928263355E+00
  0.289682170776E+00
  0.344116719100E+00
  0.323957211717E+00
  0.370447393210E+00
  0.389735644306E+00
  0.456494162324E+00
  0.478716814634E+00
  0.478732205848E+00
  0.478732207539E+00
  0.478716816895E+00
  0.456494160326E+00
  0.389735643281E+00
  0.370447392863E+00
  0.323957207895E+00
  0.344116715615E+00
  0.289682176884E+00
  0.310928270899E+00
  0.291461015394E+00
  0.313028706476E+00
  0.285923883842E+00
  0.291956675129E+00
  0.250190576195E+00
  0.271548190965E+00
  0.267758229389E+00
  0.286851187933E+00
  0.270883196081E+00
  0.302505248610E+00
  0.279728896919E+00
  0.294529600562E+00
  0.273362987517E+00
  0.282885576627E+00
  0.264558746937E+00
  0.281250308468E+00
  0.262996430559E+00
  0.280438566948E+00
  0.263195053611E+00
  0.273512466572E+00
  0.257890366881E+00
  0.273115851513E+00
  0.267427907547E+00
  0.276278687462E+00
  0.264128839422E+00
  0.279424262975E+00
  0.263981017297E+00
  0.275904855172E+00
  0.267062687605E+00
  0.276131502604E+00
  0.269685639246E+00
 -0.253510605612E+00
 -0.282425098505E+00
 -0.951416078929E-01
 -0.135500011104E+00
 -0.836655689557E-01
 -0.878799032041E-01
 -0.504003913284E-01
 -0.774334013479E-01
 -0.444471680286E-01
 -0.532807869336E-01
 -0.673768441344E-01
 -0.658362956803E-01
 -0.629193778292E-01
 -0.649063271850E-01
 -0.499260367834E-01
 -0.540889823424E-01
 -0.583156533938E-01
 -0.596814969943E-01
 -0.632485258590E-01
 -0.647431751032E-01
 -0.561544934345E-01
 -0.568762172210E-01
 -0.612907770657E-01
 -0.629939722821E-01
 -0.596291810893E-01
 -0.591858195794E-01
 -0.613517345687E-01
 -0.620947845503E-01
 -0.591920152049E-01
 -0.605305774210E-01
 -0.616138509326E-01
 -0.613232204678E-01
 -0.615716108482E-01
 -0.622418112336E-01
 -0.618960308996E-01
 -0.621242209224E-01
 -0.618222396037E-01
 -0.619186147396E-01
 -0.620338578044E-01
 -0.623013605659E-01
 -0.619080006358E-01
 -0.617559181683E-01
 -0.622436103606E-01
 -0.619224327836E-01
 -0.626120160975E-01
 -0.621301701018E-01
 -0.626901805648E-01
 -0.622494228713E-01
 -0.616320780872E-01
 -0.613294585520E-01
 -0.619496494201E-01
 -0.605475255269E-01
 -0.621815482630E-01
 -0.621059144865E-01
 -0.608567805801E-01
 -0.592046849301E-01
 -0.631539301607E-01
 -0.630201931301E-01
 -0.600728466131E-01
 -0.569178677243E-01
 -0.649369580971E-01
 -0.647905941254E-01
 -0.632243701767E-01
 -0.597573259940E-01
 -0.569605355221E-01
 -0.541832463455E-01
 -0.693970728096E-01
 -0.650598864642E-01
 -0.697378940630E-01
 -0.660526202801E-01
 -0.674716986387E-01
 -0.539079666525E-01
 -0.918624849704E-01
 -0.787815317260E-01
 -0.105398946510E+00
 -0.890310503667E-01
 -0.203840148234E+00
 -0.145639193999E+00
 -0.283671348476E+00
 -0.286871777706E+00
  0.274262532918E+00
  0.282170886342E+00
  0.274024351984E+00
  0.290345563090E+00
  0.277404508271E+00
  0.281891829516E+00
  0.274461600972E+00
  0.279650283980E+00
  0.271335284805E+00
  0.282277811227E+00
  0.271804796848E+00
  0.283255877912E+00
  0.278774046313E+00
  0.294538684485E+00
  0.279618353004E+00
  0.297036406304E+00
  0.281236995046E+00
  0.306953704654E+00
  0.292550458838E+00
  0.325996924315E+00
  0.299901368375E+00
  0.309155714107E+00
  0.284732476584E+00
  0.287470375022E+00
  0.269653790585E+00
  0.308582144319E+00
  0.289936380889E+00
  0.327410934262E+00
  0.310109824323E+00
  0.318945915364E+00
  0.308806216713E+00
  0.347852681553E+00
  0.343412885538E+00
  0.401131245952E+00
  0.368470644935E+00
  0.421968648744E+00
  0.463276465479E+00
  0.476949127380E+00
  0.478732268768E+00
  0.478732353502E+00
  0.478732353124E+00
  0.478732269609E+00
  0.476949127259E+00
  0.463276463841E+00
  0.421968647308E+00
  0.368470644843E+00
  0.401131247186E+00
  0.343412882355E+00
  0.347852681428E+00
  0.308806224560E+00
  0.318945921394E+00
  0.310109822895E+00
  0.327410927889E+00
  0.289936378577E+00
  0.308582149194E+00
  0.269653792770E+00
  0.287470370228E+00
  0.284732481125E+00
  0.309155718408E+00
  0.299901366151E+00
  0.325996918991E+00
  0.292550457512E+00
  0.306953707969E+00
  0.281236985908E+00
  0.297036408520E+00
  0.279618358310E+00
  0.294538694609E+00
  0.278774054042E+00
  0.283255864038E+00
  0.271804793224E+00
  0.282277810588E+00
  0.271335273945E+00
  0.279650285005E+00
  0.274461602335E+00
  0.281891824150E+00
  0.277404510040E+00
  0.290345561580E+00
  0.274024347395E+00
  0.282170883128E+00
  0.274262531291E+00
 -0.286871779602E+00
 -0.283671348263E+00
 -0.145639190972E+00
 -0.203840144651E+00
 -0.890310454627E-01
 -0.105398946461E+00
 -0.787815376420E-01
 -0.918624884748E-01
 -0.539079604514E-01
 -0.674716953432E-01
 -0.660526269508E-01
 -0.697378987340E-01
 -0.650598823268E-01
 -0.693970695914E-01
 -0.541832477173E-01
 -0.569605364750E-01
 -0.597573254313E-01
 -0.632243688246E-01
 -0.647905938755E-01
 -0.649369594324E-01
 -0.569178681649E-01
 -0.600728464923E-01
 -0.630201930607E-01
 -0.631539299241E-01
 -0.592046846001E-01
 -0.608567803131E-01
 -0.621059142414E-01
 -0.621815481748E-01
 -0.605475256632E-01
 -0.619496495409E-01
 -0.613294589153E-01
 -0.616320786270E-01
 -0.622494231348E-01
 -0.626901807120E-01
 -0.621301702948E-01
 -0.626120162241E-01
 -0.619224333190E-01
 -0.622436106017E-01
 -0.623046093617E-01
 -0.627532467480E-01
 -0.615793743303E-01
 -0.619121126825E-01
 -0.628479412193E-01
 -0.622504323484E-01
 -0.631410862614E-01
 -0.626206459642E-01
 -0.635607842986E-01
 -0.627023624982E-01
 -0.620077162005E-01
 -0.616441685671E-01
 -0.629552478597E-01
 -0.619681108338E-01
 -0.631064276813E-01
 -0.621981690119E-01
 -0.627990267418E-01
 -0.608918975845E-01
 -0.639158451143E-01
 -0.631844022871E-01
 -0.621213506532E-01
 -0.601246038653E-01
 -0.678921554377E-01
 -0.650015575029E-01
 -0.657603545297E-01
 -0.633288252242E-01
 -0.611953759738E-01
 -0.570806258825E-01
 -0.721096173894E-01
 -0.695539902328E-01
 -0.764222441259E-01
 -0.699793266236E-01
 -0.880784973047E-01
 -0.684276942093E-01
 -0.955940794156E-01
 -0.925659474258E-01
 -0.138872240329E+00
 -0.107940793642E+00
 -0.254974959601E+00
 -0.212902718992E+00
 -0.270130345295E+00
 -0.280047123877E+00
  0.280143356886E+00
  0.295636451857E+00
  0.288197424349E+00
  0.287348987930E+00
  0.280003250228E+00
  0.293364001877E+00
  0.277525802386E+00
  0.284513909218E+00
  0.280219323713E+00
  0.293986005063E+00
  0.281082822316E+00
  0.301400649536E+00
  0.292013613154E+00
  0.304539011674E+00
  0.294634479771E+00
  0.318285720824E+00
  0.304473129315E+00
  0.341354214757E+00
  0.323046172068E+00
  0.315101843750E+00
  0.307325561340E+00
  0.299898507443E+00
  0.286304391890E+00
  0.326647988090E+00
  0.307299551116E+00
  0.346207105584E+00
  0.326047039383E+00
  0.343377417276E+00
  0.317045043361E+00
  0.358195239056E+00
  0.345708497351E+00
  0.400109947705E+00
  0.399761420105E+00
  0.416696189474E+00
  0.429415812740E+00
  0.473366165300E+00
  0.477573914539E+00
  0.478671088942E+00
  0.478732361311E+00
  0.478732368582E+00
  0.478732368416E+00
  0.478732361015E+00
  0.478671089281E+00
  0.477573915192E+00
  0.473366166049E+00
  0.429415811700E+00
  0.416696185898E+00
  0.399761421165E+00
  0.400109949076E+00
  0.345708496818E+00
  0.358195235655E+00
  0.317045048953E+00
  0.343377423698E+00
  0.326047033032E+00
  0.346207105304E+00
  0.307299555918E+00
  0.326647987457E+00
  0.286304387140E+00
  0.299898505528E+00
  0.307325565778E+00
  0.315101846325E+00
  0.323046167062E+00
  0.341354214897E+00
  0.304473132825E+00
  0.318285723437E+00
  0.294634481709E+00
  0.304539012014E+00
  0.292013622660E+00
  0.301400648634E+00
  0.281082808552E+00
  0.293986002429E+00
  0.280219323255E+00
  0.284513908124E+00
  0.277525803212E+00
  0.293363999444E+00
  0.280003244839E+00
  0.287348986473E+00
  0.288197422978E+00
  0.295636448579E+00
  0.280143353736E+00
 -0.280047123164E+00
 -0.270130345041E+00
 -0.212902714832E+00
 -0.254974958211E+00
 -0.107940793330E+00
 -0.138872236171E+00
 -0.925659509128E-01
 -0.955940836975E-01
 -0.684276909225E-01
 -0.880784929615E-01
 -0.699793313278E-01
 -0.764222495875E-01
 -0.695539870221E-01
 -0.721096132837E-01
 -0.570806268605E-01
 -0.611953786792E-01
 -0.633288238456E-01
 -0.657603531089E-01
 -0.650015588416E-01
 -0.678921558980E-01
 -0.601246037506E-01
 -0.621213505258E-01
 -0.631844020548E-01
 -0.639158448824E-01
 -0.608918973216E-01
 -0.627990270722E-01
 -0.621981689231E-01
 -0.631064277972E-01
 -0.619681109519E-01
 -0.629552481590E-01
 -0.616441691046E-01
 -0.620077167035E-01
 -0.627023626426E-01
 -0.635607847226E-01
 -0.626206460862E-01
 -0.631410859024E-01
 -0.622504325871E-01
 -0.628479406354E-01
 -0.627585697336E-01
 -0.639191047185E-01
 -0.581229728596E-01
 -0.615826758242E-01
 -0.635045775685E-01
 -0.628574773844E-01
 -0.641667222040E-01
 -0.631547495117E-01
 -0.639480905815E-01
 -0.635741638228E-01
 -0.635779548579E-01
 -0.620282454139E-01
 -0.628676668999E-01
 -0.629722595689E-01
 -0.665498717205E-01
 -0.631526659865E-01
 -0.616938062965E-01
 -0.628227326711E-01
 -0.693585765093E-01
 -0.639938807462E-01
 -0.612975421752E-01
 -0.621743177923E-01
 -0.716737676631E-01
 -0.679880553805E-01
 -0.704576861876E-01
 -0.658984977619E-01
 -0.649193392423E-01
 -0.613598788672E-01
 -0.754263906145E-01
 -0.722910131409E-01
 -0.898212018708E-01
 -0.770131579437E-01
 -0.100703435237E+00
 -0.890885477822E-01
 -0.101382347658E+00
 -0.959278443456E-01
 -0.197130695104E+00
 -0.144820065599E+00
 -0.272262016976E+00
 -0.260504019258E+00
 -0.255607969560E+00
 -0.265613168675E+00
  0.293713234572E+00
  0.296657926500E+00
  0.285383291490E+00
  0.299766232809E+00
  0.291283602550E+00
  0.298368098555E+00
  0.282518442376E+00
  0.297633675604E+00
  0.291826060277E+00
  0.312686821743E+00
  0.299118352914E+00
  0.315020442647E+00
  0.302067021088E+00
  0.328662108029E+00
  0.315487870338E+00
  0.358488257171E+00
  0.337856837718E+00
  0.306420626491E+00
  0.313244636097E+00
  0.312963314540E+00
  0.297812489259E+00
  0.335225672791E+00
  0.324519749027E+00
  0.364618062933E+00
  0.343889476825E+00
  0.353894246951E+00
  0.341732029086E+00
  0.376957189186E+00
  0.357214911486E+00
  0.414014717009E+00
  0.399267075804E+00
  0.408732709720E+00
  0.417518432755E+00
  0.471357477382E+00
  0.474606186709E+00
  0.478613552143E+00
  0.478691535931E+00
  0.478730404040E+00
  0.478732372329E+00
  0.478732381575E+00
  0.478732381732E+00
  0.478732372280E+00
  0.478730403771E+00
  0.478691536082E+00
  0.478613551906E+00
  0.474606187152E+00
  0.471357478506E+00
  0.417518429409E+00
  0.408732707287E+00
  0.399267077586E+00
  0.414014716145E+00
  0.357214908385E+00
  0.376957185456E+00
  0.341732035640E+00
  0.353894254396E+00
  0.343889476290E+00
  0.364618062905E+00
  0.324519748543E+00
  0.335225676538E+00
  0.297812487551E+00
  0.312963310806E+00
  0.313244638854E+00
  0.306420629713E+00
  0.337856837805E+00
  0.358488254483E+00
  0.315487872777E+00
  0.328662114117E+00
  0.302067021523E+00
  0.315020442291E+00
  0.299118352494E+00
  0.312686822167E+00
  0.291826057744E+00
  0.297633665680E+00
  0.282518441132E+00
  0.298368098175E+00
  0.291283600116E+00
  0.299766233305E+00
  0.285383289995E+00
  0.296657927254E+00
  0.293713231409E+00
 -0.265613168592E+00
 -0.255607970829E+00
 -0.260504018206E+00
 -0.272262016979E+00
 -0.144820061044E+00
 -0.197130689128E+00
 -0.959278486344E-01
 -0.101382349821E+00
 -0.890885434747E-01
 -0.100703432792E+00
 -0.770131634355E-01
 -0.898212048276E-01
 -0.722910090747E-01
 -0.754263900678E-01
 -0.613598815693E-01
 -0.649193408313E-01
 -0.658984963527E-01
 -0.704576853988E-01
 -0.679880558281E-01
 -0.716737670617E-01
 -0.621743176700E-01
 -0.612975425332E-01
 -0.639938805123E-01
 -0.693585769135E-01
 -0.628227329989E-01
 -0.616938067922E-01
 -0.631526660986E-01
 -0.665498721018E-01