# vtk DataFile Version 3.0
MachLine results file. Generated by MachLine, USU AeroLab (c) 2022.
ASCII
DATASET POLYDATA
POINTS                3023 float
  0.000000000000E+00  0.000000000000E+00  0.000000000000E+00
  0.895597194100E-03  0.000000000000E+00 -0.199021598700E-03
  0.895597194100E-03  0.000000000000E+00  0.199021598700E-03
  0.201978017300E-02  0.000000000000E+00 -0.448840038500E-03
  0.201978017300E-02  0.000000000000E+00  0.448840038500E-03
  0.342194336100E-02  0.000000000000E+00 -0.760431858100E-03
  0.342194336100E-02  0.000000000000E+00  0.760431858100E-03
  0.515701313700E-02  0.000000000000E+00 -0.114600291900E-02
  0.515701313700E-02  0.000000000000E+00  0.114600291900E-02
  0.728308852800E-02  0.000000000000E+00 -0.161846411700E-02
  0.728308852800E-02  0.000000000000E+00  0.161846411700E-02
  0.794107004000E-02  0.798275862100E-02  0.000000000000E+00
  0.794107004000E-02 -0.798275862100E-02  0.000000000000E+00
  0.880578457200E-02  0.798275862100E-02 -0.192158784900E-03
  0.880578457200E-02  0.798275862100E-02  0.192158784900E-03
  0.880578457200E-02 -0.798275862100E-02 -0.192158784900E-03
  0.880578457200E-02 -0.798275862100E-02  0.192158784900E-03
  0.985721679100E-02  0.000000000000E+00 -0.219049262000E-02
  0.985721679100E-02  0.000000000000E+00  0.219049262000E-02
  0.989120262100E-02  0.798275862100E-02 -0.433362795800E-03
  0.989120262100E-02  0.798275862100E-02  0.433362795800E-03
  0.989120262100E-02 -0.798275862100E-02 -0.433362795800E-03
  0.989120262100E-02 -0.798275862100E-02  0.433362795800E-03
  0.112450153500E-01  0.798275862100E-02 -0.734210069900E-03
  0.112450153500E-01  0.798275862100E-02  0.734210069900E-03
  0.112450153500E-01 -0.798275862100E-02 -0.734210069900E-03
  0.112450153500E-01 -0.798275862100E-02  0.734210069900E-03
  0.129202551400E-01  0.798275862100E-02 -0.110648557700E-02
  0.129202551400E-01  0.798275862100E-02  0.110648557700E-02
  0.129202551400E-01 -0.798275862100E-02 -0.110648557700E-02
  0.129202551400E-01 -0.798275862100E-02  0.110648557700E-02
  0.129289354500E-01  0.000000000000E+00 -0.287309676700E-02
  0.129289354500E-01  0.000000000000E+00  0.287309676700E-02
  0.149730175800E-01  0.798275862100E-02 -0.156265501000E-02
  0.149730175800E-01  0.798275862100E-02  0.156265501000E-02
  0.149730175800E-01 -0.798275862100E-02 -0.156265501000E-02
  0.149730175800E-01 -0.798275862100E-02  0.156265501000E-02
  0.158821400800E-01  0.159655172400E-01  0.000000000000E+00
  0.158821400800E-01 -0.159655172400E-01  0.000000000000E+00
  0.165316099200E-01  0.000000000000E+00 -0.367369109300E-02
  0.165316099200E-01  0.000000000000E+00  0.367369109300E-02
  0.167159719500E-01  0.159655172400E-01 -0.185295971200E-03
  0.167159719500E-01  0.159655172400E-01  0.185295971200E-03
  0.167159719500E-01 -0.159655172400E-01 -0.185295971200E-03
  0.167159719500E-01 -0.159655172400E-01  0.185295971200E-03
  0.174583828000E-01  0.798275862100E-02 -0.211495839200E-02
  0.174583828000E-01  0.798275862100E-02  0.211495839200E-02
  0.174583828000E-01 -0.798275862100E-02 -0.211495839200E-02
  0.174583828000E-01 -0.798275862100E-02  0.211495839200E-02
  0.177626250700E-01  0.159655172400E-01 -0.417885553100E-03
  0.177626250700E-01  0.159655172400E-01  0.417885553100E-03
  0.177626250700E-01 -0.159655172400E-01 -0.417885553100E-03
  0.177626250700E-01 -0.159655172400E-01  0.417885553100E-03
  0.190680873500E-01  0.159655172400E-01 -0.707988281700E-03
  0.190680873500E-01  0.159655172400E-01  0.707988281700E-03
  0.190680873500E-01 -0.159655172400E-01 -0.707988281700E-03
  0.190680873500E-01 -0.159655172400E-01  0.707988281700E-03
  0.204241801300E-01  0.798275862100E-02 -0.277402446500E-02
  0.204241801300E-01  0.798275862100E-02  0.277402446500E-02
  0.204241801300E-01 -0.798275862100E-02 -0.277402446500E-02
  0.204241801300E-01 -0.798275862100E-02  0.277402446500E-02
  0.206723337900E-01  0.000000000000E+00 -0.459385195200E-02
  0.206723337900E-01  0.000000000000E+00  0.459385195200E-02
  0.206834971400E-01  0.159655172400E-01 -0.106696823500E-02
  0.206834971400E-01  0.159655172400E-01  0.106696823500E-02
  0.206834971400E-01 -0.159655172400E-01 -0.106696823500E-02
  0.206834971400E-01 -0.159655172400E-01  0.106696823500E-02
  0.226629466400E-01  0.159655172400E-01 -0.150684590200E-02
  0.226629466400E-01  0.159655172400E-01  0.150684590200E-02
  0.226629466400E-01 -0.159655172400E-01 -0.150684590200E-02
  0.226629466400E-01 -0.159655172400E-01  0.150684590200E-02
  0.238232101200E-01  0.239482758600E-01  0.000000000000E+00
  0.238232101200E-01 -0.239482758600E-01  0.000000000000E+00
  0.239026244400E-01  0.798275862100E-02 -0.354701209000E-02
  0.239026244400E-01  0.798275862100E-02  0.354701209000E-02
  0.239026244400E-01 -0.798275862100E-02 -0.354701209000E-02
  0.239026244400E-01 -0.798275862100E-02  0.354701209000E-02
  0.246261593300E-01  0.239482758600E-01 -0.178433157400E-03
  0.246261593300E-01  0.239482758600E-01  0.178433157400E-03
  0.246261593300E-01 -0.239482758600E-01 -0.178433157400E-03
  0.246261593300E-01 -0.239482758600E-01  0.178433157400E-03
  0.250595488200E-01  0.159655172400E-01 -0.203942416400E-02
  0.250595488200E-01  0.159655172400E-01  0.203942416400E-02
  0.250595488200E-01 -0.159655172400E-01 -0.203942416400E-02
  0.250595488200E-01 -0.159655172400E-01  0.203942416400E-02
  0.253221652800E-01  0.000000000000E+00 -0.562714784000E-02
  0.253221652800E-01  0.000000000000E+00  0.562714784000E-02
  0.256340475200E-01  0.239482758600E-01 -0.402408310400E-03
  0.256340475200E-01  0.239482758600E-01  0.402408310400E-03
  0.256340475200E-01 -0.239482758600E-01 -0.402408310400E-03
  0.256340475200E-01 -0.239482758600E-01  0.402408310400E-03
  0.268911593400E-01  0.239482758600E-01 -0.681766493500E-03
  0.268911593400E-01  0.239482758600E-01  0.681766493500E-03
  0.268911593400E-01 -0.239482758600E-01 -0.681766493500E-03
  0.268911593400E-01 -0.239482758600E-01  0.681766493500E-03
  0.279005647300E-01  0.798275862100E-02 -0.443544326400E-02
  0.279005647300E-01  0.798275862100E-02  0.443544326400E-02
  0.279005647300E-01 -0.798275862100E-02 -0.443544326400E-02
  0.279005647300E-01 -0.798275862100E-02  0.443544326400E-02
  0.279194248100E-01  0.159655172400E-01 -0.267495216300E-02
  0.279194248100E-01  0.159655172400E-01  0.267495216300E-02
  0.279194248100E-01 -0.159655172400E-01 -0.267495216300E-02
  0.279194248100E-01 -0.159655172400E-01  0.267495216300E-02
  0.284467391400E-01  0.239482758600E-01 -0.102745089300E-02
  0.284467391400E-01  0.239482758600E-01  0.102745089300E-02
  0.284467391400E-01 -0.239482758600E-01 -0.102745089300E-02
  0.284467391400E-01 -0.239482758600E-01  0.102745089300E-02
  0.303528757000E-01  0.239482758600E-01 -0.145103679500E-02
  0.303528757000E-01  0.239482758600E-01  0.145103679500E-02
  0.303528757000E-01 -0.239482758600E-01 -0.145103679500E-02
  0.303528757000E-01 -0.239482758600E-01  0.145103679500E-02
  0.304094174800E-01  0.000000000000E+00 -0.675764833000E-02
  0.304094174800E-01  0.000000000000E+00  0.675764833000E-02
  0.312736389700E-01  0.159655172400E-01 -0.342033308700E-02
  0.312736389700E-01  0.159655172400E-01  0.342033308700E-02
  0.312736389700E-01 -0.159655172400E-01 -0.342033308700E-02
  0.312736389700E-01 -0.159655172400E-01  0.342033308700E-02
  0.317642801600E-01  0.319310344800E-01  0.000000000000E+00
  0.317642801600E-01 -0.319310344800E-01  0.000000000000E+00
  0.323900572000E-01  0.798275862100E-02 -0.543310825900E-02
  0.323900572000E-01  0.798275862100E-02  0.543310825900E-02
  0.323900572000E-01 -0.798275862100E-02 -0.543310825900E-02
  0.323900572000E-01 -0.798275862100E-02  0.543310825900E-02
  0.325363467000E-01  0.319310344800E-01 -0.171570343700E-03
  0.325363467000E-01  0.319310344800E-01  0.171570343700E-03
  0.325363467000E-01 -0.319310344800E-01 -0.171570343700E-03
  0.325363467000E-01 -0.319310344800E-01  0.171570343700E-03
  0.326607148300E-01  0.239482758600E-01 -0.196388993500E-02
  0.326607148300E-01  0.239482758600E-01  0.196388993500E-02
  0.326607148300E-01 -0.239482758600E-01 -0.196388993500E-02
  0.326607148300E-01 -0.239482758600E-01  0.196388993500E-02
  0.335054699600E-01  0.319310344800E-01 -0.386931067700E-03
  0.335054699600E-01  0.319310344800E-01  0.386931067700E-03
  0.335054699600E-01 -0.319310344800E-01 -0.386931067700E-03
  0.335054699600E-01 -0.319310344800E-01  0.386931067700E-03
  0.347142313300E-01  0.319310344800E-01 -0.655544705300E-03
  0.347142313300E-01  0.319310344800E-01  0.655544705300E-03
  0.347142313300E-01 -0.319310344800E-01 -0.655544705300E-03
  0.347142313300E-01 -0.319310344800E-01  0.655544705300E-03
  0.351287956700E-01  0.159655172400E-01 -0.427703457600E-02
  0.351287956700E-01  0.159655172400E-01  0.427703457600E-02
  0.351287956700E-01 -0.159655172400E-01 -0.427703457600E-02
  0.351287956700E-01 -0.159655172400E-01  0.427703457600E-02
  0.354146694900E-01  0.239482758600E-01 -0.257587986000E-02
  0.354146694900E-01  0.239482758600E-01  0.257587986000E-02
  0.354146694900E-01 -0.239482758600E-01 -0.257587986000E-02
  0.354146694900E-01 -0.239482758600E-01  0.257587986000E-02
  0.358190159300E-01  0.000000000000E+00 -0.795978131800E-02
  0.358190159300E-01  0.000000000000E+00  0.795978131800E-02
  0.362099811400E-01  0.319310344800E-01 -0.987933551200E-03
  0.362099811400E-01  0.319310344800E-01  0.987933551200E-03
  0.362099811400E-01 -0.319310344800E-01 -0.987933551200E-03
  0.362099811400E-01 -0.319310344800E-01  0.987933551200E-03
  0.373018869200E-01  0.798275862100E-02 -0.652462597400E-02
  0.373018869200E-01  0.798275862100E-02  0.652462597400E-02
  0.373018869200E-01 -0.798275862100E-02 -0.652462597400E-02
  0.373018869200E-01 -0.798275862100E-02  0.652462597400E-02
  0.380428047500E-01  0.319310344800E-01 -0.139522768700E-02
  0.380428047500E-01  0.319310344800E-01  0.139522768700E-02
  0.380428047500E-01 -0.319310344800E-01 -0.139522768700E-02
  0.380428047500E-01 -0.319310344800E-01  0.139522768700E-02
[...]
CELL_DATA                5928
SCALARS C_p_ise float 1
LOOKUP_TABLE default
 -0.472408257725E-01
 -0.471840647221E-01
 -0.471362789060E-01
 -0.470463804016E-01
 -0.471584626485E-01
 -0.468988785486E-01
 -0.471082072310E-01
 -0.468814053797E-01
 -0.459722115499E-01
 -0.461635392306E-01
 -0.478729928643E-01
 -0.486117664411E-01
 -0.428113554071E-01
 -0.411830553708E-01
 -0.512500737915E-01
 -0.512421853400E-01
 -0.321565071732E-01
 -0.305542700290E-01
 -0.586438898642E-01
 -0.578666586224E-01
 -0.241663479010E-01
 -0.151401787859E-01
 -0.557920839109E-01
 -0.564417456185E-01
 -0.913514635051E-01
 -0.414626532001E-01
  0.210914936506E+00
  0.217742510720E+00
  0.208285290318E+00
  0.217602387365E+00
  0.206518883284E+00
  0.218711128256E+00
  0.206587102722E+00
  0.234197836597E+00
  0.207112502035E+00
  0.240143295323E+00
  0.207615310978E+00
  0.262788530263E+00
  0.209342163889E+00
  0.252658974847E+00
  0.210824751994E+00
  0.254735689886E+00
  0.213259316523E+00
  0.324544155387E+00
  0.212518892359E+00
  0.347647564387E+00
  0.209480628982E+00
  0.327567180430E+00
  0.208869334646E+00
  0.324871932873E+00
  0.206797236364E+00
  0.316651158392E+00
  0.316651158392E+00
  0.206797236364E+00
  0.324871932873E+00
  0.208869334646E+00
  0.327567180430E+00
  0.209480628982E+00
  0.347647564387E+00
  0.212518892359E+00
  0.324544155387E+00
  0.213259316523E+00
  0.254735689886E+00
  0.210824751994E+00
  0.252658974847E+00
  0.209342163889E+00
  0.262788530263E+00
  0.207615310978E+00
  0.240143295323E+00
  0.207112502035E+00
  0.234197836597E+00
  0.206587102722E+00
  0.218711128256E+00
  0.206518883284E+00
  0.217602387366E+00
  0.208285290318E+00
  0.217742510720E+00
  0.210914936506E+00
 -0.414626532001E-01
 -0.913514635051E-01
 -0.564417456185E-01
 -0.557920839109E-01
 -0.151401787858E-01
 -0.241663479011E-01
 -0.578666586224E-01
 -0.586438898641E-01
 -0.305542700290E-01
 -0.321565071731E-01
 -0.512421853400E-01
 -0.512500737914E-01
 -0.411830553708E-01
 -0.428113554072E-01
 -0.486117664411E-01
 -0.478729928643E-01
 -0.461635392306E-01
 -0.459722115499E-01
 -0.468814053797E-01
 -0.471082072310E-01
 -0.468988785487E-01
 -0.471584626485E-01
 -0.470463804016E-01
 -0.471362789060E-01
 -0.471840652625E-01
 -0.472408258831E-01
 -0.474159505363E-01
 -0.472427478808E-01
 -0.474524365226E-01
 -0.471384767381E-01
 -0.471237668831E-01
 -0.471605878676E-01
 -0.475335899309E-01
 -0.471108675079E-01
 -0.465180741488E-01
 -0.459757635862E-01
 -0.483914399716E-01
 -0.478787595281E-01
 -0.422121309437E-01
 -0.428134795323E-01
 -0.513650108360E-01
 -0.512526048188E-01
 -0.374550146239E-01
 -0.321857474584E-01
 -0.542775436863E-01
 -0.586299747297E-01
 -0.358643839022E-01
 -0.243226496685E-01
 -0.662167722140E-01
 -0.567089714328E-01
 -0.123934956164E+00
 -0.996630433212E-01
  0.215874312087E+00
  0.233907779995E+00
  0.215119661183E+00
  0.236254896879E+00
  0.215377218513E+00
  0.235197958204E+00
  0.229564908097E+00
  0.241673268216E+00
  0.235292645850E+00
  0.291413198664E+00
  0.254860478898E+00
  0.295530462475E+00
  0.243815783982E+00
  0.329355809897E+00
  0.240670291161E+00
  0.317545080827E+00
  0.301773204460E+00
  0.314157094498E+00
  0.328724430064E+00
  0.315195943383E+00
  0.317373670289E+00
  0.315936864052E+00
  0.320210961183E+00
  0.315870125315E+00
  0.316673177592E+00
  0.316703708488E+00
  0.316703708488E+00
  0.316673177592E+00
  0.315870125315E+00
  0.320210961183E+00
  0.315936864052E+00
  0.317373670289E+00
  0.315195943383E+00
  0.328724430064E+00
  0.314157094498E+00
  0.301773204460E+00
  0.317545080827E+00
  0.240670291161E+00
  0.329355809897E+00
  0.243815783983E+00
  0.295530462475E+00
  0.254860478898E+00
  0.291413198664E+00
  0.235292645850E+00
  0.241673268216E+00
  0.229564908097E+00
  0.235197958204E+00
  0.215377218513E+00
  0.236254896879E+00
  0.215119661183E+00
  0.233907779995E+00
  0.215874312087E+00
 -0.996630433212E-01
 -0.123934956164E+00
 -0.567089714328E-01
 -0.662167722142E-01
 -0.243226496686E-01
 -0.358643839021E-01
 -0.586299747297E-01
 -0.542775436863E-01
 -0.321857474583E-01
 -0.374550146237E-01
 -0.512526048187E-01
 -0.513650108361E-01
 -0.428134795324E-01
 -0.422121309438E-01
 -0.478787595282E-01
 -0.483914399717E-01
 -0.459757635862E-01
 -0.465180741488E-01
 -0.471108675079E-01
 -0.475335899310E-01
 -0.471605878676E-01
 -0.471237668831E-01
 -0.471384767381E-01
 -0.474524365226E-01
 -0.472427479913E-01
 -0.474159505841E-01
 -0.478777703496E-01
 -0.474201684767E-01
 -0.477196333999E-01
 -0.474569224849E-01
 -0.477949546696E-01
 -0.471292630588E-01
 -0.474591853526E-01
 -0.475389579959E-01
 -0.479858105276E-01
 -0.465278060594E-01
 -0.462913276876E-01
 -0.483918439596E-01
 -0.463473944598E-01
 -0.422333499543E-01
 -0.509941910365E-01
 -0.513914379990E-01
 -0.425618718440E-01
 -0.375365032753E-01
 -0.553937656179E-01
 -0.543651951496E-01
 -0.497598511878E-01
 -0.366272016877E-01
 -0.817658666831E-01
 -0.688549426063E-01
 -0.135081137614E+00
 -0.128085317919E+00
  0.231290160748E+00
  0.248090544459E+00
  0.233543609031E+00
  0.250028157175E+00
  0.232413295808E+00
  0.275203758841E+00
  0.235867459902E+00
  0.286845315002E+00
  0.282192892110E+00
  0.324445957904E+00
  0.283517351048E+00
  0.315037764265E+00
  0.319758671259E+00
  0.315930787608E+00
  0.317666872605E+00
  0.316155984080E+00
  0.315854431720E+00
  0.316061459634E+00
  0.315590591750E+00
  0.316066112530E+00
  0.316187828672E+00
  0.316192651520E+00
  0.315869243405E+00
  0.315861574255E+00
  0.316704620740E+00
  0.316726267520E+00
  0.316726267520E+00
  0.316704620740E+00
  0.315861574255E+00
  0.315869243405E+00
  0.316192651520E+00
  0.316187828672E+00
  0.316066112530E+00
  0.315590591751E+00
  0.316061459634E+00
  0.315854431720E+00
  0.316155984080E+00
  0.317666872605E+00
  0.315930787607E+00
  0.319758671258E+00
  0.315037764265E+00
  0.283517351048E+00
  0.324445957904E+00
  0.282192892110E+00
  0.286845315002E+00
  0.235867459902E+00
  0.275203758841E+00
  0.232413295808E+00
  0.250028157175E+00
  0.233543609031E+00
  0.248090544459E+00
  0.231290160748E+00
 -0.128085317919E+00
 -0.135081137615E+00
 -0.688549426064E-01
 -0.817658666831E-01
 -0.366272016876E-01
 -0.497598511878E-01
 -0.543651951496E-01
 -0.553937656178E-01
 -0.375365032751E-01
 -0.425618718440E-01
 -0.513914379991E-01
 -0.509941910364E-01
 -0.422333499543E-01
 -0.463473944598E-01
 -0.483918439597E-01
 -0.462913276876E-01
 -0.465278060594E-01
 -0.479858105276E-01
 -0.475389579960E-01
 -0.474591853526E-01
 -0.471292630588E-01
 -0.477949546696E-01
 -0.474569224850E-01
 -0.477196333999E-01
 -0.474201685245E-01
 -0.478777707957E-01
 -0.482586485567E-01
 -0.478841051866E-01
 -0.483337419417E-01
 -0.477266495810E-01
 -0.484373670823E-01
 -0.478032563735E-01
 -0.481046696989E-01
 -0.474683250712E-01
 -0.475998443669E-01
 -0.479935034502E-01
 -0.492461486659E-01
 -0.463119047748E-01
 -0.477990823341E-01
 -0.463902601336E-01
 -0.505444480882E-01
 -0.510061701392E-01
 -0.442307761493E-01
 -0.425976087917E-01
 -0.627333394451E-01
 -0.555852323712E-01
 -0.526728828395E-01
 -0.500391823243E-01
 -0.117777485149E+00
 -0.868325217009E-01
 -0.124297170682E+00
 -0.134989839671E+00
  0.245422667609E+00
  0.263277858233E+00
  0.246991756888E+00
  0.286523307481E+00
  0.271348261544E+00
  0.317176056558E+00
  0.281846080407E+00
  0.315700908183E+00
  0.318991116181E+00
  0.316073775156E+00
  0.315861609862E+00
  0.316107301327E+00
  0.316076501743E+00
  0.316111235853E+00
  0.316093144646E+00
  0.316104522874E+00
  0.316019702536E+00
  0.316017558255E+00
  0.316066027564E+00
  0.316065611633E+00
  0.316192936199E+00
  0.316196955434E+00
  0.315861177625E+00
  0.315853385228E+00
  0.316727215938E+00
  0.316750635936E+00
  0.316750635936E+00
  0.316727215938E+00
  0.315853385228E+00
  0.315861177625E+00
  0.316196955434E+00
  0.316192936199E+00
  0.316065611633E+00
  0.316066027564E+00
  0.316017558255E+00
  0.316019702536E+00
  0.316104522874E+00
  0.316093144646E+00
  0.316111235854E+00
  0.316076501743E+00
  0.316107301328E+00
  0.315861609862E+00
  0.316073775156E+00
  0.318991116181E+00
  0.315700908183E+00
  0.281846080407E+00
  0.317176056558E+00
  0.271348261544E+00
  0.286523307481E+00
  0.246991756888E+00
  0.263277858233E+00
  0.245422667609E+00
 -0.134989839671E+00
 -0.124297170682E+00
 -0.868325217008E-01
 -0.117777485149E+00
 -0.500391823243E-01
 -0.526728828394E-01
 -0.555852323711E-01
 -0.627333394451E-01
 -0.425976087917E-01
 -0.442307761493E-01
 -0.510061701391E-01
 -0.505444480881E-01
 -0.463902601336E-01
 -0.477990823341E-01
 -0.463119047749E-01
 -0.492461486658E-01
 -0.479935034503E-01
 -0.475998443669E-01
 -0.474683250712E-01
 -0.481046696990E-01
 -0.478032563736E-01
 -0.484373670823E-01
 -0.477266495811E-01
 -0.483337419416E-01
 -0.478841056332E-01
 -0.482586486734E-01
 -0.489252613156E-01
 -0.482679431759E-01
 -0.491364165850E-01
 -0.483444530355E-01
 -0.482613764504E-01
 -0.484462020407E-01
 -0.495607695867E-01
 -0.481178380387E-01
 -0.491761494368E-01
 -0.476198212391E-01
 -0.497304108594E-01
 -0.492720219531E-01
 -0.495495799697E-01
 -0.478229998543E-01
 -0.522911333269E-01
 -0.505805379176E-01
 -0.526819437858E-01
 -0.444844454991E-01
 -0.608824516762E-01
 -0.629294394666E-01
 -0.683018840435E-01
 -0.535842083021E-01
 -0.136561622322E+00
 -0.121956023555E+00
 -0.106111142631E+00
 -0.119102737421E+00
  0.259842194685E+00
  0.304449908245E+00
  0.281153015568E+00
  0.318973396763E+00
  0.311469855252E+00
  0.315831355557E+00
  0.316259416163E+00
  0.316080639965E+00
  0.316025843305E+00
  0.316062814565E+00
  0.316097828765E+00
  0.316081212096E+00
  0.316110037216E+00
  0.316111076606E+00
  0.316104636869E+00
  0.316105533041E+00
  0.316017343021E+00
  0.316015139476E+00
  0.316065572667E+00
  0.316065066611E+00
  0.316197224516E+00
  0.316201591250E+00
  0.315852972504E+00
  0.315844513514E+00
  0.316751622454E+00
  0.316777036491E+00
  0.316777036491E+00
  0.316751622454E+00
  0.315844513514E+00
  0.315852972504E+00
  0.316201591250E+00
  0.316197224516E+00
  0.316065066611E+00
  0.316065572667E+00
  0.316015139476E+00
  0.316017343021E+00
  0.316105533041E+00
  0.316104636869E+00
  0.316111076606E+00
  0.316110037216E+00
  0.316081212096E+00
  0.316097828766E+00
  0.316062814565E+00
  0.316025843305E+00
  0.316080639965E+00
  0.316259416163E+00
  0.315831355557E+00
  0.311469855252E+00
  0.318973396763E+00
  0.281153015568E+00
  0.304449908245E+00
  0.259842194685E+00
 -0.119102737421E+00
 -0.106111142631E+00
 -0.121956023555E+00
 -0.136561622322E+00
 -0.535842083020E-01
 -0.683018840435E-01
 -0.629294394666E-01
 -0.608824516759E-01
 -0.444844454990E-01
 -0.526819437857E-01
 -0.505805379175E-01
 -0.522911333268E-01
 -0.478229998543E-01
 -0.495495799697E-01
 -0.492720219531E-01
 -0.497304108593E-01
 -0.476198212391E-01
 -0.491761494368E-01
 -0.481178380387E-01
 -0.495607695867E-01
 -0.484462020407E-01
 -0.482613764504E-01
 -0.483444530354E-01
 -0.491364165849E-01
 -0.482679432921E-01
 -0.489252611091E-01
 -0.496662165980E-01
 -0.489374086905E-01
 -0.497486104329E-01
 -0.491490202883E-01
 -0.499687865272E-01
 -0.482785532108E-01
 -0.504761769566E-01
 -0.495834040217E-01
 -0.505528475272E-01
 -0.492017939253E-01
 -0.508255470889E-01
 -0.497564154238E-01
 -0.540939057799E-01
 -0.496343147597E-01
 -0.495816363986E-01
 -0.523099682228E-01
 -0.636428888040E-01
 -0.529850941878E-01
 -0.603554556365E-01
 -0.609141805065E-01
 -0.108043783883E+00
 -0.729890813927E-01
 -0.126383683067E+00
 -0.137898877751E+00
 -0.766087508765E-01
 -0.101497807771E+00
  0.298667037583E+00
  0.315566118454E+00
  0.317543182119E+00
  0.316122425975E+00
  0.315907078296E+00
  0.316075739017E+00
  0.316073208716E+00
  0.316061230626E+00
  0.316065712401E+00
  0.316065282043E+00
  0.316081226302E+00
  0.316081293020E+00
  0.316111235143E+00
  0.316112403608E+00
  0.316105642236E+00
  0.316106620137E+00
  0.316014918696E+00
  0.316012504848E+00
  0.316065025885E+00
  0.316064473415E+00
  0.316201871553E+00
  0.316206629993E+00
  0.315844083714E+00
  0.315834869688E+00
  0.316778064431E+00
  0.316805735784E+00
  0.316805735784E+00
  0.316778064431E+00
  0.315834869688E+00
  0.315844083714E+00
  0.316206629993E+00
  0.316201871553E+00
  0.316064473415E+00
  0.316065025885E+00
  0.316012504848E+00
  0.316014918696E+00
  0.316106620137E+00
  0.316105642236E+00
  0.316112403608E+00
  0.316111235143E+00
  0.316081293020E+00
  0.316081226302E+00
  0.316065282043E+00
  0.316065712401E+00
  0.316061230626E+00
  0.316073208716E+00
  0.316075739017E+00
  0.315907078296E+00
  0.316122425975E+00
  0.317543182119E+00
  0.315566118454E+00
  0.298667037583E+00
 -0.101497807771E+00
 -0.766087508766E-01
 -0.137898877751E+00
 -0.126383683067E+00
 -0.729890813928E-01
 -0.108043783883E+00
 -0.609141805063E-01
 -0.603554556366E-01
 -0.529850941878E-01
 -0.636428888040E-01
 -0.523099682228E-01
 -0.495816363986E-01
 -0.496343147596E-01
 -0.540939057799E-01
 -0.497564154237E-01
 -0.508255470888E-01
 -0.492017939253E-01
 -0.505528475271E-01
 -0.495834040216E-01
 -0.504761769566E-01
 -0.482785532108E-01
 -0.499687865272E-01
 -0.491490202882E-01
 -0.497486104330E-01
 -0.489374084833E-01
 -0.496662165749E-01
 -0.509897998705E-01
 -0.496838282185E-01
 -0.513440716243E-01
 -0.497700725636E-01
 -0.512040624643E-01
 -0.499940619785E-01
 -0.518537162709E-01
 -0.505028149660E-01
 -0.523119110665E-01
 -0.505887260101E-01
 -0.546622787691E-01
 -0.508959298184E-01
 -0.540801920582E-01
 -0.541541229148E-01
 -0.599494852914E-01
 -0.498271939005E-01
 -0.637828080427E-01
 -0.639683870438E-01
 -0.734830864341E-01
 -0.610716277085E-01
 -0.129406029323E+00
 -0.111705913758E+00
 -0.105586705710E+00
 -0.121978729884E+00
 -0.514561019574E-01
 -0.741964731624E-01
  0.315945244165E+00
  0.316088898302E+00
  0.316082580358E+00
  0.316082637713E+00
  0.316078177608E+00
  0.316077559538E+00
  0.316061092708E+00
  0.316060428532E+00
  0.316065195282E+00
  0.316064694492E+00
  0.316081308208E+00
  0.316081403063E+00
  0.316112570538E+00
  0.316113851597E+00
  0.316106735425E+00
  0.316107814120E+00
  0.316012274348E+00
  0.316009629918E+00
  0.316064430925E+00
  0.316063823824E+00
  0.316206922658E+00
  0.316212127567E+00
  0.315834421320E+00
  0.315824349614E+00
  0.316806808763E+00
  0.316837047452E+00
  0.316837047452E+00
  0.316806808763E+00
  0.315824349614E+00
  0.315834421320E+00
  0.316212127567E+00
  0.316206922659E+00
  0.316063823824E+00
  0.316064430925E+00
  0.316009629918E+00
  0.316012274348E+00
  0.316107814120E+00
  0.316106735425E+00
  0.316113851597E+00
  0.316112570538E+00
  0.316081403063E+00
  0.316081308208E+00
  0.316064694492E+00
  0.316065195282E+00
  0.316060428532E+00
  0.316061092708E+00
  0.316077559537E+00
  0.316078177608E+00
  0.316082637713E+00
  0.316082580358E+00
  0.316088898302E+00
  0.315945244165E+00
 -0.741964731624E-01
 -0.514561019573E-01
 -0.121978729884E+00
 -0.105586705710E+00
 -0.111705913759E+00
 -0.129406029323E+00
 -0.610716277085E-01
 -0.734830864341E-01
 -0.639683870438E-01
 -0.637828080427E-01
 -0.498271939004E-01
 -0.599494852914E-01
 -0.541541229148E-01
 -0.540801920582E-01
 -0.508959298184E-01
 -0.546622787691E-01
 -0.505887260100E-01
 -0.523119110664E-01
 -0.505028149660E-01
 -0.518537162709E-01
 -0.499940619784E-01
 -0.512040624642E-01
 -0.497700725637E-01
 -0.513440716240E-01
 -0.496838281958E-01
 -0.509897999859E-01
 -0.525132302314E-01
 -0.510152237662E-01
 -0.528918039919E-01
 -0.513720151754E-01
 -0.535424607593E-01
 -0.512386397989E-01
 -0.546104420845E-01
 -0.519023513097E-01
 -0.552147123029E-01
 -0.523805614390E-01
 -0.557872990965E-01
 -0.547308222950E-01
 -0.601979124185E-01
 -0.542163261872E-01
 -0.635285765222E-01
 -0.601896712249E-01
 -0.673820887552E-01
 -0.638778274794E-01
 -0.116587141503E+00
 -0.778063439007E-01
 -0.117284497210E+00
 -0.130799581623E+00
 -0.798218564666E-01
 -0.101862748829E+00
 -0.378720207321E-01
 -0.508094066322E-01
  0.316088583058E+00
  0.316086610181E+00
  0.316082802466E+00
  0.316082930866E+00
  0.316077547599E+00
  0.316077475437E+00
  0.316060289120E+00
  0.316059572307E+00
  0.316064600064E+00
  0.316064070982E+00
  0.316081414541E+00
  0.316081490209E+00
  0.316114026075E+00
  0.316115432293E+00
  0.316107936028E+00
  0.316109133808E+00
  0.316009389069E+00
  0.316006480717E+00
  0.316063779269E+00
  0.316063110322E+00
  0.316212433583E+00
  0.316218150520E+00
  0.315823880866E+00
  0.315812825727E+00
  0.316838169709E+00
  0.316871345014E+00
  0.316871345014E+00
  0.316838169709E+00
  0.315812825727E+00
  0.315823880866E+00
  0.316218150520E+00
  0.316212433583E+00
  0.316063110322E+00
  0.316063779269E+00
  0.316006480717E+00
  0.316009389069E+00
  0.316109133808E+00
  0.316107936028E+00
  0.316115432293E+00
  0.316114026075E+00
  0.316081490209E+00
  0.316081414542E+00
  0.316064070982E+00
  0.316064600064E+00
  0.316059572307E+00
  0.316060289120E+00
  0.316077475437E+00
  0.316077547599E+00
  0.316082930866E+00
  0.316082802466E+00
  0.316086610182E+00
  0.316088583058E+00
 -0.508094066321E-01
 -0.378720207321E-01
 -0.101862748829E+00
 -0.798218564666E-01
 -0.130799581623E+00
 -0.117284497210E+00
 -0.778063439007E-01
 -0.116587141503E+00
 -0.638778274794E-01
 -0.673820887552E-01
 -0.601896712249E-01
 -0.635285765222E-01
 -0.542163261871E-01
 -0.601979124184E-01
 -0.547308222950E-01
 -0.557872990965E-01
 -0.523805614389E-01
 -0.552147123029E-01
 -0.519023513096E-01
 -0.546104420845E-01
 -0.512386397989E-01
 -0.535424607593E-01
 -0.513720151752E-01
 -0.528918039917E-01
 -0.510152238821E-01
 -0.525132302394E-01
 -0.547453919035E-01
 -0.525570138086E-01
 -0.554910443966E-01
 -0.529431771290E-01
 -0.560666586145E-01
 -0.536033502407E-01
 -0.571562645029E-01
 -0.546796904067E-01
 -0.580993640727E-01
 -0.552954355807E-01
 -0.620868658765E-01
 -0.559395377975E-01
 -0.640451282525E-01
 -0.604243862221E-01
 -0.693455566954E-01
 -0.638189940419E-01
 -0.969948539565E-01
 -0.694837636444E-01
 -0.122996261189E+00
 -0.119274309768E+00
 -0.968774654372E-01
 -0.113265939596E+00
 -0.504677928419E-01
 -0.774277994593E-01
 -0.390556922722E-01
 -0.379569768951E-01
  0.316086677287E+00
  0.316086954862E+00
  0.316082967400E+00
  0.316083122201E+00
  0.316077462177E+00
  0.316077424426E+00
  0.316059420288E+00
  0.316058608224E+00
  0.316063973370E+00
  0.316063384430E+00
  0.316081499527E+00
  0.316081557832E+00
  0.316115615100E+00
  0.316117160859E+00
  0.316109263850E+00
  0.316110614148E+00
  0.316006228145E+00
  0.316003015762E+00
  0.316063063338E+00
  0.316062323362E+00
  0.316218471104E+00
  0.316224776870E+00
  0.315812334462E+00
  0.315800147685E+00
  0.316872521045E+00
  0.316909078293E+00
  0.316909078293E+00
  0.316872521045E+00
  0.315800147685E+00
  0.315812334462E+00
  0.316224776870E+00
  0.316218471104E+00
  0.316062323362E+00
  0.316063063338E+00
  0.316003015762E+00
  0.316006228145E+00
  0.316110614148E+00
  0.316109263850E+00
  0.316117160859E+00
  0.316115615100E+00
  0.316081557832E+00
  0.316081499527E+00
  0.316063384430E+00
  0.316063973371E+00
  0.316058608224E+00
  0.316059420288E+00
  0.316077424426E+00
  0.316077462177E+00
  0.316083122201E+00
  0.316082967400E+00
  0.316086954862E+00
  0.316086677287E+00
 -0.379569768951E-01
 -0.390556922722E-01
 -0.774277994593E-01
 -0.504677928419E-01
 -0.113265939596E+00
 -0.968774654373E-01
 -0.119274309768E+00
 -0.122996261189E+00
 -0.694837636444E-01
 -0.969948539566E-01
 -0.638189940419E-01
 -0.693455566954E-01
 -0.604243862220E-01
 -0.640451282524E-01
 -0.559395377975E-01
 -0.620868658765E-01
 -0.552954355806E-01
 -0.580993640726E-01
 -0.546796904068E-01
 -0.571562645029E-01
 -0.536033502407E-01
 -0.560666586145E-01
 -0.529431771287E-01
 -0.554910443967E-01
 -0.525570138163E-01
 -0.547453919409E-01
 -0.578301993300E-01
 -0.548071649256E-01
 -0.584338381744E-01
 -0.555605832488E-01
 -0.599195344473E-01
 -0.561516092987E-01
 -0.616161193944E-01
 -0.572690427462E-01
 -0.633715145203E-01
 -0.582621152228E-01
 -0.673430680677E-01
 -0.623164510377E-01