# vtk DataFile Version 3.0
MachLine results file. Generated by MachLine, USU AeroLab (c) 2022.
ASCII
DATASET POLYDATA
POINTS                3023 float
  0.988667208673E-10  0.000000000000E+00 -0.647043774696E-26
  0.895597234606E-03  0.843378737654E-27 -0.199021509942E-03
  0.895597234606E-03 -0.843378737654E-27  0.199021509942E-03
  0.201978024198E-02  0.428733989966E-27 -0.448839941565E-03
  0.201978024198E-02 -0.857467979932E-27  0.448839941565E-03
  0.342194342196E-02  0.437206930993E-27 -0.760431776907E-03
  0.342194342196E-02  0.131162079298E-26  0.760431776907E-03
  0.515701297858E-02  0.894400864741E-27 -0.114600281319E-02
  0.515701297858E-02  0.000000000000E+00  0.114600281319E-02
  0.728308877217E-02 -0.917383823125E-27 -0.161846403349E-02
  0.728308877217E-02 -0.917383823125E-27  0.161846403349E-02
  0.794107007516E-02 -0.798275874307E-02  0.000000000000E+00
  0.794107007516E-02  0.798275874307E-02  0.000000000000E+00
  0.880578441563E-02 -0.798275878646E-02 -0.192158698135E-03
  0.880578441563E-02 -0.798275878646E-02  0.192158698135E-03
  0.880578441563E-02  0.798275878646E-02 -0.192158698135E-03
  0.880578441563E-02  0.798275878646E-02  0.192158698135E-03
  0.985721687153E-02  0.141442905648E-26 -0.219049248433E-02
  0.985721687153E-02  0.471476352160E-27  0.219049248433E-02
  0.989120269241E-02 -0.798275878617E-02 -0.433362701666E-03
  0.989120269241E-02 -0.798275878617E-02  0.433362701666E-03
  0.989120269241E-02  0.798275878617E-02 -0.433362701666E-03
  0.989120269241E-02  0.798275878617E-02  0.433362701666E-03
  0.112450150967E-01 -0.798275878581E-02 -0.734209985035E-03
  0.112450150967E-01 -0.798275878581E-02  0.734209985035E-03
  0.112450150967E-01  0.798275878581E-02 -0.734209985035E-03
  0.112450150967E-01  0.798275878581E-02  0.734209985035E-03
  0.129202548613E-01 -0.798275878540E-02 -0.110648551863E-02
  0.129202548613E-01 -0.798275878540E-02  0.110648551863E-02
  0.129202548613E-01  0.798275878540E-02 -0.110648551863E-02
  0.129202548613E-01  0.798275878540E-02  0.110648551863E-02
  0.129289357214E-01  0.000000000000E+00 -0.287309674785E-02
  0.129289357214E-01  0.000000000000E+00  0.287309674785E-02
  0.149730174075E-01 -0.798275878492E-02 -0.156265488050E-02
  0.149730174075E-01 -0.798275878492E-02  0.156265488050E-02
  0.149730174075E-01  0.798275878492E-02 -0.156265488050E-02
  0.149730174075E-01  0.798275878492E-02  0.156265488050E-02
  0.158821400878E-01 -0.159655175484E-01  0.000000000000E+00
  0.158821400878E-01  0.159655175484E-01  0.000000000000E+00
  0.165316090217E-01  0.498784565273E-27 -0.367369096682E-02
  0.165316090217E-01  0.498784565273E-27  0.367369096682E-02
  0.167159717718E-01 -0.159655175916E-01 -0.185295884162E-03
  0.167159717718E-01 -0.159655175916E-01  0.185295884162E-03
  0.167159717718E-01  0.159655175916E-01 -0.185295884162E-03
  0.167159717718E-01  0.159655175916E-01  0.185295884162E-03
  0.174583830148E-01 -0.798275878438E-02 -0.211495826863E-02
  0.174583830148E-01 -0.798275878438E-02  0.211495826863E-02
  0.174583830148E-01  0.798275878438E-02 -0.211495826863E-02
  0.174583830148E-01  0.798275878438E-02  0.211495826863E-02
  0.177626256090E-01 -0.159655175914E-01 -0.417885459524E-03
  0.177626256090E-01 -0.159655175914E-01  0.417885459524E-03
  0.177626256090E-01  0.159655175914E-01 -0.417885459524E-03
  0.177626256090E-01  0.159655175914E-01  0.417885459524E-03
  0.190680865392E-01 -0.159655175910E-01 -0.707988190832E-03
  0.190680865392E-01 -0.159655175910E-01  0.707988190832E-03
  0.190680865392E-01  0.159655175910E-01 -0.707988190832E-03
  0.190680865392E-01  0.159655175910E-01  0.707988190832E-03
  0.204241797543E-01 -0.798275878380E-02 -0.277402428559E-02
  0.204241797543E-01 -0.798275878380E-02  0.277402428559E-02
  0.204241797543E-01  0.798275878380E-02 -0.277402428559E-02
  0.204241797543E-01  0.798275878380E-02  0.277402428559E-02
  0.206723343815E-01 -0.511472827462E-27 -0.459385187060E-02
  0.206723343815E-01  0.000000000000E+00  0.459385187060E-02
  0.206834972103E-01 -0.159655175906E-01 -0.106696810523E-02
  0.206834972103E-01 -0.159655175906E-01  0.106696810523E-02
  0.206834972103E-01  0.159655175906E-01 -0.106696810523E-02
  0.206834972103E-01  0.159655175906E-01  0.106696810523E-02
  0.226629469746E-01 -0.159655175902E-01 -0.150684584138E-02
  0.226629469746E-01 -0.159655175902E-01  0.150684584138E-02
  0.226629469746E-01  0.159655175902E-01 -0.150684584138E-02
  0.226629469746E-01  0.159655175902E-01  0.150684584138E-02
  0.238232110317E-01 -0.239482763537E-01 -0.108431135387E-25
  0.238232110317E-01  0.239482763537E-01 -0.108431135387E-25
  0.239026248676E-01 -0.798275878320E-02 -0.354701200813E-02
  0.239026248676E-01 -0.798275878320E-02  0.354701200813E-02
  0.239026248676E-01  0.798275878320E-02 -0.354701200813E-02
  0.239026248676E-01  0.798275878320E-02  0.354701200813E-02
  0.246261600592E-01 -0.239482763969E-01 -0.178433070188E-03
  0.246261600592E-01 -0.239482763969E-01  0.178433070188E-03
  0.246261600592E-01  0.239482763969E-01 -0.178433070188E-03
  0.246261600592E-01  0.239482763969E-01  0.178433070188E-03
  0.250595491587E-01 -0.159655175897E-01 -0.203942405033E-02
  0.250595491587E-01 -0.159655175897E-01  0.203942405033E-02
  0.250595491587E-01  0.159655175897E-01 -0.203942405033E-02
  0.250595491587E-01  0.159655175897E-01  0.203942405033E-02
  0.253221653641E-01 -0.104372890792E-26 -0.562714774572E-02
  0.253221653641E-01  0.521864453960E-27  0.562714774572E-02
  0.256340466630E-01 -0.239482763966E-01 -0.402408217381E-03
  0.256340466630E-01 -0.239482763966E-01  0.402408217381E-03
  0.256340466630E-01  0.239482763966E-01 -0.402408217381E-03
  0.256340466630E-01  0.239482763966E-01  0.402408217381E-03
  0.268911589130E-01 -0.239482763963E-01 -0.681766396628E-03
  0.268911589130E-01 -0.239482763963E-01  0.681766396628E-03
  0.268911589130E-01  0.239482763963E-01 -0.681766396628E-03
  0.268911589130E-01  0.239482763963E-01  0.681766396628E-03
  0.279005654382E-01 -0.798275878265E-02 -0.443544321754E-02
  0.279005654382E-01 -0.798275878265E-02  0.443544321754E-02
  0.279005654382E-01  0.798275878265E-02 -0.443544321754E-02
  0.279005654382E-01  0.798275878265E-02  0.443544321754E-02
  0.279194247191E-01 -0.159655175891E-01 -0.267495205348E-02
  0.279194247191E-01 -0.159655175891E-01  0.267495205348E-02
  0.279194247191E-01  0.159655175891E-01 -0.267495205348E-02
  0.279194247191E-01  0.159655175891E-01  0.267495205348E-02
  0.284467395592E-01 -0.239482763959E-01 -0.102745080824E-02
  0.284467395592E-01 -0.239482763959E-01  0.102745080824E-02
  0.284467395592E-01  0.239482763959E-01 -0.102745080824E-02
  0.284467395592E-01  0.239482763959E-01  0.102745080824E-02
  0.303528756104E-01 -0.239482763955E-01 -0.145103668587E-02
  0.303528756104E-01 -0.239482763955E-01  0.145103668587E-02
  0.303528756104E-01  0.239482763955E-01 -0.145103668587E-02
  0.303528756104E-01  0.239482763955E-01  0.145103668587E-02
  0.304094180707E-01  0.528620979504E-27 -0.675764808703E-02
  0.304094180707E-01  0.000000000000E+00  0.675764808703E-02
  0.312736407141E-01 -0.159655175885E-01 -0.342033304673E-02
  0.312736407141E-01 -0.159655175885E-01  0.342033304673E-02
  0.312736407141E-01  0.159655175885E-01 -0.342033304673E-02
  0.312736407141E-01  0.159655175885E-01  0.342033304673E-02
  0.317642801130E-01 -0.319310351589E-01  0.540919717465E-26
  0.317642801130E-01  0.319310351589E-01  0.540919717465E-26
  0.323900580637E-01 -0.798275878217E-02 -0.543310808796E-02
  0.323900580637E-01 -0.798275878217E-02  0.543310808796E-02
  0.323900580637E-01  0.798275878217E-02 -0.543310808796E-02
  0.323900580637E-01  0.798275878217E-02  0.543310808796E-02
  0.325363464840E-01 -0.319310352020E-01 -0.171570256215E-03
  0.325363464840E-01 -0.319310352020E-01  0.171570256215E-03
  0.325363464840E-01  0.319310352020E-01 -0.171570256215E-03
  0.325363464840E-01  0.319310352020E-01  0.171570256215E-03
  0.326607153026E-01 -0.239482763950E-01 -0.196388983203E-02
  0.326607153026E-01 -0.239482763950E-01  0.196388983203E-02
  0.326607153026E-01  0.239482763950E-01 -0.196388983203E-02
  0.326607153026E-01  0.239482763950E-01  0.196388983203E-02
  0.335054695795E-01 -0.319310352018E-01 -0.386930975237E-03
  0.335054695795E-01 -0.319310352018E-01  0.386930975237E-03
  0.335054695795E-01  0.319310352018E-01 -0.386930975237E-03
  0.335054695795E-01  0.319310352018E-01  0.386930975237E-03
  0.347142331494E-01 -0.319310352015E-01 -0.655544602424E-03
  0.347142331494E-01 -0.319310352015E-01  0.655544602424E-03
  0.347142331494E-01  0.319310352015E-01 -0.655544602424E-03
  0.347142331494E-01  0.319310352015E-01  0.655544602424E-03
  0.351287946329E-01 -0.159655175880E-01 -0.427703456180E-02
  0.351287946329E-01 -0.159655175880E-01  0.427703456180E-02
  0.351287946329E-01  0.159655175880E-01 -0.427703456180E-02
  0.351287946329E-01  0.159655175880E-01  0.427703456180E-02
  0.354146696838E-01 -0.239482763945E-01 -0.257587982138E-02
  0.354146696838E-01 -0.239482763945E-01  0.257587982138E-02
  0.354146696838E-01  0.239482763945E-01 -0.257587982138E-02
  0.354146696838E-01  0.239482763945E-01  0.257587982138E-02
  0.358190164213E-01  0.530618748835E-27 -0.795978110514E-02
  0.358190164213E-01  0.000000000000E+00  0.795978110514E-02
  0.362099819081E-01 -0.319310352011E-01 -0.987933511245E-03
  0.362099819081E-01 -0.319310352011E-01  0.987933511245E-03
  0.362099819081E-01  0.319310352011E-01 -0.987933511245E-03
  0.362099819081E-01  0.319310352011E-01  0.987933511245E-03
  0.373018868502E-01 -0.798275878185E-02 -0.652462606017E-02
  0.373018868502E-01 -0.798275878185E-02  0.652462606017E-02
  0.373018868502E-01  0.798275878185E-02 -0.652462606017E-02
  0.373018868502E-01  0.798275878185E-02  0.652462606017E-02
  0.380428061089E-01 -0.319310352007E-01 -0.139522764675E-02
  0.380428061089E-01 -0.319310352007E-01  0.139522764675E-02
  0.380428061089E-01  0.319310352007E-01 -0.139522764675E-02
  0.380428061089E-01  0.319310352007E-01  0.139522764675E-02
[...]
POINT_DATA                3023
SCALARS index float 1
LOOKUP_TABLE default
  0.100000000000E+01
  0.200000000000E+01
  0.300000000000E+01
  0.400000000000E+01
  0.500000000000E+01
  0.600000000000E+01
  0.700000000000E+01
  0.800000000000E+01
  0.900000000000E+01
  0.100000000000E+02
  0.110000000000E+02
  0.120000000000E+02
  0.130000000000E+02
  0.140000000000E+02
  0.150000000000E+02
  0.160000000000E+02
  0.170000000000E+02
  0.180000000000E+02
  0.190000000000E+02
  0.200000000000E+02
  0.210000000000E+02
  0.220000000000E+02
  0.230000000000E+02
  0.240000000000E+02
  0.250000000000E+02
  0.260000000000E+02
  0.270000000000E+02
  0.280000000000E+02
  0.290000000000E+02
  0.300000000000E+02
  0.310000000000E+02
  0.320000000000E+02
  0.330000000000E+02
  0.340000000000E+02
  0.350000000000E+02
  0.360000000000E+02
  0.370000000000E+02
  0.380000000000E+02
  0.390000000000E+02
  0.400000000000E+02
  0.410000000000E+02
  0.420000000000E+02
  0.430000000000E+02
  0.440000000000E+02
  0.450000000000E+02
  0.460000000000E+02
  0.470000000000E+02
  0.480000000000E+02
  0.490000000000E+02
  0.500000000000E+02
  0.510000000000E+02
  0.520000000000E+02
  0.530000000000E+02
  0.540000000000E+02
  0.550000000000E+02
  0.560000000000E+02
  0.570000000000E+02
  0.580000000000E+02
  0.590000000000E+02
  0.600000000000E+02
  0.610000000000E+02
  0.620000000000E+02
  0.630000000000E+02
  0.640000000000E+02
  0.650000000000E+02
  0.660000000000E+02
  0.670000000000E+02
  0.680000000000E+02
  0.690000000000E+02
  0.700000000000E+02
  0.710000000000E+02
  0.720000000000E+02
  0.730000000000E+02
  0.740000000000E+02
  0.750000000000E+02
  0.760000000000E+02
  0.770000000000E+02
  0.780000000000E+02
  0.790000000000E+02
  0.800000000000E+02
  0.810000000000E+02
  0.820000000000E+02
  0.830000000000E+02
  0.840000000000E+02
  0.850000000000E+02
  0.860000000000E+02
  0.870000000000E+02
  0.880000000000E+02
  0.890000000000E+02
  0.900000000000E+02
  0.910000000000E+02
  0.920000000000E+02
  0.930000000000E+02
  0.940000000000E+02
  0.950000000000E+02
  0.960000000000E+02
  0.970000000000E+02
  0.980000000000E+02
  0.990000000000E+02
  0.100000000000E+03
  0.101000000000E+03
  0.102000000000E+03
  0.103000000000E+03
  0.104000000000E+03
  0.105000000000E+03
  0.106000000000E+03
  0.107000000000E+03
  0.108000000000E+03
  0.109000000000E+03
  0.110000000000E+03
  0.111000000000E+03
  0.112000000000E+03
  0.113000000000E+03
  0.114000000000E+03
  0.115000000000E+03
  0.116000000000E+03
  0.117000000000E+03
  0.118000000000E+03
  0.119000000000E+03
  0.120000000000E+03
  0.121000000000E+03
  0.122000000000E+03
  0.123000000000E+03
  0.124000000000E+03
  0.125000000000E+03
  0.126000000000E+03
  0.127000000000E+03
  0.128000000000E+03
  0.129000000000E+03
  0.130000000000E+03
  0.131000000000E+03
  0.132000000000E+03
  0.133000000000E+03
  0.134000000000E+03
  0.135000000000E+03
  0.136000000000E+03
  0.137000000000E+03
  0.138000000000E+03
  0.139000000000E+03
  0.140000000000E+03
  0.141000000000E+03
  0.142000000000E+03
  0.143000000000E+03
  0.144000000000E+03
  0.145000000000E+03
  0.146000000000E+03
  0.147000000000E+03
  0.148000000000E+03
  0.149000000000E+03
  0.150000000000E+03
  0.151000000000E+03
  0.152000000000E+03
  0.153000000000E+03
  0.154000000000E+03
  0.155000000000E+03
  0.156000000000E+03
  0.157000000000E+03
  0.158000000000E+03
  0.159000000000E+03
  0.160000000000E+03
  0.161000000000E+03
  0.162000000000E+03
  0.163000000000E+03
  0.164000000000E+03
  0.165000000000E+03
  0.166000000000E+03
  0.167000000000E+03
  0.168000000000E+03
  0.169000000000E+03
  0.170000000000E+03
  0.171000000000E+03
  0.172000000000E+03
  0.173000000000E+03
  0.174000000000E+03
  0.175000000000E+03
  0.176000000000E+03
  0.177000000000E+03
  0.178000000000E+03
  0.179000000000E+03
  0.180000000000E+03
  0.181000000000E+03
  0.182000000000E+03
  0.183000000000E+03
  0.184000000000E+03
  0.185000000000E+03
  0.186000000000E+03
  0.187000000000E+03
  0.188000000000E+03
  0.189000000000E+03
  0.190000000000E+03
  0.191000000000E+03
  0.192000000000E+03
  0.193000000000E+03
  0.194000000000E+03
  0.195000000000E+03
  0.196000000000E+03
  0.197000000000E+03
  0.198000000000E+03
  0.199000000000E+03
  0.200000000000E+03
  0.201000000000E+03
  0.202000000000E+03
  0.203000000000E+03
  0.204000000000E+03
  0.205000000000E+03
  0.206000000000E+03
  0.207000000000E+03
  0.208000000000E+03
  0.209000000000E+03
  0.210000000000E+03
  0.211000000000E+03
  0.212000000000E+03
  0.213000000000E+03
  0.214000000000E+03
  0.215000000000E+03
  0.216000000000E+03
  0.217000000000E+03
  0.218000000000E+03
  0.219000000000E+03
  0.220000000000E+03
  0.221000000000E+03
  0.222000000000E+03
  0.223000000000E+03
  0.224000000000E+03
  0.225000000000E+03
  0.226000000000E+03
  0.227000000000E+03
  0.228000000000E+03
  0.229000000000E+03
  0.230000000000E+03
  0.231000000000E+03
  0.232000000000E+03
  0.233000000000E+03
  0.234000000000E+03
  0.235000000000E+03
  0.236000000000E+03
  0.237000000000E+03
  0.238000000000E+03
  0.239000000000E+03
  0.240000000000E+03
  0.241000000000E+03
  0.242000000000E+03
  0.243000000000E+03
  0.244000000000E+03
  0.245000000000E+03
  0.246000000000E+03
  0.247000000000E+03
  0.248000000000E+03
  0.249000000000E+03
  0.250000000000E+03
  0.251000000000E+03
  0.252000000000E+03
  0.253000000000E+03
  0.254000000000E+03
  0.255000000000E+03
  0.256000000000E+03
  0.257000000000E+03
  0.258000000000E+03
  0.259000000000E+03
  0.260000000000E+03
  0.261000000000E+03
  0.262000000000E+03
  0.263000000000E+03
  0.264000000000E+03
  0.265000000000E+03
  0.266000000000E+03
  0.267000000000E+03
  0.268000000000E+03
  0.269000000000E+03
  0.270000000000E+03
  0.271000000000E+03
  0.272000000000E+03
  0.273000000000E+03
  0.274000000000E+03
  0.275000000000E+03
  0.276000000000E+03
  0.277000000000E+03
  0.278000000000E+03
  0.279000000000E+03
  0.280000000000E+03
  0.281000000000E+03
  0.282000000000E+03
  0.283000000000E+03
  0.284000000000E+03
  0.285000000000E+03
  0.286000000000E+03
  0.287000000000E+03
  0.288000000000E+03
  0.289000000000E+03
  0.290000000000E+03
  0.291000000000E+03
  0.292000000000E+03
  0.293000000000E+03
  0.294000000000E+03
  0.295000000000E+03
  0.296000000000E+03
  0.297000000000E+03
  0.298000000000E+03
  0.299000000000E+03
  0.300000000000E+03
  0.301000000000E+03
  0.302000000000E+03
  0.303000000000E+03
  0.304000000000E+03
  0.305000000000E+03
  0.306000000000E+03
  0.307000000000E+03
  0.308000000000E+03
  0.309000000000E+03
  0.310000000000E+03
  0.311000000000E+03
  0.312000000000E+03
  0.313000000000E+03
  0.314000000000E+03
  0.315000000000E+03
  0.316000000000E+03
  0.317000000000E+03
  0.318000000000E+03
  0.319000000000E+03
  0.320000000000E+03
  0.321000000000E+03
  0.322000000000E+03
  0.323000000000E+03
  0.324000000000E+03
  0.325000000000E+03
  0.326000000000E+03
  0.327000000000E+03
  0.328000000000E+03
  0.329000000000E+03
  0.330000000000E+03
  0.331000000000E+03
  0.332000000000E+03
  0.333000000000E+03
  0.334000000000E+03
  0.335000000000E+03
  0.336000000000E+03
  0.337000000000E+03
  0.338000000000E+03
  0.339000000000E+03
  0.340000000000E+03
  0.341000000000E+03
  0.342000000000E+03
  0.343000000000E+03
  0.344000000000E+03
  0.345000000000E+03
  0.346000000000E+03
  0.347000000000E+03
  0.348000000000E+03
  0.349000000000E+03
  0.350000000000E+03
  0.351000000000E+03
  0.352000000000E+03
  0.353000000000E+03
  0.354000000000E+03
  0.355000000000E+03
  0.356000000000E+03
  0.357000000000E+03
  0.358000000000E+03
  0.359000000000E+03
  0.360000000000E+03
  0.361000000000E+03
  0.362000000000E+03
  0.363000000000E+03
  0.364000000000E+03
  0.365000000000E+03
  0.366000000000E+03
  0.367000000000E+03
  0.368000000000E+03
  0.369000000000E+03
  0.370000000000E+03
  0.371000000000E+03
  0.372000000000E+03
  0.373000000000E+03
  0.374000000000E+03
  0.375000000000E+03
  0.376000000000E+03
  0.377000000000E+03
  0.378000000000E+03
  0.379000000000E+03
  0.380000000000E+03
  0.381000000000E+03
  0.382000000000E+03
  0.383000000000E+03
  0.384000000000E+03
  0.385000000000E+03
  0.386000000000E+03
  0.387000000000E+03
  0.388000000000E+03
  0.389000000000E+03
  0.390000000000E+03
  0.391000000000E+03
  0.392000000000E+03
  0.393000000000E+03
  0.394000000000E+03
  0.395000000000E+03
  0.396000000000E+03
  0.397000000000E+03
  0.398000000000E+03
  0.399000000000E+03
  0.400000000000E+03
  0.401000000000E+03
  0.402000000000E+03
  0.403000000000E+03
  0.404000000000E+03
  0.405000000000E+03
  0.406000000000E+03
  0.407000000000E+03
  0.408000000000E+03
  0.409000000000E+03
  0.410000000000E+03
  0.411000000000E+03
  0.412000000000E+03
  0.413000000000E+03
  0.414000000000E+03
  0.415000000000E+03
  0.416000000000E+03
  0.417000000000E+03
  0.418000000000E+03
  0.419000000000E+03
  0.420000000000E+03
  0.421000000000E+03
  0.422000000000E+03
  0.423000000000E+03
  0.424000000000E+03
  0.425000000000E+03
  0.426000000000E+03
  0.427000000000E+03
  0.428000000000E+03
  0.429000000000E+03
  0.430000000000E+03
  0.431000000000E+03
  0.432000000000E+03
  0.433000000000E+03
  0.434000000000E+03
  0.435000000000E+03
  0.436000000000E+03
  0.437000000000E+03
  0.438000000000E+03
  0.439000000000E+03
  0.440000000000E+03
  0.441000000000E+03
  0.442000000000E+03
  0.443000000000E+03
  0.444000000000E+03
  0.445000000000E+03
  0.446000000000E+03
  0.447000000000E+03
  0.448000000000E+03
  0.449000000000E+03
  0.450000000000E+03
  0.451000000000E+03
  0.452000000000E+03
  0.453000000000E+03
  0.454000000000E+03
  0.455000000000E+03
  0.456000000000E+03
  0.457000000000E+03
  0.458000000000E+03
  0.459000000000E+03
  0.460000000000E+03
  0.461000000000E+03
  0.462000000000E+03
  0.463000000000E+03
  0.464000000000E+03
  0.465000000000E+03
  0.466000000000E+03
  0.467000000000E+03
  0.468000000000E+03
  0.469000000000E+03
  0.470000000000E+03
  0.471000000000E+03
  0.472000000000E+03
  0.473000000000E+03
  0.474000000000E+03
  0.475000000000E+03
  0.476000000000E+03
  0.477000000000E+03
  0.478000000000E+03
  0.479000000000E+03
  0.480000000000E+03
  0.481000000000E+03
  0.482000000000E+03
  0.483000000000E+03
  0.484000000000E+03
  0.485000000000E+03
  0.486000000000E+03
  0.487000000000E+03
  0.488000000000E+03
  0.489000000000E+03
  0.490000000000E+03
  0.491000000000E+03
  0.492000000000E+03
  0.493000000000E+03
  0.494000000000E+03
  0.495000000000E+03
  0.496000000000E+03
  0.497000000000E+03
  0.498000000000E+03
  0.499000000000E+03
  0.500000000000E+03
  0.501000000000E+03
  0.502000000000E+03
  0.503000000000E+03
  0.504000000000E+03
  0.505000000000E+03
  0.506000000000E+03
  0.507000000000E+03
  0.508000000000E+03
  0.509000000000E+03
  0.510000000000E+03
  0.511000000000E+03
  0.512000000000E+03
  0.513000000000E+03
  0.514000000000E+03
  0.515000000000E+03
  0.516000000000E+03
  0.517000000000E+03
  0.518000000000E+03
  0.519000000000E+03
  0.520000000000E+03
  0.521000000000E+03
  0.522000000000E+03
  0.523000000000E+03
  0.524000000000E+03
  0.525000000000E+03
  0.526000000000E+03
  0.527000000000E+03
  0.528000000000E+03
  0.529000000000E+03
  0.530000000000E+03
  0.531000000000E+03
  0.532000000000E+03
  0.533000000000E+03
  0.534000000000E+03
  0.535000000000E+03
  0.536000000000E+03
  0.537000000000E+03
  0.538000000000E+03
  0.539000000000E+03
  0.540000000000E+03
  0.541000000000E+03
  0.542000000000E+03
  0.543000000000E+03
  0.544000000000E+03
  0.545000000000E+03
  0.546000000000E+03
  0.547000000000E+03
  0.548000000000E+03
  0.549000000000E+03
  0.550000000000E+03
  0.551000000000E+03
  0.552000000000E+03
  0.553000000000E+03
  0.554000000000E+03
  0.555000000000E+03
  0.556000000000E+03
  0.557000000000E+03
  0.558000000000E+03
  0.559000000000E+03
  0.560000000000E+03
  0.561000000000E+03
  0.562000000000E+03
  0.563000000000E+03
  0.564000000000E+03
  0.565000000000E+03
  0.566000000000E+03
  0.567000000000E+03
  0.568000000000E+03
  0.569000000000E+03
  0.570000000000E+03
  0.571000000000E+03
  0.572000000000E+03
  0.573000000000E+03
  0.574000000000E+03
  0.575000000000E+03
  0.576000000000E+03
  0.577000000000E+03
  0.578000000000E+03
  0.579000000000E+03
  0.580000000000E+03
  0.581000000000E+03
  0.582000000000E+03
  0.583000000000E+03
  0.584000000000E+03
  0.585000000000E+03
  0.586000000000E+03
  0.587000000000E+03
  0.588000000000E+03
  0.589000000000E+03
  0.590000000000E+03
  0.591000000000E+03
  0.592000000000E+03
  0.593000000000E+03
  0.594000000000E+03
  0.595000000000E+03
  0.596000000000E+03
  0.597000000000E+03
  0.598000000000E+03
  0.599000000000E+03
  0.600000000000E+03
  0.601000000000E+03
  0.602000000000E+03
  0.603000000000E+03
  0.604000000000E+03
  0.605000000000E+03
  0.606000000000E+03
  0.607000000000E+03
  0.608000000000E+03
  0.609000000000E+03
  0.610000000000E+03
  0.611000000000E+03
  0.612000000000E+03
  0.613000000000E+03
  0.614000000000E+03
  0.615000000000E+03
  0.616000000000E+03
  0.617000000000E+03
  0.618000000000E+03
  0.619000000000E+03
  0.620000000000E+03
  0.621000000000E+03
  0.622000000000E+03
  0.623000000000E+03
  0.624000000000E+03
  0.625000000000E+03
  0.626000000000E+03
  0.627000000000E+03
  0.628000000000E+03
  0.629000000000E+03
  0.630000000000E+03
  0.631000000000E+03
  0.632000000000E+03
  0.633000000000E+03
  0.634000000000E+03
  0.635000000000E+03
  0.636000000000E+03
  0.637000000000E+03
  0.638000000000E+03
  0.639000000000E+03
  0.640000000000E+03
  0.641000000000E+03
  0.642000000000E+03
  0.643000000000E+03
  0.644000000000E+03
  0.645000000000E+03
  0.646000000000E+03
  0.647000000000E+03
  0.648000000000E+03
  0.649000000000E+03
  0.650000000000E+03
  0.651000000000E+03
  0.652000000000E+03
  0.653000000000E+03
  0.654000000000E+03
  0.655000000000E+03
  0.656000000000E+03
  0.657000000000E+03
  0.658000000000E+03
  0.659000000000E+03
  0.660000000000E+03
  0.661000000000E+03
  0.662000000000E+03
  0.663000000000E+03
  0.664000000000E+03
  0.665000000000E+03
  0.666000000000E+03
  0.667000000000E+03
  0.668000000000E+03
  0.669000000000E+03
  0.670000000000E+03
  0.671000000000E+03
  0.672000000000E+03
  0.673000000000E+03
  0.674000000000E+03
  0.675000000000E+03
  0.676000000000E+03
  0.677000000000E+03
  0.678000000000E+03
  0.679000000000E+03
  0.680000000000E+03
  0.681000000000E+03
  0.682000000000E+03
  0.683000000000E+03
  0.684000000000E+03
  0.685000000000E+03
  0.686000000000E+03
  0.687000000000E+03
  0.688000000000E+03
  0.689000000000E+03
  0.690000000000E+03
  0.691000000000E+03
  0.692000000000E+03
  0.693000000000E+03
  0.694000000000E+03
  0.695000000000E+03
  0.696000000000E+03
  0.697000000000E+03
  0.698000000000E+03
  0.699000000000E+03
  0.700000000000E+03
  0.701000000000E+03
  0.702000000000E+03
  0.703000000000E+03
  0.704000000000E+03
  0.705000000000E+03
  0.706000000000E+03
  0.707000000000E+03
  0.708000000000E+03
  0.709000000000E+03
  0.710000000000E+03
  0.711000000000E+03
  0.712000000000E+03
  0.713000000000E+03
  0.714000000000E+03
  0.715000000000E+03
  0.716000000000E+03
  0.717000000000E+03
  0.718000000000E+03
  0.719000000000E+03
  0.720000000000E+03
  0.721000000000E+03
  0.722000000000E+03
  0.723000000000E+03
  0.724000000000E+03
  0.725000000000E+03
  0.726000000000E+03
  0.727000000000E+03
  0.728000000000E+03
  0.729000000000E+03
  0.730000000000E+03
  0.731000000000E+03
  0.732000000000E+03
  0.733000000000E+03
  0.734000000000E+03
  0.735000000000E+03
  0.736000000000E+03
  0.737000000000E+03
  0.738000000000E+03
  0.739000000000E+03
  0.740000000000E+03
  0.741000000000E+03
  0.742000000000E+03
  0.743000000000E+03
  0.744000000000E+03
  0.745000000000E+03
  0.746000000000E+03
  0.747000000000E+03
  0.748000000000E+03
  0.749000000000E+03
  0.750000000000E+03
  0.751000000000E+03
  0.752000000000E+03
  0.753000000000E+03
  0.754000000000E+03
  0.755000000000E+03
  0.756000000000E+03
  0.757000000000E+03
  0.758000000000E+03
  0.759000000000E+03
  0.760000000000E+03
  0.761000000000E+03
  0.762000000000E+03
  0.763000000000E+03
  0.764000000000E+03
  0.765000000000E+03
  0.766000000000E+03
  0.767000000000E+03
  0.768000000000E+03
  0.769000000000E+03
  0.770000000000E+03
  0.771000000000E+03
  0.772000000000E+03
  0.773000000000E+03
  0.774000000000E+03
  0.775000000000E+03
  0.776000000000E+03
  0.777000000000E+03
  0.778000000000E+03
  0.779000000000E+03
  0.780000000000E+03
  0.781000000000E+03
  0.782000000000E+03
  0.783000000000E+03
  0.784000000000E+03
  0.785000000000E+03
  0.786000000000E+03
  0.787000000000E+03
  0.788000000000E+03
  0.789000000000E+03
  0.790000000000E+03
  0.791000000000E+03
  0.792000000000E+03
  0.793000000000E+03
  0.794000000000E+03
  0.795000000000E+03
  0.796000000000E+03
  0.797000000000E+03
  0.798000000000E+03
  0.799000000000E+03
  0.800000000000E+03
  0.801000000000E+03
  0.802000000000E+03
  0.803000000000E+03
  0.804000000000E+03
  0.805000000000E+03
  0.806000000000E+03
  0.807000000000E+03
  0.808000000000E+03
  0.809000000000E+03
  0.810000000000E+03
  0.811000000000E+03
  0.812000000000E+03
  0.813000000000E+03
  0.814000000000E+03
  0.815000000000E+03
  0.816000000000E+03
  0.817000000000E+03
  0.818000000000E+03
  0.819000000000E+03
  0.820000000000E+03
  0.821000000000E+03
  0.822000000000E+03
  0.823000000000E+03
  0.824000000000E+03
  0.825000000000E+03
  0.826000000000E+03
  0.827000000000E+03
  0.828000000000E+03
  0.829000000000E+03
  0.830000000000E+03
  0.831000000000E+03
  0.832000000000E+03
  0.833000000000E+03
  0.834000000000E+03
  0.835000000000E+03
  0.836000000000E+03
  0.837000000000E+03
  0.838000000000E+03
  0.839000000000E+03
  0.840000000000E+03
  0.841000000000E+03
  0.842000000000E+03
  0.843000000000E+03
  0.844000000000E+03
  0.845000000000E+03
  0.846000000000E+03
  0.847000000000E+03
  0.848000000000E+03
  0.849000000000E+03
  0.850000000000E+03
  0.851000000000E+03
  0.852000000000E+03
  0.853000000000E+03
  0.854000000000E+03
  0.855000000000E+03
  0.856000000000E+03
  0.857000000000E+03
  0.858000000000E+03
  0.859000000000E+03
  0.860000000000E+03
  0.861000000000E+03
  0.862000000000E+03
  0.863000000000E+03
  0.864000000000E+03
  0.865000000000E+03
  0.866000000000E+03
  0.867000000000E+03
  0.868000000000E+03
  0.869000000000E+03
  0.870000000000E+03
  0.871000000000E+03
  0.872000000000E+03
  0.873000000000E+03
  0.874000000000E+03
  0.875000000000E+03
  0.876000000000E+03
  0.877000000000E+03
  0.878000000000E+03
  0.879000000000E+03
  0.880000000000E+03
  0.881000000000E+03
  0.882000000000E+03
  0.883000000000E+03
  0.884000000000E+03
  0.885000000000E+03
  0.886000000000E+03
  0.887000000000E+03
  0.888000000000E+03
  0.889000000000E+03
  0.890000000000E+03
  0.891000000000E+03
  0.892000000000E+03
  0.893000000000E+03
  0.894000000000E+03
  0.895000000000E+03
  0.896000000000E+03
  0.897000000000E+03
  0.898000000000E+03
  0.899000000000E+03
  0.900000000000E+03
  0.901000000000E+03
  0.902000000000E+03
  0.903000000000E+03
  0.904000000000E+03
  0.905000000000E+03
  0.906000000000E+03
  0.907000000000E+03
  0.908000000000E+03
  0.909000000000E+03
  0.910000000000E+03
  0.911000000000E+03
  0.912000000000E+03
  0.913000000000E+03
  0.914000000000E+03
  0.915000000000E+03
  0.916000000000E+03
  0.917000000000E+03
  0.918000000000E+03
  0.919000000000E+03
  0.920000000000E+03
  0.921000000000E+03
  0.922000000000E+03
  0.923000000000E+03
  0.924000000000E+03
  0.925000000000E+03
  0.926000000000E+03
  0.927000000000E+03
  0.928000000000E+03
  0.929000000000E+03
  0.930000000000E+03
  0.931000000000E+03
  0.932000000000E+03
  0.933000000000E+03
  0.934000000000E+03
  0.935000000000E+03
  0.936000000000E+03
  0.937000000000E+03
  0.938000000000E+03
  0.939000000000E+03
  0.940000000000E+03
  0.941000000000E+03
  0.942000000000E+03
  0.943000000000E+03
  0.944000000000E+03
  0.945000000000E+03
  0.946000000000E+03
  0.947000000000E+03
  0.948000000000E+03