# vtk DataFile Version 3.0
MachLine results file. Generated by MachLine, USU AeroLab (c) 2022.
ASCII
DATASET POLYDATA
POINTS                3023 float
  0.000000000000E+00  0.000000000000E+00  0.000000000000E+00
  0.895597215276E-03  0.000000000000E+00 -0.199021596927E-03
  0.895597215276E-03  0.000000000000E+00  0.199021596927E-03
  0.201978022233E-02  0.000000000000E+00 -0.448840030003E-03
  0.201978022233E-02  0.000000000000E+00  0.448840030003E-03
  0.342194340192E-02  0.000000000000E+00 -0.760431867093E-03
  0.342194340192E-02  0.000000000000E+00  0.760431867093E-03
  0.515701295808E-02  0.000000000000E+00 -0.114600290544E-02
  0.515701295808E-02  0.000000000000E+00  0.114600290544E-02
  0.728308875114E-02  0.000000000000E+00 -0.161846412811E-02
  0.728308875114E-02  0.000000000000E+00  0.161846412811E-02
  0.794107001275E-02 -0.798275880516E-02  0.000000000000E+00
  0.794107001275E-02  0.798275880516E-02  0.000000000000E+00
  0.880578439683E-02 -0.798275880516E-02 -0.192158782738E-03
  0.880578439683E-02 -0.798275880516E-02  0.192158782738E-03
  0.880578439683E-02  0.798275880516E-02 -0.192158782738E-03
  0.880578439683E-02  0.798275880516E-02  0.192158782738E-03
  0.985721684992E-02  0.000000000000E+00 -0.219049258158E-02
  0.985721684992E-02  0.000000000000E+00  0.219049258158E-02
  0.989120267332E-02 -0.798275880516E-02 -0.433362787589E-03
  0.989120267332E-02 -0.798275880516E-02  0.433362787589E-03
  0.989120267332E-02  0.798275880516E-02 -0.433362787589E-03
  0.989120267332E-02  0.798275880516E-02  0.433362787589E-03
  0.112450150773E-01 -0.798275880516E-02 -0.734210072551E-03
  0.112450150773E-01 -0.798275880516E-02  0.734210072551E-03
  0.112450150773E-01  0.798275880516E-02 -0.734210072551E-03
  0.112450150773E-01  0.798275880516E-02  0.734210072551E-03
  0.129202548414E-01 -0.798275880516E-02 -0.110648560803E-02
  0.129202548414E-01 -0.798275880516E-02  0.110648560803E-02
  0.129202548414E-01  0.798275880516E-02 -0.110648560803E-02
  0.129202548414E-01  0.798275880516E-02  0.110648560803E-02
  0.129289356992E-01  0.000000000000E+00 -0.287309684791E-02
  0.129289356992E-01  0.000000000000E+00  0.287309684791E-02
  0.149730173871E-01 -0.798275880516E-02 -0.156265497208E-02
  0.149730173871E-01 -0.798275880516E-02  0.156265497208E-02
  0.149730173871E-01  0.798275880516E-02 -0.156265497208E-02
  0.149730173871E-01  0.798275880516E-02  0.156265497208E-02
  0.158821400255E-01 -0.159655176103E-01  0.000000000000E+00
  0.158821400255E-01  0.159655176103E-01  0.000000000000E+00
  0.165316089988E-01  0.000000000000E+00 -0.367369106971E-02
  0.165316089988E-01  0.000000000000E+00  0.367369106971E-02
  0.167159717530E-01 -0.159655176103E-01 -0.185295968549E-03
  0.167159717530E-01 -0.159655176103E-01  0.185295968549E-03
  0.167159717530E-01  0.159655176103E-01 -0.185295968549E-03
  0.167159717530E-01  0.159655176103E-01  0.185295968549E-03
  0.174583829939E-01 -0.798275880516E-02 -0.211495836265E-02
  0.174583829939E-01 -0.798275880516E-02  0.211495836265E-02
  0.174583829939E-01  0.798275880516E-02 -0.211495836265E-02
  0.174583829939E-01  0.798275880516E-02  0.211495836265E-02
  0.177626255900E-01 -0.159655176103E-01 -0.417885545176E-03
  0.177626255900E-01 -0.159655176103E-01  0.417885545176E-03
  0.177626255900E-01  0.159655176103E-01 -0.417885545176E-03
  0.177626255900E-01  0.159655176103E-01  0.417885545176E-03
  0.190680865198E-01 -0.159655176103E-01 -0.707988278009E-03
  0.190680865198E-01 -0.159655176103E-01  0.707988278009E-03
  0.190680865198E-01  0.159655176103E-01 -0.707988278009E-03
  0.190680865198E-01  0.159655176103E-01  0.707988278009E-03
  0.204241797328E-01 -0.798275880516E-02 -0.277402438223E-02
  0.204241797328E-01 -0.798275880516E-02  0.277402438223E-02
  0.204241797328E-01  0.798275880516E-02 -0.277402438223E-02
  0.204241797328E-01  0.798275880516E-02  0.277402438223E-02
  0.206723343581E-01  0.000000000000E+00 -0.459385197610E-02
  0.206723343581E-01  0.000000000000E+00  0.459385197610E-02
  0.206834971905E-01 -0.159655176103E-01 -0.106696819421E-02
  0.206834971905E-01 -0.159655176103E-01  0.106696819421E-02
  0.206834971905E-01  0.159655176103E-01 -0.106696819421E-02
  0.206834971905E-01  0.159655176103E-01  0.106696819421E-02
  0.226629469544E-01 -0.159655176103E-01 -0.150684593245E-02
  0.226629469544E-01 -0.159655176103E-01  0.150684593245E-02
  0.226629469544E-01  0.159655176103E-01 -0.150684593245E-02
  0.226629469544E-01  0.159655176103E-01  0.150684593245E-02
  0.238232109696E-01 -0.239482764155E-01  0.000000000000E+00
  0.238232109696E-01  0.239482764155E-01  0.000000000000E+00
  0.239026248455E-01 -0.798275880516E-02 -0.354701210745E-02
  0.239026248455E-01 -0.798275880516E-02  0.354701210745E-02
  0.239026248455E-01  0.798275880516E-02 -0.354701210745E-02
  0.239026248455E-01  0.798275880516E-02  0.354701210745E-02
  0.246261600405E-01 -0.239482764155E-01 -0.178433154360E-03
  0.246261600405E-01 -0.239482764155E-01  0.178433154360E-03
  0.246261600405E-01  0.239482764155E-01 -0.178433154360E-03
  0.246261600405E-01  0.239482764155E-01  0.178433154360E-03
  0.250595491379E-01 -0.159655176103E-01 -0.203942414373E-02
  0.250595491379E-01 -0.159655176103E-01  0.203942414373E-02
  0.250595491379E-01  0.159655176103E-01 -0.203942414373E-02
  0.250595491379E-01  0.159655176103E-01  0.203942414373E-02
  0.253221653402E-01  0.000000000000E+00 -0.562714785337E-02
  0.253221653402E-01  0.000000000000E+00  0.562714785337E-02
  0.256340466440E-01 -0.239482764155E-01 -0.402408302762E-03
  0.256340466440E-01 -0.239482764155E-01  0.402408302762E-03
  0.256340466440E-01  0.239482764155E-01 -0.402408302762E-03
  0.256340466440E-01  0.239482764155E-01  0.402408302762E-03
  0.268911588937E-01 -0.239482764155E-01 -0.681766483467E-03
  0.268911588937E-01 -0.239482764155E-01  0.681766483467E-03
  0.268911588937E-01  0.239482764155E-01 -0.681766483467E-03
  0.268911588937E-01  0.239482764155E-01  0.681766483467E-03
  0.279005654156E-01 -0.798275880516E-02 -0.443544331938E-02
  0.279005654156E-01 -0.798275880516E-02  0.443544331938E-02
  0.279005654156E-01  0.798275880516E-02 -0.443544331938E-02
  0.279005654156E-01  0.798275880516E-02  0.443544331938E-02
  0.279194246978E-01 -0.159655176103E-01 -0.267495214939E-02
  0.279194246978E-01 -0.159655176103E-01  0.267495214939E-02
  0.279194246978E-01  0.159655176103E-01 -0.267495214939E-02
  0.279194246978E-01  0.159655176103E-01  0.267495214939E-02
  0.284467395395E-01 -0.239482764155E-01 -0.102745089680E-02
  0.284467395395E-01 -0.239482764155E-01  0.102745089680E-02
  0.284467395395E-01  0.239482764155E-01 -0.102745089680E-02
  0.284467395395E-01  0.239482764155E-01  0.102745089680E-02
  0.303528755903E-01 -0.239482764155E-01 -0.145103677642E-02
  0.303528755903E-01 -0.239482764155E-01  0.145103677642E-02
  0.303528755903E-01  0.239482764155E-01 -0.145103677642E-02
  0.303528755903E-01  0.239482764155E-01  0.145103677642E-02
  0.304094180465E-01  0.000000000000E+00 -0.675764819607E-02
  0.304094180465E-01  0.000000000000E+00  0.675764819607E-02
  0.312736406922E-01 -0.159655176103E-01 -0.342033314519E-02
  0.312736406922E-01 -0.159655176103E-01  0.342033314519E-02
  0.312736406922E-01  0.159655176103E-01 -0.342033314519E-02
  0.312736406922E-01  0.159655176103E-01  0.342033314519E-02
  0.317642800510E-01 -0.319310352206E-01  0.000000000000E+00
  0.317642800510E-01  0.319310352206E-01  0.000000000000E+00
  0.323900580406E-01 -0.798275880516E-02 -0.543310819194E-02
  0.323900580406E-01 -0.798275880516E-02  0.543310819194E-02
  0.323900580406E-01  0.798275880516E-02 -0.543310819194E-02
  0.323900580406E-01  0.798275880516E-02  0.543310819194E-02
  0.325363464653E-01 -0.319310352206E-01 -0.171570340171E-03
  0.325363464653E-01 -0.319310352206E-01  0.171570340171E-03
  0.325363464653E-01  0.319310352206E-01 -0.171570340171E-03
  0.325363464653E-01  0.319310352206E-01  0.171570340171E-03
  0.326607152820E-01 -0.239482764155E-01 -0.196388992481E-02
  0.326607152820E-01 -0.239482764155E-01  0.196388992481E-02
  0.326607152820E-01  0.239482764155E-01 -0.196388992481E-02
  0.326607152820E-01  0.239482764155E-01  0.196388992481E-02
  0.335054695606E-01 -0.319310352206E-01 -0.386931060348E-03
  0.335054695606E-01 -0.319310352206E-01  0.386931060348E-03
  0.335054695606E-01  0.319310352206E-01 -0.386931060348E-03
  0.335054695606E-01  0.319310352206E-01  0.386931060348E-03
  0.347142331302E-01 -0.319310352206E-01 -0.655544688925E-03
  0.347142331302E-01 -0.319310352206E-01  0.655544688925E-03
  0.347142331302E-01  0.319310352206E-01 -0.655544688925E-03
  0.347142331302E-01  0.319310352206E-01  0.655544688925E-03
  0.351287946105E-01 -0.159655176103E-01 -0.427703466266E-02
  0.351287946105E-01 -0.159655176103E-01  0.427703466266E-02
  0.351287946105E-01  0.159655176103E-01 -0.427703466266E-02
  0.351287946105E-01  0.159655176103E-01  0.427703466266E-02
  0.354146696627E-01 -0.239482764155E-01 -0.257587991655E-02
  0.354146696627E-01 -0.239482764155E-01  0.257587991655E-02
  0.354146696627E-01  0.239482764155E-01 -0.257587991655E-02
  0.354146696627E-01  0.239482764155E-01  0.257587991655E-02
  0.358190163970E-01  0.000000000000E+00 -0.795978121459E-02
  0.358190163970E-01  0.000000000000E+00  0.795978121459E-02
  0.362099818885E-01 -0.319310352206E-01 -0.987933599390E-03
  0.362099818885E-01 -0.319310352206E-01  0.987933599390E-03
  0.362099818885E-01  0.319310352206E-01 -0.987933599390E-03
  0.362099818885E-01  0.319310352206E-01  0.987933599390E-03
  0.373018868268E-01 -0.798275880516E-02 -0.652462616563E-02
  0.373018868268E-01 -0.798275880516E-02  0.652462616563E-02
  0.373018868268E-01  0.798275880516E-02 -0.652462616563E-02
  0.373018868268E-01  0.798275880516E-02  0.652462616563E-02
  0.380428060889E-01 -0.319310352206E-01 -0.139522773679E-02
  0.380428060889E-01 -0.319310352206E-01  0.139522773679E-02
  0.380428060889E-01  0.319310352206E-01 -0.139522773679E-02
  0.380428060889E-01  0.319310352206E-01  0.139522773679E-02
[...]
POINT_DATA                3023
SCALARS mu float 1
LOOKUP_TABLE default
 -0.249360595016E-08
 -0.815856610834E-04
 -0.815856610834E-04
 -0.181781376404E-03
 -0.181781376404E-03
 -0.305150979923E-03
 -0.305150979923E-03
 -0.455809347693E-03
 -0.455809347694E-03
 -0.638388525665E-03
 -0.638388525665E-03
 -0.393978189352E-03
 -0.393978189352E-03
 -0.591537127024E-03
 -0.591537127026E-03
 -0.591537127024E-03
 -0.591537127025E-03
 -0.857350222019E-03
 -0.857350222019E-03
 -0.756653751436E-03
 -0.756653751434E-03
 -0.756653751433E-03
 -0.756653751436E-03
 -0.930973645557E-03
 -0.930973645557E-03
 -0.930973645556E-03
 -0.930973645557E-03
 -0.112304856923E-02
 -0.112304856923E-02
 -0.112304856923E-02
 -0.112304856923E-02
 -0.111623815650E-02
 -0.111623815650E-02
 -0.134000216140E-02
 -0.134000216139E-02
 -0.134000216139E-02
 -0.134000216139E-02
 -0.785442904038E-03
 -0.785442904038E-03
 -0.142119651095E-02
 -0.142119651095E-02
 -0.100516425883E-02
 -0.100516425883E-02
 -0.100516425883E-02
 -0.100516425883E-02
 -0.158752463079E-02
 -0.158752463079E-02
 -0.158752463078E-02
 -0.158752463079E-02
 -0.119798742711E-02
 -0.119798742711E-02
 -0.119798742711E-02
 -0.119798742711E-02
 -0.140152113318E-02
 -0.140152113318E-02
 -0.140152113318E-02
 -0.140152113319E-02
 -0.187177634902E-02
 -0.187177634901E-02
 -0.187177634901E-02
 -0.187177634902E-02
 -0.177637446830E-02
 -0.177637446830E-02
 -0.162396098958E-02
 -0.162396098958E-02
 -0.162396098958E-02
 -0.162396098958E-02
 -0.187073020898E-02
 -0.187073020898E-02
 -0.187073020898E-02
 -0.187073020898E-02
 -0.117578778057E-02
 -0.117578778057E-02
 -0.219732379989E-02
 -0.219732379989E-02
 -0.219732379989E-02
 -0.219732379989E-02
 -0.140598807700E-02
 -0.140598807700E-02
 -0.140598807700E-02
 -0.140598807700E-02
 -0.214743115451E-02
 -0.214743115451E-02
 -0.214743115451E-02
 -0.214743115451E-02
 -0.217565982439E-02
 -0.217565982439E-02
 -0.161353678658E-02
 -0.161353678657E-02
 -0.161353678658E-02
 -0.161353678658E-02
 -0.183408265121E-02
 -0.183408265120E-02
 -0.183408265120E-02
 -0.183408265120E-02
 -0.256289521844E-02
 -0.256289521844E-02
 -0.256289521844E-02
 -0.256289521844E-02
 -0.245960609138E-02
 -0.245960609138E-02
 -0.245960609138E-02
 -0.245960609138E-02
 -0.207550187539E-02
 -0.207550187539E-02
 -0.207550187539E-02
 -0.207550187538E-02
 -0.234316524765E-02
 -0.234316524765E-02
 -0.234316524765E-02
 -0.234316524765E-02
 -0.261037616727E-02
 -0.261037616727E-02
 -0.280776056058E-02
 -0.280776056058E-02
 -0.280776056058E-02
 -0.280776056058E-02
 -0.156559882748E-02
 -0.156559882748E-02
 -0.296617372014E-02
 -0.296617372014E-02
 -0.296617372014E-02
 -0.296617372014E-02
 -0.180013815107E-02
 -0.180013815107E-02
 -0.180013815107E-02
 -0.180013815107E-02
 -0.264256191548E-02
 -0.264256191548E-02
 -0.264256191548E-02
 -0.264256191548E-02
 -0.201577877999E-02
 -0.201577877999E-02
 -0.201577877999E-02
 -0.201577877999E-02
 -0.224654075243E-02
 -0.224654075244E-02
 -0.224654075244E-02
 -0.224654075244E-02
 -0.319114563471E-02
 -0.319114563472E-02
 -0.319114563472E-02
 -0.319114563471E-02
 -0.297499757368E-02
 -0.297499757368E-02
 -0.297499757368E-02
 -0.297499757368E-02
 -0.307433839277E-02
 -0.307433839277E-02
 -0.250161747520E-02
 -0.250161747520E-02
 -0.250161747520E-02
 -0.250161747520E-02
 -0.340279721785E-02
 -0.340279721785E-02
 -0.340279721785E-02
 -0.340279721785E-02
 -0.278490582814E-02
 -0.278490582814E-02
 -0.278490582814E-02
 -0.278490582814E-02
 -0.334081808529E-02
 -0.334081808530E-02
 -0.334081808530E-02
 -0.334081808529E-02
 -0.360805242850E-02
 -0.360805242850E-02
 -0.360805242850E-02
 -0.360805242850E-02
 -0.195513510281E-02
 -0.195513510281E-02
 -0.309847120068E-02
 -0.309847120068E-02
 -0.309847120068E-02
 -0.309847120068E-02
 -0.219000221148E-02
 -0.219000221147E-02
 -0.219000221148E-02
 -0.219000221148E-02
 -0.241133465350E-02
 -0.241133465349E-02
 -0.241133465349E-02
 -0.241133465350E-02
 -0.355355896588E-02
 -0.355355896588E-02
 -0.374030764072E-02
 -0.374030764072E-02
 -0.374030764072E-02
 -0.374030764072E-02
 -0.386734695783E-02
 -0.386734695783E-02
 -0.386734695783E-02
 -0.386734695783E-02
 -0.265008238229E-02
 -0.265008238229E-02
 -0.265008238229E-02
 -0.265008238229E-02
 -0.344485259304E-02
 -0.344485259304E-02
 -0.344485259303E-02
 -0.344485259304E-02
 -0.291297945285E-02
 -0.291297945284E-02
 -0.291297945285E-02
 -0.291297945285E-02
 -0.405547938036E-02
 -0.405547938036E-02
 -0.405547938036E-02
 -0.405547938036E-02
 -0.320439866317E-02
 -0.320439866317E-02
 -0.320439866318E-02
 -0.320439866317E-02
 -0.382512726191E-02
 -0.382512726191E-02
 -0.382512726191E-02
 -0.382512726192E-02
 -0.417158354445E-02
 -0.417158354446E-02
 -0.417158354445E-02
 -0.417158354446E-02
 -0.234681171176E-02
 -0.234681171176E-02
 -0.352748898151E-02
 -0.352748898151E-02
 -0.352748898151E-02
 -0.352748898151E-02
 -0.411400767562E-02
 -0.411400767562E-02
 -0.411400767562E-02
 -0.411400767562E-02
 -0.258170181315E-02
 -0.258170181316E-02
 -0.258170181316E-02
 -0.258170181316E-02
 -0.452634907133E-02
 -0.452634907133E-02
 -0.452634907133E-02
 -0.452634907133E-02
 -0.280396744923E-02
 -0.280396744924E-02
 -0.280396744924E-02
 -0.280396744923E-02
 -0.423727840620E-02
 -0.423727840621E-02
 -0.423727840621E-02
 -0.423727840620E-02
 -0.304527110184E-02
 -0.304527110184E-02
 -0.304527110184E-02
 -0.304527110184E-02
 -0.388424587705E-02
 -0.388424587706E-02
 -0.388424587705E-02
 -0.388424587706E-02
 -0.462938202677E-02
 -0.462938202677E-02
 -0.462938202676E-02
 -0.462938202676E-02
 -0.331195190231E-02
 -0.331195190232E-02
 -0.331195190232E-02
 -0.331195190231E-02
 -0.427427426418E-02
 -0.427427426419E-02
 -0.427427426418E-02
 -0.427427426418E-02
 -0.360844573182E-02
 -0.360844573183E-02
 -0.360844573183E-02
 -0.360844573182E-02
 -0.468083074422E-02
 -0.468083074423E-02
 -0.468083074423E-02
 -0.468083074423E-02
 -0.456583977046E-02
 -0.456583977046E-02
 -0.456583977046E-02
 -0.456583977046E-02
 -0.393756601774E-02
 -0.393756601773E-02
 -0.393756601773E-02
 -0.393756601774E-02
 -0.273939391284E-02
 -0.273939391284E-02
 -0.510427605861E-02
 -0.510427605861E-02
 -0.510427605861E-02
 -0.510427605861E-02
 -0.297110096359E-02
 -0.297110096360E-02
 -0.297110096360E-02
 -0.297110096359E-02
 -0.469735580051E-02
 -0.469735580052E-02
 -0.469735580052E-02
 -0.469735580052E-02
 -0.319250677346E-02
 -0.319250677346E-02
 -0.319250677346E-02
 -0.319250677345E-02
 -0.430072612663E-02
 -0.430072612663E-02
 -0.430072612663E-02
 -0.430072612663E-02
 -0.514875352040E-02
 -0.514875352041E-02
 -0.514875352040E-02
 -0.514875352040E-02
 -0.343412337583E-02
 -0.343412337584E-02
 -0.343412337584E-02
 -0.343412337583E-02
 -0.370200917584E-02
 -0.370200917583E-02
 -0.370200917584E-02
 -0.370200917584E-02
 -0.514900657990E-02
 -0.514900657990E-02
 -0.514900657990E-02
 -0.514900657991E-02
 -0.469791027672E-02
 -0.469791027672E-02
 -0.469791027672E-02
 -0.469791027672E-02
 -0.495484850421E-02
 -0.495484850422E-02
 -0.495484850422E-02
 -0.495484850422E-02
 -0.400080318090E-02
 -0.400080318090E-02
 -0.400080318090E-02
 -0.400080318090E-02
 -0.558929140963E-02
 -0.558929140963E-02
 -0.558929140963E-02
 -0.558929140963E-02
 -0.433273267972E-02
 -0.433273267971E-02
 -0.433273267971E-02
 -0.433273267972E-02
 -0.313163463112E-02
 -0.313163463113E-02
 -0.512795006489E-02
 -0.512795006489E-02
 -0.512795006489E-02
 -0.512795006489E-02
 -0.335874111462E-02
 -0.335874111461E-02
 -0.335874111461E-02
 -0.335874111462E-02
 -0.561727861121E-02
 -0.561727861121E-02
 -0.561727861121E-02
 -0.561727861121E-02
 -0.357778064017E-02
 -0.357778064016E-02
 -0.357778064016E-02
 -0.357778064017E-02
 -0.469906824453E-02
 -0.469906824454E-02
 -0.469906824453E-02
 -0.469906824454E-02
 -0.381793157735E-02
 -0.381793157735E-02
 -0.381793157735E-02
 -0.381793157736E-02
 -0.500705396004E-02
 -0.500705396004E-02
 -0.408520257169E-02
 -0.408520257168E-02
 -0.408520257168E-02
 -0.408520257169E-02
 -0.563312473884E-02
 -0.563312473884E-02
 -0.563312473884E-02
 -0.563312473884E-02
 -0.558482870350E-02
 -0.558482870350E-02
 -0.558482870350E-02
 -0.558482870350E-02
 -0.510104343181E-02
 -0.510104343182E-02
 -0.510104343182E-02
 -0.510104343182E-02
 -0.438356671517E-02
 -0.438356671516E-02
 -0.438356671516E-02
 -0.438356671517E-02
 -0.601128955855E-02
 -0.601128955855E-02
 -0.601128955855E-02
 -0.601128955855E-02
 -0.471566291909E-02
 -0.471566291910E-02
 -0.471566291909E-02
 -0.471566291910E-02
 -0.553421791440E-02
 -0.553421791440E-02
 -0.553421791439E-02
 -0.553421791440E-02
 -0.352353561424E-02
 -0.352353561423E-02
 -0.604683919013E-02
 -0.604683919013E-02
 -0.604683919013E-02
 -0.604683919013E-02
 -0.374520047631E-02
 -0.374520047632E-02
 -0.374520047631E-02
 -0.374520047632E-02
 -0.500891511518E-02
 -0.500891511518E-02
 -0.500891511518E-02
 -0.500891511518E-02
 -0.396074035995E-02
 -0.396074035994E-02
 -0.396074035994E-02
 -0.396074035995E-02
 -0.508414987551E-02
 -0.508414987553E-02
 -0.508414987552E-02
 -0.508414987552E-02
 -0.419762806543E-02
 -0.419762806542E-02
 -0.419762806542E-02
 -0.419762806543E-02
 -0.588023552615E-02
 -0.588023552616E-02
 -0.588023552615E-02
 -0.588023552615E-02
 -0.599193110364E-02
 -0.599193110363E-02
 -0.599193110363E-02
 -0.599193110364E-02
 -0.446180830914E-02
 -0.446180830914E-02
 -0.446180830913E-02
 -0.446180830914E-02
 -0.548675250251E-02
 -0.548675250252E-02
 -0.548675250251E-02
 -0.548675250251E-02
 -0.643160901296E-02
 -0.643160901295E-02
 -0.643160901295E-02
 -0.643160901296E-02
 -0.475863050544E-02
 -0.475863050543E-02
 -0.475863050543E-02
 -0.475863050544E-02
 -0.505665802914E-02
 -0.505665802914E-02
 -0.505665802914E-02
 -0.505665802914E-02
 -0.509004476799E-02
 -0.509004476799E-02
 -0.509004476799E-02
 -0.509004476799E-02
 -0.592091483406E-02
 -0.592091483405E-02
 -0.592091483405E-02
 -0.592091483407E-02
 -0.645016160789E-02
 -0.645016160789E-02
 -0.645016160789E-02
 -0.645016160790E-02
 -0.391510363504E-02
 -0.391510363504E-02
 -0.412999752529E-02
 -0.412999752530E-02
 -0.412999752530E-02
 -0.412999752530E-02
 -0.545667423784E-02
 -0.545667423783E-02
 -0.545667423783E-02
 -0.545667423784E-02
 -0.601181918654E-02
 -0.601181918654E-02
 -0.601181918654E-02
 -0.601181918654E-02
 -0.434083381849E-02
 -0.434083381850E-02
 -0.434083381850E-02
 -0.434083381849E-02
 -0.457384886849E-02
 -0.457384886849E-02
 -0.457384886849E-02
 -0.457384886848E-02
 -0.637026008272E-02
 -0.637026008271E-02
 -0.637026008271E-02
 -0.637026008272E-02
 -0.659465523113E-02
 -0.659465523113E-02
 -0.659465523113E-02
 -0.659465523114E-02
 -0.483494879701E-02
 -0.483494879701E-02
 -0.483494879701E-02
 -0.483494879701E-02
 -0.585712948649E-02
 -0.585712948649E-02
 -0.585712948649E-02
 -0.585712948649E-02
 -0.504994842346E-02
 -0.504994842346E-02
 -0.504994842346E-02
 -0.504994842346E-02
 -0.512777211624E-02
 -0.512777211622E-02
 -0.512777211622E-02
 -0.512777211624E-02
 -0.676606823713E-02
 -0.676606823711E-02
 -0.676606823711E-02
 -0.676606823713E-02
 -0.628735664203E-02
 -0.628735664203E-02
 -0.628735664203E-02
 -0.628735664203E-02
 -0.545543597552E-02
 -0.545543597552E-02
 -0.545543597551E-02
 -0.545543597552E-02
 -0.610979747881E-02
 -0.610979747881E-02
 -0.610979747881E-02
 -0.610979747881E-02
 -0.430650497359E-02
 -0.430650497359E-02
 -0.581812045252E-02
 -0.581812045252E-02
 -0.581812045251E-02
 -0.581812045252E-02
 -0.451505358776E-02
 -0.451505358775E-02
 -0.451505358775E-02
 -0.451505358776E-02
 -0.472051954331E-02
 -0.472051954330E-02
 -0.472051954331E-02
 -0.472051954330E-02
 -0.673184796423E-02
 -0.673184796422E-02
 -0.673184796423E-02
 -0.673184796423E-02
 -0.514861067382E-02
 -0.514861067384E-02
 -0.514861067383E-02
 -0.514861067383E-02
 -0.668997278612E-02
 -0.668997278613E-02
 -0.668997278612E-02
 -0.668997278612E-02
 -0.494796177115E-02
 -0.494796177114E-02
 -0.494796177114E-02
 -0.494796177115E-02
 -0.621821461269E-02
 -0.621821461269E-02
 -0.621821461269E-02
 -0.621821461269E-02
 -0.520381558925E-02
 -0.520381558924E-02
 -0.520381558924E-02
 -0.520381558924E-02
 -0.511188824500E-02
 -0.511188824500E-02
 -0.549157466829E-02
 -0.549157466827E-02
 -0.549157466827E-02
 -0.549157466829E-02
 -0.690833632659E-02
 -0.690833632658E-02
 -0.690833632659E-02
 -0.690833632658E-02
 -0.663251437546E-02
 -0.663251437545E-02
 -0.663251437545E-02
 -0.663251437545E-02
 -0.581326170535E-02
 -0.581326170533E-02
 -0.581326170534E-02
 -0.581326170535E-02
 -0.626040830538E-02
 -0.626040830537E-02
 -0.626040830537E-02
 -0.626040830538E-02
 -0.528390250769E-02
 -0.528390250769E-02
 -0.528390250769E-02
 -0.528390250769E-02
 -0.469875233079E-02
 -0.469875233079E-02
 -0.617455654237E-02
 -0.617455654237E-02
 -0.617455654237E-02
 -0.617455654237E-02
 -0.489943623518E-02
 -0.489943623517E-02
 -0.489943623517E-02
 -0.489943623518E-02
 -0.698242732785E-02
 -0.698242732784E-02
 -0.698242732784E-02
 -0.698242732785E-02
 -0.679787270500E-02
 -0.679787270499E-02
 -0.679787270499E-02
 -0.679787270500E-02
 -0.516557359291E-02
 -0.516557359292E-02
 -0.516557359292E-02
 -0.516557359291E-02
 -0.509852047491E-02
 -0.509852047491E-02
 -0.509852047492E-02
 -0.509852047491E-02
 -0.531998452510E-02
 -0.531998452510E-02
 -0.531998452510E-02
 -0.531998452510E-02
 -0.655730281484E-02
 -0.655730281484E-02
 -0.655730281484E-02
 -0.655730281485E-02
 -0.556907753546E-02
 -0.556907753547E-02
 -0.556907753546E-02
 -0.556907753546E-02
 -0.698543930800E-02
 -0.698543930800E-02
 -0.698543930800E-02
 -0.698543930800E-02
 -0.584959939792E-02
 -0.584959939792E-02
 -0.584959939792E-02
 -0.584959939792E-02
 -0.643229066205E-02
 -0.643229066204E-02
 -0.643229066204E-02
 -0.643229066205E-02
 -0.695570074456E-02
 -0.695570074456E-02
 -0.695570074455E-02
 -0.695570074456E-02
 -0.539758185162E-02
 -0.539758185162E-02
 -0.539758185162E-02
 -0.539758185162E-02
 -0.525758885797E-02
 -0.525758885798E-02
 -0.525758885798E-02
 -0.525758885798E-02
 -0.617030581592E-02
 -0.617030581593E-02
 -0.617030581593E-02
 -0.617030581592E-02
 -0.651430734480E-02
 -0.651430734480E-02
 -0.651430734480E-02
 -0.651430734480E-02
 -0.695442510033E-02
 -0.695442510033E-02
 -0.695442510033E-02
 -0.695442510034E-02
 -0.710152763402E-02
 -0.710152763402E-02
 -0.710152763402E-02
 -0.710152763402E-02
 -0.509099528987E-02
 -0.509099528987E-02
 -0.528338523516E-02
 -0.528338523519E-02
 -0.528338523518E-02
 -0.528338523517E-02
 -0.547502459517E-02
 -0.547502459520E-02
 -0.547502459520E-02
 -0.547502459518E-02
 -0.688469867894E-02
 -0.688469867893E-02
 -0.688469867893E-02
 -0.688469867894E-02
 -0.569200761458E-02
 -0.569200761461E-02
 -0.569200761459E-02
 -0.569200761459E-02
 -0.531543050324E-02
 -0.531543050324E-02
 -0.531543050324E-02
 -0.531543050324E-02
 -0.593644084097E-02
 -0.593644084097E-02
 -0.593644084097E-02
 -0.593644084098E-02
 -0.711712489481E-02
 -0.711712489483E-02
 -0.711712489482E-02
 -0.711712489482E-02
 -0.549048453162E-02
 -0.549048453161E-02
 -0.549048453161E-02
 -0.549048453162E-02
 -0.654163824259E-02
 -0.654163824260E-02
 -0.654163824260E-02
 -0.654163824260E-02
 -0.620846860664E-02
 -0.620846860665E-02
 -0.620846860664E-02
 -0.620846860664E-02
 -0.710412810471E-02
 -0.710412810469E-02
 -0.710412810469E-02
 -0.710412810471E-02
 -0.650929024342E-02
 -0.650929024343E-02
 -0.650929024342E-02
 -0.650929024343E-02
 -0.707611690667E-02
 -0.707611690666E-02
 -0.707611690666E-02
 -0.707611690666E-02
 -0.719345804221E-02
 -0.719345804221E-02
 -0.719345804221E-02
 -0.719345804221E-02
 -0.684637595630E-02
 -0.684637595631E-02
 -0.684637595630E-02
 -0.684637595631E-02
 -0.537961001855E-02
 -0.537961001856E-02
 -0.537961001856E-02
 -0.537961001855E-02
 -0.548865599258E-02
 -0.548865599258E-02
 -0.567328278759E-02
 -0.567328278761E-02
 -0.567328278762E-02
 -0.567328278758E-02
 -0.556827686403E-02
 -0.556827686403E-02
 -0.556827686403E-02
 -0.556827686403E-02
 -0.585817134497E-02
 -0.585817134500E-02
 -0.585817134499E-02
 -0.585817134498E-02
 -0.706801455658E-02
 -0.706801455657E-02
 -0.706801455657E-02
 -0.706801455658E-02
 -0.606289399796E-02
 -0.606289399798E-02
 -0.606289399797E-02
 -0.606289399797E-02
 -0.658117630645E-02
 -0.658117630645E-02
 -0.658117630645E-02
 -0.658117630645E-02
 -0.725667680637E-02
 -0.725667680637E-02
 -0.725667680637E-02
 -0.725667680637E-02
 -0.631666748658E-02
 -0.631666748657E-02
 -0.631666748657E-02
 -0.631666748658E-02
 -0.721054527362E-02
 -0.721054527361E-02
 -0.721054527362E-02
 -0.721054527362E-02
 -0.527788952226E-02
 -0.527788952226E-02
 -0.655165394960E-02
 -0.655165394959E-02
 -0.655165394959E-02
 -0.655165394960E-02
 -0.542014311308E-02
 -0.542014311308E-02
 -0.542014311308E-02
 -0.542014311308E-02
 -0.682160153697E-02
 -0.682160153698E-02
 -0.682160153697E-02
 -0.682160153697E-02
 -0.712342861163E-02
 -0.712342861163E-02
 -0.712342861163E-02
 -0.712342861163E-02
 -0.732781548793E-02
 -0.732781548792E-02
 -0.732781548793E-02
 -0.732781548793E-02
 -0.564101858243E-02
 -0.564101858243E-02
 -0.564101858243E-02
 -0.564101858243E-02
 -0.702404155062E-02
 -0.702404155064E-02
 -0.702404155064E-02
 -0.702404155063E-02
 -0.529625014682E-02
 -0.529625014682E-02
 -0.529625014682E-02
 -0.529625014682E-02
 -0.588640899770E-02
 -0.588640899770E-02
 -0.606040089834E-02
 -0.606040089832E-02
 -0.606040089832E-02
 -0.606040089833E-02
 -0.662109864816E-02
 -0.662109864816E-02
 -0.662109864816E-02
 -0.662109864816E-02
 -0.718966599245E-02
 -0.718966599243E-02
 -0.718966599244E-02
 -0.718966599245E-02
 -0.731809557475E-02
 -0.731809557474E-02
 -0.731809557474E-02
 -0.731809557475E-02
 -0.623535442548E-02
 -0.623535442548E-02
 -0.623535442547E-02
 -0.623535442549E-02
 -0.547028658896E-02
 -0.547028658896E-02
 -0.547028658896E-02
 -0.547028658896E-02
 -0.643400011652E-02
 -0.643400011651E-02
 -0.643400011650E-02
 -0.643400011653E-02
 -0.662754056092E-02
 -0.662754056092E-02
 -0.662754056091E-02
 -0.662754056093E-02
 -0.732258016791E-02
 -0.732258016792E-02
 -0.732258016791E-02
 -0.732258016791E-02
 -0.533496785350E-02
 -0.533496785350E-02
 -0.533496785350E-02
 -0.533496785350E-02
 -0.681205318913E-02
 -0.681205318913E-02
 -0.681205318912E-02
 -0.681205318914E-02
 -0.712769279331E-02
 -0.712769279331E-02
 -0.712769279332E-02
 -0.712769279331E-02
 -0.571542916208E-02
 -0.571542916208E-02
 -0.571542916208E-02
 -0.571542916208E-02
 -0.699754113970E-02
 -0.699754113971E-02
 -0.699754113971E-02
 -0.699754113971E-02
 -0.740220591217E-02
 -0.740220591218E-02
 -0.740220591217E-02
 -0.740220591218E-02
 -0.551759307491E-02
 -0.551759307491E-02
 -0.551759307491E-02
 -0.551759307491E-02
 -0.713270741828E-02
 -0.713270741828E-02
 -0.713270741828E-02
 -0.713270741828E-02
 -0.668047369941E-02
 -0.668047369941E-02
 -0.668047369941E-02
 -0.668047369941E-02
 -0.535835981257E-02
 -0.535835981257E-02
 -0.535835981257E-02
 -0.535835981257E-02
 -0.733620392823E-02
 -0.733620392824E-02
 -0.733620392824E-02
 -0.733620392824E-02
 -0.625211380262E-02
 -0.625211380261E-02
 -0.729120838818E-02
 -0.729120838817E-02
 -0.729120838817E-02
 -0.729120838818E-02
 -0.639493468116E-02
 -0.639493468118E-02
 -0.639493468119E-02
 -0.639493468116E-02
 -0.653234825473E-02
 -0.653234825476E-02
 -0.653234825475E-02
 -0.653234825474E-02
 -0.667248945461E-02
 -0.667248945460E-02
 -0.667248945460E-02
 -0.667248945461E-02
 -0.577865246856E-02
 -0.577865246856E-02
 -0.577865246856E-02
 -0.577865246857E-02
 -0.740857419005E-02
 -0.740857419003E-02
 -0.740857419003E-02
 -0.740857419005E-02
 -0.682331187696E-02
 -0.682331187697E-02
 -0.682331187696E-02
 -0.682331187698E-02
 -0.715419225702E-02
 -0.715419225702E-02
 -0.715419225702E-02
 -0.715419225702E-02
 -0.555734145957E-02
 -0.555734145958E-02
 -0.555734145958E-02
 -0.555734145958E-02
 -0.694984425436E-02
 -0.694984425434E-02
 -0.694984425434E-02
 -0.694984425437E-02
 -0.538414411814E-02
 -0.538414411814E-02
 -0.538414411814E-02
 -0.538414411814E-02
 -0.741641676593E-02
 -0.741641676592E-02
 -0.741641676592E-02
 -0.741641676593E-02
 -0.709272680770E-02
 -0.709272680768E-02
 -0.709272680768E-02
 -0.709272680770E-02
 -0.672335752466E-02
 -0.672335752466E-02
 -0.672335752466E-02
 -0.672335752466E-02