# vtk DataFile Version 3.0
MachLine results file. Generated by MachLine, USU AeroLab (c) 2022.
ASCII
DATASET POLYDATA
POINTS                3023 float
  0.988667205390E-06 -0.323521905550E-22  0.000000000000E+00
  0.895790493430E-03 -0.421689368662E-23 -0.198151751717E-03
  0.895790493430E-03  0.421689368662E-23  0.198151751717E-03
  0.201997670153E-02  0.128620196563E-22 -0.447955660106E-03
  0.201997670153E-02  0.857467977089E-23  0.447955660106E-03
  0.342214377347E-02  0.218603468366E-22 -0.759530001987E-03
  0.342214377347E-02  0.699531098773E-22  0.759530001987E-03
  0.515721813041E-02  0.491920474093E-22 -0.114508044864E-02
  0.515721813041E-02  0.536640517192E-22  0.114508044864E-02
  0.728329878903E-02  0.229345956678E-22 -0.161751794238E-02
  0.728329878903E-02  0.183476765342E-22  0.161751794238E-02
  0.794169417637E-02  0.798213774408E-02 -0.544630282057E-22
  0.794169417637E-02 -0.798213774408E-02 -0.544630282057E-22
  0.880597257904E-02  0.798257159579E-02 -0.191312753221E-03
  0.880597257904E-02  0.798257159579E-02  0.191312753221E-03
  0.880597257904E-02 -0.798257159579E-02 -0.191312753221E-03
  0.880597257904E-02 -0.798257159579E-02  0.191312753221E-03
  0.985743291232E-02  0.000000000000E+00 -0.218952007406E-02
  0.985743291232E-02  0.000000000000E+00  0.218952007406E-02
  0.989139356203E-02  0.798256867712E-02 -0.432503561150E-03
  0.989139356203E-02  0.798256867712E-02  0.432503561150E-03
  0.989139356203E-02 -0.798256867712E-02 -0.432503561150E-03
  0.989139356203E-02 -0.798256867712E-02  0.432503561150E-03
  0.112452098294E-01  0.798256515728E-02 -0.733334912809E-03
  0.112452098294E-01  0.798256515728E-02  0.733334912809E-03
  0.112452098294E-01 -0.798256515728E-02 -0.733334912809E-03
  0.112452098294E-01 -0.798256515728E-02  0.733334912809E-03
  0.129204538080E-01  0.798256099049E-02 -0.110559157090E-02
  0.129204538080E-01  0.798256099049E-02  0.110559157090E-02
  0.129204538080E-01 -0.798256099049E-02 -0.110559157090E-02
  0.129204538080E-01 -0.798256099049E-02  0.110559157090E-02
  0.129291578141E-01  0.145528583956E-22 -0.287209612839E-02
  0.129291578141E-01 -0.145528583956E-22  0.287209612839E-02
  0.149732210889E-01  0.798255617487E-02 -0.156173921986E-02
  0.149732210889E-01  0.798255617487E-02  0.156173921986E-02
  0.149732210889E-01 -0.798255617487E-02 -0.156173921986E-02
  0.149732210889E-01 -0.798255617487E-02  0.156173921986E-02
  0.158827627980E-01  0.159648977741E-01  0.000000000000E+00
  0.158827627980E-01 -0.159648977741E-01  0.000000000000E+00
  0.165318385592E-01  0.498784519311E-23 -0.367266221667E-02
  0.165318385592E-01  0.000000000000E+00  0.367266221667E-02
  0.167161594774E-01  0.159653306919E-01 -0.184452097951E-03
  0.167161594774E-01  0.159653306919E-01  0.184452097951E-03
  0.167161594774E-01 -0.159653306919E-01 -0.184452097951E-03
  0.167161594774E-01 -0.159653306919E-01  0.184452097951E-03
  0.174585917319E-01  0.798255078021E-02 -0.211401819846E-02
  0.174585917319E-01  0.798255078021E-02  0.211401819846E-02
  0.174585917319E-01 -0.798255078021E-02 -0.211401819846E-02
  0.174585917319E-01 -0.798255078021E-02  0.211401819846E-02
  0.177628154083E-01  0.159653278957E-01 -0.417029030636E-03
  0.177628154083E-01  0.159653278957E-01  0.417029030636E-03
  0.177628154083E-01 -0.159653278957E-01 -0.417029030636E-03
  0.177628154083E-01 -0.159653278957E-01  0.417029030636E-03
  0.190682810770E-01  0.159653245247E-01 -0.707116510316E-03
  0.190682810770E-01  0.159653245247E-01  0.707116510316E-03
  0.190682810770E-01 -0.159653245247E-01 -0.707116510316E-03
  0.190682810770E-01 -0.159653245247E-01  0.707116510316E-03
  0.204243948942E-01  0.798254497834E-02 -0.277305802598E-02
  0.204243948942E-01  0.798254497834E-02  0.277305802598E-02
  0.204243948942E-01 -0.798254497834E-02 -0.277305802598E-02
  0.204243948942E-01 -0.798254497834E-02  0.277305802598E-02
  0.206725682454E-01  0.000000000000E+00 -0.459279690268E-02
  0.206725682454E-01 -0.511472811643E-23  0.459279690268E-02
  0.206836948766E-01  0.159653205360E-01 -0.106607842018E-02
  0.206836948766E-01  0.159653205360E-01  0.106607842018E-02
  0.206836948766E-01 -0.159653205360E-01 -0.106607842018E-02
  0.206836948766E-01 -0.159653205360E-01  0.106607842018E-02
  0.226631490080E-01  0.159653159288E-01 -0.150593524595E-02
  0.226631490080E-01  0.159653159288E-01  0.150593524595E-02
  0.226631490080E-01 -0.159653159288E-01 -0.150593524595E-02
  0.226631490080E-01 -0.159653159288E-01  0.150593524595E-02
  0.238238314206E-01  0.239476578040E-01  0.542155751573E-22
  0.238238314206E-01 -0.239476578040E-01  0.542155751573E-22
  0.239028451455E-01  0.798253906808E-02 -0.354601891520E-02
  0.239028451455E-01  0.798253906808E-02  0.354601891520E-02
  0.239028451455E-01 -0.798253906808E-02 -0.354601891520E-02
  0.239028451455E-01 -0.798253906808E-02  0.354601891520E-02
  0.246263463781E-01  0.239480897887E-01 -0.177591440811E-03
  0.246263463781E-01  0.239480897887E-01  0.177591440811E-03
  0.246263463781E-01 -0.239480897887E-01 -0.177591440811E-03
  0.246263463781E-01 -0.239480897887E-01  0.177591440811E-03
  0.250597563726E-01  0.159653107713E-01 -0.203849017742E-02
  0.250597563726E-01  0.159653107713E-01  0.203849017742E-02
  0.250597563726E-01 -0.159653107713E-01 -0.203849017742E-02
  0.250597563726E-01 -0.159653107713E-01  0.203849017742E-02
  0.253224044989E-01 -0.521864441536E-23 -0.562607135517E-02
  0.253224044989E-01 -0.156559332461E-22  0.562607135517E-02
  0.256342372562E-01  0.239480871147E-01 -0.401554497453E-03
  0.256342372562E-01  0.239480871147E-01  0.401554497453E-03
  0.256342372562E-01 -0.239480871147E-01 -0.401554497453E-03
  0.256342372562E-01 -0.239480871147E-01  0.401554497453E-03
  0.268913523155E-01  0.239480838923E-01 -0.680898103890E-03
  0.268913523155E-01  0.239480838923E-01  0.680898103890E-03
  0.268913523155E-01 -0.239480838923E-01 -0.680898103890E-03
  0.268913523155E-01 -0.239480838923E-01  0.680898103890E-03
  0.279007910510E-01  0.798253348194E-02 -0.443442481957E-02
  0.279007910510E-01  0.798253348194E-02  0.443442481957E-02
  0.279007910510E-01 -0.798253348194E-02 -0.443442481957E-02
  0.279007910510E-01 -0.798253348194E-02  0.443442481957E-02
  0.279196379332E-01  0.159653052298E-01 -0.267399310850E-02
  0.279196379332E-01  0.159653052298E-01  0.267399310850E-02
  0.279196379332E-01 -0.159653052298E-01 -0.267399310850E-02
  0.279196379332E-01 -0.159653052298E-01  0.267399310850E-02
  0.284469359465E-01  0.239480800813E-01 -0.102656526381E-02
  0.284469359465E-01  0.239480800813E-01  0.102656526381E-02
  0.284469359465E-01 -0.239480800813E-01 -0.102656526381E-02
  0.284469359465E-01 -0.239480800813E-01  0.102656526381E-02
  0.303530769289E-01  0.239480756820E-01 -0.145013126514E-02
  0.303530769289E-01  0.239480756820E-01  0.145013126514E-02
  0.303530769289E-01 -0.239480756820E-01 -0.145013126514E-02
  0.303530769289E-01 -0.239480756820E-01  0.145013126514E-02
  0.304096597960E-01  0.105724195710E-22 -0.675655790800E-02
  0.304096597960E-01  0.528620978551E-23  0.675655790800E-02
  0.312738577604E-01  0.159652995922E-01 -0.341934853017E-02
  0.312738577604E-01  0.159652995922E-01  0.341934853017E-02
  0.312738577604E-01 -0.159652995922E-01 -0.341934853017E-02
  0.312738577604E-01 -0.159652995922E-01  0.341934853017E-02
  0.317649000443E-01  0.319304178329E-01  0.000000000000E+00
  0.317649000443E-01 -0.319304178329E-01  0.000000000000E+00
  0.323902882677E-01  0.798252876006E-02 -0.543206845457E-02
  0.323902882677E-01  0.798252876006E-02  0.543206845457E-02
  0.323902882677E-01 -0.798252876006E-02 -0.543206845457E-02
  0.323902882677E-01 -0.798252876006E-02  0.543206845457E-02
  0.325365332693E-01  0.319308488851E-01 -0.170730781986E-03
  0.325365332693E-01  0.319308488851E-01  0.170730781986E-03
  0.325365332693E-01 -0.319308488851E-01 -0.170730781986E-03
  0.325365332693E-01 -0.319308488851E-01  0.170730781986E-03
  0.326609210056E-01  0.239480707611E-01 -0.196296214473E-02
  0.326609210056E-01  0.239480707611E-01  0.196296214473E-02
  0.326609210056E-01 -0.239480707611E-01 -0.196296214473E-02
  0.326609210056E-01 -0.239480707611E-01  0.196296214473E-02
  0.335056590947E-01  0.319308463330E-01 -0.386079961579E-03
  0.335056590947E-01  0.319308463330E-01  0.386079961579E-03
  0.335056590947E-01 -0.319308463330E-01 -0.386079961579E-03
  0.335056590947E-01 -0.319308463330E-01  0.386079961579E-03
  0.347144235548E-01  0.319308432590E-01 -0.654679693490E-03
  0.347144235548E-01  0.319308432590E-01  0.654679693490E-03
  0.347144235548E-01 -0.319308432590E-01 -0.654679693490E-03
  0.347144235548E-01 -0.319308432590E-01  0.654679693490E-03
  0.351290198058E-01  0.159652942747E-01 -0.427602596477E-02
  0.351290198058E-01  0.159652942747E-01  0.427602596477E-02
  0.351290198058E-01 -0.159652942747E-01 -0.427602596477E-02
  0.351290198058E-01 -0.159652942747E-01  0.427602596477E-02
  0.354148809753E-01  0.239480654791E-01 -0.257492817612E-02
  0.354148809753E-01  0.239480654791E-01  0.257492817612E-02
  0.354148809753E-01 -0.239480654791E-01 -0.257492817612E-02
  0.354148809753E-01 -0.239480654791E-01  0.257492817612E-02
  0.358192591618E-01 -0.212247493050E-22 -0.795868677510E-02
  0.358192591618E-01  0.530618732626E-23  0.795868677510E-02
  0.362101770176E-01  0.319308396253E-01 -0.987052101916E-03
  0.362101770176E-01  0.319308396253E-01  0.987052101916E-03
  0.362101770176E-01 -0.319308396253E-01 -0.987052101916E-03
  0.362101770176E-01 -0.319308396253E-01  0.987052101916E-03
  0.373021212824E-01  0.798252548251E-02 -0.652357134317E-02
  0.373021212824E-01  0.798252548251E-02  0.652357134317E-02
  0.373021212824E-01 -0.798252548251E-02 -0.652357134317E-02
  0.373021212824E-01 -0.798252548251E-02  0.652357134317E-02
  0.380430048415E-01  0.319308354335E-01 -0.139432727533E-02
  0.380430048415E-01  0.319308354335E-01  0.139432727533E-02
  0.380430048415E-01 -0.319308354335E-01 -0.139432727533E-02
  0.380430048415E-01 -0.319308354335E-01  0.139432727533E-02
[...]
POINT_DATA                3023
SCALARS phi float 1
LOOKUP_TABLE default
 -0.264697796017E-22
  0.000000000000E+00
 -0.135525271561E-19
 -0.542101086243E-19
 -0.271050543121E-19
  0.000000000000E+00
  0.000000000000E+00
  0.108420217249E-18
  0.162630325873E-18
 -0.108420217249E-18
  0.542101086243E-19
  0.529395592034E-22
  0.264697796017E-22
 -0.135525271561E-19
  0.406575814682E-19
  0.000000000000E+00
 -0.135525271561E-19
 -0.216840434497E-18
  0.216840434497E-18
  0.542101086243E-19
 -0.135525271561E-18
 -0.271050543121E-19
 -0.813151629364E-19
 -0.542101086243E-19
 -0.162630325873E-18
  0.000000000000E+00
 -0.108420217249E-18
  0.108420217249E-18
  0.000000000000E+00
  0.216840434497E-18
  0.433680868994E-18
  0.542101086243E-18
  0.000000000000E+00
  0.108420217249E-18
  0.108420217249E-18
 -0.216840434497E-18
  0.108420217249E-18
 -0.264697796017E-22
 -0.529395592034E-22
 -0.867361737988E-18
 -0.650521303491E-18
  0.271050543121E-19
  0.406575814682E-19
 -0.271050543121E-19
  0.406575814682E-19
  0.867361737988E-18
  0.000000000000E+00
 -0.216840434497E-18
 -0.433680868994E-18
  0.271050543121E-19
 -0.813151629364E-19
  0.000000000000E+00
 -0.108420217249E-18
 -0.542101086243E-19
 -0.542101086243E-19
 -0.542101086243E-19
  0.000000000000E+00
 -0.216840434497E-18
 -0.867361737988E-18
 -0.650521303491E-18
  0.000000000000E+00
 -0.433680868994E-18
 -0.216840434497E-18
 -0.108420217249E-18
  0.108420217249E-18
 -0.108420217249E-18
  0.000000000000E+00
  0.216840434497E-18
  0.216840434497E-18
  0.108420217249E-18
  0.650521303491E-18
 -0.926442286059E-22
 -0.529395592034E-22
  0.650521303491E-18
  0.433680868994E-18
  0.433680868994E-18
  0.108420217249E-17
  0.271050543121E-19
  0.406575814682E-19
  0.000000000000E+00
  0.406575814682E-19
  0.000000000000E+00
  0.000000000000E+00
  0.000000000000E+00
  0.216840434497E-18
  0.108420217249E-17
  0.650521303491E-18
  0.271050543121E-19
 -0.542101086243E-19
 -0.542101086243E-19
 -0.271050543121E-19
  0.162630325873E-18
  0.542101086243E-19
  0.542101086243E-19
  0.542101086243E-19
 -0.433680868994E-18
 -0.151788304148E-17
  0.216840434497E-18
 -0.433680868994E-18
 -0.216840434497E-18
 -0.216840434497E-18
 -0.867361737988E-18
  0.000000000000E+00
  0.000000000000E+00
  0.000000000000E+00
  0.108420217249E-18
  0.108420217249E-18
  0.325260651746E-18
  0.000000000000E+00
 -0.216840434497E-18
  0.325260651746E-18
  0.000000000000E+00
  0.433680868994E-18
  0.000000000000E+00
  0.000000000000E+00
  0.216840434497E-18
  0.650521303491E-18
 -0.794093388051E-22
 -0.529395592034E-22
  0.000000000000E+00
  0.173472347598E-17
  0.000000000000E+00
 -0.433680868994E-18
  0.135525271561E-19
  0.542101086243E-19
  0.135525271561E-19
  0.542101086243E-19
 -0.433680868994E-18
  0.216840434497E-18
 -0.216840434497E-18
  0.000000000000E+00
  0.271050543121E-19
  0.542101086243E-19
  0.271050543121E-19
 -0.542101086243E-19
 -0.542101086243E-19
 -0.108420217249E-18
  0.000000000000E+00
 -0.108420217249E-18
 -0.433680868994E-18
  0.433680868994E-18
  0.000000000000E+00
 -0.867361737988E-18
  0.433680868994E-18
  0.650521303491E-18
  0.108420217249E-17
  0.000000000000E+00
 -0.433680868994E-18
 -0.303576608296E-17
 -0.108420217249E-18
 -0.108420217249E-18
 -0.108420217249E-18
  0.000000000000E+00
 -0.216840434497E-17
  0.000000000000E+00
  0.867361737988E-18
 -0.216840434497E-17
  0.216840434497E-18
  0.000000000000E+00
  0.000000000000E+00
  0.108420217249E-18
  0.650521303491E-18
 -0.216840434497E-18
 -0.867361737988E-18
 -0.433680868994E-18
  0.260208521397E-17
  0.216840434497E-17
  0.867361737988E-18
  0.433680868994E-18
  0.661744490042E-22
 -0.264697796017E-22
  0.000000000000E+00
  0.867361737988E-18
  0.650521303491E-18
 -0.216840434497E-18
  0.000000000000E+00
  0.135525271561E-19
  0.000000000000E+00
  0.000000000000E+00
  0.000000000000E+00
  0.542101086243E-19
  0.000000000000E+00
  0.271050543121E-19
 -0.346944695195E-17
 -0.216840434497E-17
 -0.130104260698E-17
  0.000000000000E+00
  0.433680868994E-18
  0.000000000000E+00
  0.433680868994E-18
  0.867361737988E-18
 -0.130104260698E-17
  0.433680868994E-18
 -0.542101086243E-19
  0.542101086243E-19
 -0.542101086243E-19
 -0.108420217249E-18
 -0.650521303491E-18
 -0.650521303491E-18
 -0.216840434497E-18
  0.000000000000E+00
  0.108420217249E-18
 -0.108420217249E-18
  0.108420217249E-18
  0.000000000000E+00
  0.000000000000E+00
  0.000000000000E+00
 -0.867361737988E-18
 -0.173472347598E-17
  0.108420217249E-18
  0.108420217249E-18
 -0.108420217249E-18
  0.000000000000E+00
  0.108420217249E-17
  0.433680868994E-18
 -0.216840434497E-18
  0.650521303491E-18
 -0.867361737988E-18
  0.867361737988E-18
  0.130104260698E-17
  0.433680868994E-18
 -0.397046694025E-22
 -0.926442286059E-22
  0.000000000000E+00
 -0.108420217249E-18
  0.325260651746E-18
  0.216840434497E-18
 -0.867361737988E-18
  0.130104260698E-17
  0.000000000000E+00
  0.000000000000E+00
 -0.135525271561E-19
 -0.271050543121E-19
  0.000000000000E+00
  0.271050543121E-19
 -0.173472347598E-17
 -0.867361737988E-18
  0.000000000000E+00
 -0.173472347598E-17
 -0.271050543121E-19
 -0.271050543121E-19
 -0.271050543121E-19
  0.271050543121E-19
  0.000000000000E+00
  0.000000000000E+00
 -0.867361737988E-18
 -0.173472347598E-17
 -0.108420217249E-18
  0.000000000000E+00
  0.542101086243E-19
  0.000000000000E+00
  0.433680868994E-18
  0.216840434497E-18
  0.000000000000E+00
  0.000000000000E+00
 -0.867361737988E-18
  0.216840434497E-17
  0.433680868994E-18
  0.303576608296E-17
 -0.542101086243E-19
  0.542101086243E-19
  0.542101086243E-19
 -0.108420217249E-18
 -0.650521303491E-18
  0.000000000000E+00
  0.216840434497E-18
 -0.433680868994E-18
  0.108420217249E-18
  0.000000000000E+00
  0.108420217249E-18
  0.216840434497E-18
 -0.130104260698E-17
  0.867361737988E-18
 -0.173472347598E-17
  0.173472347598E-17
  0.303576608296E-17
  0.130104260698E-17
  0.216840434497E-17
  0.173472347598E-17
 -0.433680868994E-18
 -0.216840434497E-18
 -0.108420217249E-18
  0.000000000000E+00
  0.132348898008E-22
 -0.132348898008E-22
  0.867361737988E-18
  0.173472347598E-17
 -0.433680868994E-18
  0.260208521397E-17
  0.135525271561E-19
  0.406575814682E-19
  0.135525271561E-19
  0.271050543121E-19
  0.000000000000E+00
  0.173472347598E-17
 -0.867361737988E-18
  0.433680868994E-18
  0.271050543121E-19
 -0.542101086243E-19
  0.000000000000E+00
 -0.271050543121E-19
  0.433680868994E-18
  0.000000000000E+00
  0.000000000000E+00
  0.216840434497E-18
 -0.173472347598E-17
  0.000000000000E+00
 -0.433680868994E-18
 -0.867361737988E-18
  0.000000000000E+00
  0.000000000000E+00
  0.542101086243E-19
 -0.542101086243E-19
 -0.108420217249E-18
  0.542101086243E-19
  0.000000000000E+00
  0.542101086243E-19
  0.000000000000E+00
  0.173472347598E-17
 -0.130104260698E-17
  0.867361737988E-18
  0.433680868994E-18
  0.433680868994E-18
  0.433680868994E-18
 -0.867361737988E-18
 -0.303576608296E-17
  0.000000000000E+00
 -0.303576608296E-17
  0.000000000000E+00
  0.108420217249E-18
  0.108420217249E-18
  0.000000000000E+00
 -0.108420217249E-18
 -0.867361737988E-18
 -0.433680868994E-18
 -0.433680868994E-17
 -0.867361737988E-18
  0.000000000000E+00
  0.325260651746E-18
 -0.216840434497E-18
  0.542101086243E-18
  0.000000000000E+00
  0.661744490042E-22
 -0.433680868994E-18
 -0.433680868994E-18
 -0.433680868994E-18
  0.130104260698E-17
 -0.271050543121E-19
 -0.135525271561E-19
  0.000000000000E+00
 -0.135525271561E-19
  0.433680868994E-18
  0.173472347598E-17
  0.216840434497E-17
  0.000000000000E+00
  0.000000000000E+00
  0.000000000000E+00
 -0.271050543121E-19
 -0.542101086243E-19
  0.650521303491E-18
 -0.216840434497E-18
  0.433680868994E-18
  0.650521303491E-18
 -0.542101086243E-19
  0.542101086243E-19
 -0.542101086243E-19
  0.000000000000E+00
 -0.130104260698E-17
 -0.433680868994E-17
  0.000000000000E+00
 -0.108420217249E-18
  0.542101086243E-19
  0.000000000000E+00
  0.173472347598E-17
  0.433680868994E-17
 -0.867361737988E-18
  0.346944695195E-17
  0.130104260698E-17
  0.130104260698E-17
  0.260208521397E-17
 -0.433680868994E-18
  0.650521303491E-18
  0.000000000000E+00
  0.108420217249E-17
  0.433680868994E-18
  0.216840434497E-18
  0.000000000000E+00
 -0.216840434497E-18
  0.216840434497E-18
 -0.433680868994E-18
  0.433680868994E-18
  0.000000000000E+00
  0.000000000000E+00
 -0.216840434497E-18
 -0.108420217249E-18
 -0.216840434497E-18
 -0.433680868994E-18
 -0.433680868994E-18
 -0.433680868994E-18
 -0.216840434497E-18
 -0.433680868994E-18
  0.132348898008E-22
  0.397046694025E-22
  0.000000000000E+00
 -0.433680868994E-18
 -0.216840434497E-17
  0.433680868994E-18
  0.000000000000E+00
 -0.135525271561E-19
  0.135525271561E-19
  0.406575814682E-19
 -0.346944695195E-17
  0.433680868994E-18
  0.130104260698E-17
  0.260208521397E-17
 -0.271050543121E-19
  0.271050543121E-19
 -0.542101086243E-19
 -0.271050543121E-19
  0.000000000000E+00
  0.433680868994E-18
  0.216840434497E-18
  0.216840434497E-18
  0.000000000000E+00
  0.542101086243E-19
  0.000000000000E+00
  0.000000000000E+00
 -0.346944695195E-17
 -0.260208521397E-17
 -0.173472347598E-17
 -0.867361737988E-18
 -0.130104260698E-17
  0.000000000000E+00
  0.000000000000E+00
  0.433680868994E-18
 -0.542101086243E-19
  0.162630325873E-18
 -0.542101086243E-19
  0.108420217249E-18
  0.216840434497E-18
  0.216840434497E-18
 -0.650521303491E-18
  0.216840434497E-18
  0.000000000000E+00
  0.433680868994E-18
  0.390312782095E-17
 -0.433680868994E-18
 -0.108420217249E-18
 -0.216840434497E-18
 -0.108420217249E-18
  0.216840434497E-18
 -0.346944695195E-17
  0.303576608296E-17
 -0.260208521397E-17
  0.173472347598E-17
 -0.325260651746E-18
 -0.216840434497E-18
  0.000000000000E+00
 -0.216840434497E-18
 -0.216840434497E-18
  0.216840434497E-18
  0.216840434497E-18
 -0.650521303491E-18
  0.000000000000E+00
  0.260208521397E-17
  0.130104260698E-17
  0.000000000000E+00
  0.264697796017E-22
  0.000000000000E+00
  0.000000000000E+00
 -0.271050543121E-19
 -0.271050543121E-19
 -0.406575814682E-19
  0.433680868994E-18
  0.433680868994E-18
  0.216840434497E-18
  0.000000000000E+00
 -0.867361737988E-18
  0.173472347598E-17
  0.173472347598E-17
 -0.867361737988E-18
  0.000000000000E+00
  0.271050543121E-19
  0.000000000000E+00
  0.271050543121E-19
  0.000000000000E+00
  0.542101086243E-19
  0.542101086243E-19
  0.000000000000E+00
 -0.130104260698E-17
 -0.173472347598E-17
 -0.867361737988E-18
  0.000000000000E+00
  0.173472347598E-17
  0.433680868994E-18
  0.000000000000E+00
 -0.433680868994E-18
  0.000000000000E+00
 -0.108420217249E-18
 -0.108420217249E-18
 -0.542101086243E-19
  0.000000000000E+00
 -0.433680868994E-18
 -0.216840434497E-18
 -0.216840434497E-18
 -0.867361737988E-18
  0.303576608296E-17
 -0.173472347598E-17
 -0.433680868994E-18
  0.000000000000E+00
 -0.108420217249E-18
  0.000000000000E+00
 -0.108420217249E-18
  0.000000000000E+00
  0.260208521397E-17
  0.216840434497E-17
  0.303576608296E-17
  0.000000000000E+00
 -0.216840434497E-18
 -0.151788304148E-17
  0.433680868994E-18
 -0.216840434497E-18
 -0.216840434497E-18
 -0.108420217249E-18
 -0.108420217249E-18
  0.867361737988E-18
  0.000000000000E+00
 -0.216840434497E-17
  0.216840434497E-17
  0.264697796017E-22
  0.000000000000E+00
 -0.216840434497E-18
  0.000000000000E+00
 -0.216840434497E-18
 -0.216840434497E-18
 -0.135525271561E-19
 -0.271050543121E-19
 -0.135525271561E-19
  0.135525271561E-19
 -0.271050543121E-19
  0.000000000000E+00
 -0.542101086243E-19
  0.000000000000E+00
 -0.130104260698E-17
  0.000000000000E+00
  0.433680868994E-18
  0.867361737988E-18
 -0.607153216592E-17
 -0.520417042793E-17
  0.000000000000E+00
 -0.607153216592E-17
 -0.130104260698E-17
 -0.433680868994E-18
 -0.130104260698E-17
  0.130104260698E-17
 -0.542101086243E-19
 -0.542101086243E-19
  0.000000000000E+00
  0.000000000000E+00
  0.433680868994E-18
 -0.216840434497E-18
  0.433680868994E-18
  0.000000000000E+00
  0.542101086243E-19
  0.000000000000E+00
  0.542101086243E-19
  0.542101086243E-19
  0.346944695195E-17
  0.216840434497E-17
  0.216840434497E-18
  0.000000000000E+00
  0.000000000000E+00
  0.000000000000E+00
  0.000000000000E+00
 -0.216840434497E-17
  0.173472347598E-17
  0.433680868994E-18
  0.433680868994E-18
  0.216840434497E-18
  0.433680868994E-18
  0.216840434497E-18
  0.108420217249E-18
  0.108420217249E-18
 -0.216840434497E-18
  0.325260651746E-18
 -0.390312782095E-17
 -0.390312782095E-17
 -0.260208521397E-17
 -0.260208521397E-17
  0.867361737988E-18
 -0.867361737988E-18
 -0.867361737988E-18
  0.173472347598E-17
  0.264697796017E-22
  0.000000000000E+00
  0.216840434497E-18
  0.108420217249E-18
 -0.108420217249E-18
 -0.108420217249E-18
  0.000000000000E+00
 -0.135525271561E-19
 -0.135525271561E-19
  0.000000000000E+00
  0.433680868994E-18
  0.173472347598E-17
 -0.433680868994E-18
  0.867361737988E-18
  0.867361737988E-18
 -0.433680868994E-18
  0.303576608296E-17
  0.867361737988E-18
  0.260208521397E-17
  0.607153216592E-17
  0.130104260698E-17
  0.563785129692E-17
  0.542101086243E-19
  0.271050543121E-19
 -0.271050543121E-19
  0.542101086243E-19
  0.271050543121E-19
  0.000000000000E+00
 -0.271050543121E-19
  0.000000000000E+00
 -0.433680868994E-18
  0.433680868994E-18
  0.000000000000E+00
 -0.216840434497E-18
  0.162630325873E-18
  0.108420217249E-18
 -0.542101086243E-19
  0.542101086243E-19
  0.433680868994E-18
  0.000000000000E+00
  0.867361737988E-18
 -0.130104260698E-17
  0.216840434497E-18
  0.108420217249E-18
  0.216840434497E-18
  0.216840434497E-18
 -0.130104260698E-17
  0.173472347598E-17
 -0.433680868994E-18
  0.260208521397E-17
 -0.433680868994E-18
 -0.216840434497E-18
  0.433680868994E-18
 -0.650521303491E-18
 -0.260208521397E-17
 -0.867361737988E-17
 -0.780625564190E-17
 -0.867361737988E-18
 -0.563785129692E-17
 -0.260208521397E-17
 -0.173472347598E-17
 -0.130104260698E-17
  0.108420217249E-18
 -0.108420217249E-18
  0.108420217249E-18
 -0.325260651746E-18
  0.108420217249E-18
 -0.216840434497E-18
  0.108420217249E-18
  0.000000000000E+00
  0.433680868994E-18
 -0.173472347598E-17
  0.130104260698E-17
 -0.130104260698E-17
  0.000000000000E+00
 -0.130104260698E-17
  0.000000000000E+00
 -0.433680868994E-18
 -0.264697796017E-22
 -0.132348898008E-22
  0.000000000000E+00
 -0.677626357803E-20
 -0.677626357803E-20
 -0.135525271561E-19
  0.271050543121E-19
 -0.271050543121E-19
 -0.271050543121E-19
 -0.271050543121E-19
  0.000000000000E+00
  0.000000000000E+00
  0.000000000000E+00
  0.216840434497E-18
  0.000000000000E+00
  0.000000000000E+00
 -0.542101086243E-19
  0.542101086243E-19
  0.867361737988E-18
 -0.433680868994E-18
 -0.433680868994E-17
  0.346944695195E-17
 -0.542101086243E-19
 -0.108420217249E-18
  0.000000000000E+00
  0.000000000000E+00
  0.216840434497E-17
  0.433680868994E-18
  0.433680868994E-18
 -0.433680868994E-18
 -0.260208521397E-17
 -0.433680868994E-17
  0.173472347598E-17
  0.260208521397E-17
 -0.433680868994E-18
 -0.867361737988E-18
 -0.433680868994E-18
  0.433680868994E-18
 -0.162630325873E-18
 -0.108420217249E-18
  0.108420217249E-18
  0.000000000000E+00
 -0.650521303491E-18
  0.216840434497E-18
 -0.433680868994E-18
 -0.650521303491E-18
  0.000000000000E+00
  0.216840434497E-18
 -0.216840434497E-18
 -0.216840434497E-18
  0.216840434497E-17
 -0.130104260698E-17
 -0.260208521397E-17
 -0.867361737988E-18
  0.000000000000E+00
 -0.216840434497E-18
  0.867361737988E-18
  0.867361737988E-18
 -0.108420217249E-18
  0.108420217249E-18
  0.433680868994E-18
  0.000000000000E+00
  0.433680868994E-18
  0.000000000000E+00
  0.130104260698E-17
 -0.173472347598E-17
 -0.397046694025E-22
 -0.264697796017E-22
  0.000000000000E+00
  0.135525271561E-19
  0.000000000000E+00
  0.677626357803E-20
  0.520417042793E-17
  0.520417042793E-17
 -0.433680868994E-17
 -0.173472347598E-17
  0.271050543121E-19
  0.271050543121E-19
  0.271050543121E-19
  0.000000000000E+00
  0.216840434497E-18
  0.433680868994E-18
  0.650521303491E-18
  0.000000000000E+00
  0.813151629364E-19
  0.542101086243E-19
  0.000000000000E+00
  0.271050543121E-19
 -0.173472347598E-17
 -0.260208521397E-17
 -0.433680868994E-18
  0.433680868994E-18
 -0.433680868994E-18
 -0.433680868994E-18
  0.433680868994E-18
  0.433680868994E-18
  0.108420217249E-18
  0.000000000000E+00
 -0.108420217249E-18
  0.000000000000E+00
  0.000000000000E+00
 -0.216840434497E-18
 -0.216840434497E-18
 -0.216840434497E-18
  0.173472347598E-17
  0.737257477290E-17
 -0.542101086243E-19
  0.542101086243E-19
 -0.108420217249E-18
 -0.162630325873E-18
 -0.303576608296E-17
  0.000000000000E+00
 -0.346944695195E-17
 -0.867361737988E-18
  0.216840434497E-18
  0.216840434497E-18
  0.216840434497E-18
  0.000000000000E+00
  0.433680868994E-18
  0.173472347598E-17
  0.867361737988E-18
  0.130104260698E-17
  0.433680868994E-18
 -0.433680868994E-18
 -0.650521303491E-18
 -0.216840434497E-18
  0.260208521397E-17
 -0.867361737988E-18
  0.000000000000E+00
 -0.173472347598E-17
 -0.433680868994E-18
 -0.216840434497E-18
 -0.325260651746E-18
  0.216840434497E-18
  0.216840434497E-17
 -0.563785129692E-17
 -0.173472347598E-17
 -0.433680868994E-18
  0.264697796017E-22
 -0.661744490042E-22
  0.677626357803E-20
  0.203287907341E-19
  0.000000000000E+00
  0.677626357803E-20
  0.433680868994E-18
 -0.303576608296E-17
  0.433680868994E-18
  0.000000000000E+00
  0.216840434497E-18
 -0.108420217249E-17
  0.000000000000E+00
 -0.216840434497E-18
 -0.433680868994E-18
  0.000000000000E+00
 -0.433680868994E-18
 -0.433680868994E-18
  0.135525271561E-19
 -0.135525271561E-19
 -0.135525271561E-19
 -0.135525271561E-19
  0.216840434497E-17
 -0.303576608296E-17
  0.216840434497E-17
 -0.433680868994E-18
  0.542101086243E-19
 -0.271050543121E-19
  0.271050543121E-19
  0.000000000000E+00
  0.000000000000E+00
 -0.542101086243E-19
 -0.542101086243E-19
 -0.108420217249E-18
  0.867361737988E-18
  0.000000000000E+00
 -0.216840434497E-18
 -0.108420217249E-17
  0.173472347598E-17
 -0.867361737988E-18
  0.433680868994E-17
  0.173472347598E-17
  0.108420217249E-18
  0.108420217249E-18
 -0.542101086243E-19
 -0.108420217249E-18
  0.000000000000E+00
  0.433680868994E-18
 -0.433680868994E-18
  0.433680868994E-18
  0.867361737988E-18
  0.346944695195E-17
  0.346944695195E-17
  0.000000000000E+00
 -0.325260651746E-18
 -0.433680868994E-18
 -0.108420217249E-18
 -0.216840434497E-18
  0.000000000000E+00
  0.151788304148E-17
  0.130104260698E-17
  0.650521303491E-18
 -0.216840434497E-17
 -0.477048955894E-17
 -0.260208521397E-17
 -0.173472347598E-17
  0.108420217249E-18
  0.433680868994E-18
  0.216840434497E-18
  0.000000000000E+00
 -0.216840434497E-17
 -0.867361737988E-18
 -0.130104260698E-17
 -0.433680868994E-18
 -0.216840434497E-17
  0.433680868994E-18
 -0.303576608296E-17
 -0.260208521397E-17
  0.433680868994E-18
 -0.433680868994E-18
 -0.216840434497E-18
  0.867361737988E-18
  0.000000000000E+00
  0.264697796017E-22
  0.216840434497E-18
 -0.216840434497E-18
 -0.216840434497E-18
  0.108420217249E-18
  0.135525271561E-19
 -0.135525271561E-19
 -0.677626357803E-20
 -0.203287907341E-19
  0.135525271561E-19
  0.000000000000E+00
  0.000000000000E+00
  0.135525271561E-19
 -0.271050543121E-19
 -0.271050543121E-19
  0.271050543121E-19
 -0.271050543121E-19
 -0.390312782095E-17
  0.130104260698E-17
  0.520417042793E-17
 -0.260208521397E-17
  0.650521303491E-18
  0.433680868994E-18
 -0.216840434497E-18
 -0.433680868994E-18
 -0.542101086243E-19
 -0.542101086243E-19
  0.542101086243E-19
  0.000000000000E+00
 -0.867361737988E-18
  0.000000000000E+00
  0.000000000000E+00
 -0.433680868994E-18
  0.130104260698E-17
 -0.260208521397E-17
 -0.433680868994E-18
 -0.173472347598E-17
  0.000000000000E+00
  0.000000000000E+00
  0.162630325873E-18
  0.108420217249E-18
  0.433680868994E-18
 -0.173472347598E-17
 -0.433680868994E-18
  0.867361737988E-18
 -0.433680868994E-18
  0.867361737988E-18
  0.000000000000E+00
 -0.650521303491E-18
 -0.108420217249E-18
  0.325260651746E-18
 -0.108420217249E-18
  0.325260651746E-18
 -0.433680868994E-17
  0.000000000000E+00
 -0.130104260698E-17