# vtk DataFile Version 3.0
MachLine results file. Generated by MachLine, USU AeroLab (c) 2022.
ASCII
DATASET POLYDATA
POINTS                3023 float
  0.000000000000E+00  0.000000000000E+00  0.000000000000E+00
  0.895597215276E-03  0.000000000000E+00 -0.199021596927E-03
  0.895597215276E-03  0.000000000000E+00  0.199021596927E-03
  0.201978022233E-02  0.000000000000E+00 -0.448840030003E-03
  0.201978022233E-02  0.000000000000E+00  0.448840030003E-03
  0.342194340192E-02  0.000000000000E+00 -0.760431867093E-03
  0.342194340192E-02  0.000000000000E+00  0.760431867093E-03
  0.515701295808E-02  0.000000000000E+00 -0.114600290544E-02
  0.515701295808E-02  0.000000000000E+00  0.114600290544E-02
  0.728308875114E-02  0.000000000000E+00 -0.161846412811E-02
  0.728308875114E-02  0.000000000000E+00  0.161846412811E-02
  0.794107001275E-02 -0.798275880516E-02  0.000000000000E+00
  0.794107001275E-02  0.798275880516E-02  0.000000000000E+00
  0.880578439683E-02 -0.798275880516E-02 -0.192158782738E-03
  0.880578439683E-02 -0.798275880516E-02  0.192158782738E-03
  0.880578439683E-02  0.798275880516E-02 -0.192158782738E-03
  0.880578439683E-02  0.798275880516E-02  0.192158782738E-03
  0.985721684992E-02  0.000000000000E+00 -0.219049258158E-02
  0.985721684992E-02  0.000000000000E+00  0.219049258158E-02
  0.989120267332E-02 -0.798275880516E-02 -0.433362787589E-03
  0.989120267332E-02 -0.798275880516E-02  0.433362787589E-03
  0.989120267332E-02  0.798275880516E-02 -0.433362787589E-03
  0.989120267332E-02  0.798275880516E-02  0.433362787589E-03
  0.112450150773E-01 -0.798275880516E-02 -0.734210072551E-03
  0.112450150773E-01 -0.798275880516E-02  0.734210072551E-03
  0.112450150773E-01  0.798275880516E-02 -0.734210072551E-03
  0.112450150773E-01  0.798275880516E-02  0.734210072551E-03
  0.129202548414E-01 -0.798275880516E-02 -0.110648560803E-02
  0.129202548414E-01 -0.798275880516E-02  0.110648560803E-02
  0.129202548414E-01  0.798275880516E-02 -0.110648560803E-02
  0.129202548414E-01  0.798275880516E-02  0.110648560803E-02
  0.129289356992E-01  0.000000000000E+00 -0.287309684791E-02
  0.129289356992E-01  0.000000000000E+00  0.287309684791E-02
  0.149730173871E-01 -0.798275880516E-02 -0.156265497208E-02
  0.149730173871E-01 -0.798275880516E-02  0.156265497208E-02
  0.149730173871E-01  0.798275880516E-02 -0.156265497208E-02
  0.149730173871E-01  0.798275880516E-02  0.156265497208E-02
  0.158821400255E-01 -0.159655176103E-01  0.000000000000E+00
  0.158821400255E-01  0.159655176103E-01  0.000000000000E+00
  0.165316089988E-01  0.000000000000E+00 -0.367369106971E-02
  0.165316089988E-01  0.000000000000E+00  0.367369106971E-02
  0.167159717530E-01 -0.159655176103E-01 -0.185295968549E-03
  0.167159717530E-01 -0.159655176103E-01  0.185295968549E-03
  0.167159717530E-01  0.159655176103E-01 -0.185295968549E-03
  0.167159717530E-01  0.159655176103E-01  0.185295968549E-03
  0.174583829939E-01 -0.798275880516E-02 -0.211495836265E-02
  0.174583829939E-01 -0.798275880516E-02  0.211495836265E-02
  0.174583829939E-01  0.798275880516E-02 -0.211495836265E-02
  0.174583829939E-01  0.798275880516E-02  0.211495836265E-02
  0.177626255900E-01 -0.159655176103E-01 -0.417885545176E-03
  0.177626255900E-01 -0.159655176103E-01  0.417885545176E-03
  0.177626255900E-01  0.159655176103E-01 -0.417885545176E-03
  0.177626255900E-01  0.159655176103E-01  0.417885545176E-03
  0.190680865198E-01 -0.159655176103E-01 -0.707988278009E-03
  0.190680865198E-01 -0.159655176103E-01  0.707988278009E-03
  0.190680865198E-01  0.159655176103E-01 -0.707988278009E-03
  0.190680865198E-01  0.159655176103E-01  0.707988278009E-03
  0.204241797328E-01 -0.798275880516E-02 -0.277402438223E-02
  0.204241797328E-01 -0.798275880516E-02  0.277402438223E-02
  0.204241797328E-01  0.798275880516E-02 -0.277402438223E-02
  0.204241797328E-01  0.798275880516E-02  0.277402438223E-02
  0.206723343581E-01  0.000000000000E+00 -0.459385197610E-02
  0.206723343581E-01  0.000000000000E+00  0.459385197610E-02
  0.206834971905E-01 -0.159655176103E-01 -0.106696819421E-02
  0.206834971905E-01 -0.159655176103E-01  0.106696819421E-02
  0.206834971905E-01  0.159655176103E-01 -0.106696819421E-02
  0.206834971905E-01  0.159655176103E-01  0.106696819421E-02
  0.226629469544E-01 -0.159655176103E-01 -0.150684593245E-02
  0.226629469544E-01 -0.159655176103E-01  0.150684593245E-02
  0.226629469544E-01  0.159655176103E-01 -0.150684593245E-02
  0.226629469544E-01  0.159655176103E-01  0.150684593245E-02
  0.238232109696E-01 -0.239482764155E-01  0.000000000000E+00
  0.238232109696E-01  0.239482764155E-01  0.000000000000E+00
  0.239026248455E-01 -0.798275880516E-02 -0.354701210745E-02
  0.239026248455E-01 -0.798275880516E-02  0.354701210745E-02
  0.239026248455E-01  0.798275880516E-02 -0.354701210745E-02
  0.239026248455E-01  0.798275880516E-02  0.354701210745E-02
  0.246261600405E-01 -0.239482764155E-01 -0.178433154360E-03
  0.246261600405E-01 -0.239482764155E-01  0.178433154360E-03
  0.246261600405E-01  0.239482764155E-01 -0.178433154360E-03
  0.246261600405E-01  0.239482764155E-01  0.178433154360E-03
  0.250595491379E-01 -0.159655176103E-01 -0.203942414373E-02
  0.250595491379E-01 -0.159655176103E-01  0.203942414373E-02
  0.250595491379E-01  0.159655176103E-01 -0.203942414373E-02
  0.250595491379E-01  0.159655176103E-01  0.203942414373E-02
  0.253221653402E-01  0.000000000000E+00 -0.562714785337E-02
  0.253221653402E-01  0.000000000000E+00  0.562714785337E-02
  0.256340466440E-01 -0.239482764155E-01 -0.402408302762E-03
  0.256340466440E-01 -0.239482764155E-01  0.402408302762E-03
  0.256340466440E-01  0.239482764155E-01 -0.402408302762E-03
  0.256340466440E-01  0.239482764155E-01  0.402408302762E-03
  0.268911588937E-01 -0.239482764155E-01 -0.681766483467E-03
  0.268911588937E-01 -0.239482764155E-01  0.681766483467E-03
  0.268911588937E-01  0.239482764155E-01 -0.681766483467E-03
  0.268911588937E-01  0.239482764155E-01  0.681766483467E-03
  0.279005654156E-01 -0.798275880516E-02 -0.443544331938E-02
  0.279005654156E-01 -0.798275880516E-02  0.443544331938E-02
  0.279005654156E-01  0.798275880516E-02 -0.443544331938E-02
  0.279005654156E-01  0.798275880516E-02  0.443544331938E-02
  0.279194246978E-01 -0.159655176103E-01 -0.267495214939E-02
  0.279194246978E-01 -0.159655176103E-01  0.267495214939E-02
  0.279194246978E-01  0.159655176103E-01 -0.267495214939E-02
  0.279194246978E-01  0.159655176103E-01  0.267495214939E-02
  0.284467395395E-01 -0.239482764155E-01 -0.102745089680E-02
  0.284467395395E-01 -0.239482764155E-01  0.102745089680E-02
  0.284467395395E-01  0.239482764155E-01 -0.102745089680E-02
  0.284467395395E-01  0.239482764155E-01  0.102745089680E-02
  0.303528755903E-01 -0.239482764155E-01 -0.145103677642E-02
  0.303528755903E-01 -0.239482764155E-01  0.145103677642E-02
  0.303528755903E-01  0.239482764155E-01 -0.145103677642E-02
  0.303528755903E-01  0.239482764155E-01  0.145103677642E-02
  0.304094180465E-01  0.000000000000E+00 -0.675764819607E-02
  0.304094180465E-01  0.000000000000E+00  0.675764819607E-02
  0.312736406922E-01 -0.159655176103E-01 -0.342033314519E-02
  0.312736406922E-01 -0.159655176103E-01  0.342033314519E-02
  0.312736406922E-01  0.159655176103E-01 -0.342033314519E-02
  0.312736406922E-01  0.159655176103E-01  0.342033314519E-02
  0.317642800510E-01 -0.319310352206E-01  0.000000000000E+00
  0.317642800510E-01  0.319310352206E-01  0.000000000000E+00
  0.323900580406E-01 -0.798275880516E-02 -0.543310819194E-02
  0.323900580406E-01 -0.798275880516E-02  0.543310819194E-02
  0.323900580406E-01  0.798275880516E-02 -0.543310819194E-02
  0.323900580406E-01  0.798275880516E-02  0.543310819194E-02
  0.325363464653E-01 -0.319310352206E-01 -0.171570340171E-03
  0.325363464653E-01 -0.319310352206E-01  0.171570340171E-03
  0.325363464653E-01  0.319310352206E-01 -0.171570340171E-03
  0.325363464653E-01  0.319310352206E-01  0.171570340171E-03
  0.326607152820E-01 -0.239482764155E-01 -0.196388992481E-02
  0.326607152820E-01 -0.239482764155E-01  0.196388992481E-02
  0.326607152820E-01  0.239482764155E-01 -0.196388992481E-02
  0.326607152820E-01  0.239482764155E-01  0.196388992481E-02
  0.335054695606E-01 -0.319310352206E-01 -0.386931060348E-03
  0.335054695606E-01 -0.319310352206E-01  0.386931060348E-03
  0.335054695606E-01  0.319310352206E-01 -0.386931060348E-03
  0.335054695606E-01  0.319310352206E-01  0.386931060348E-03
  0.347142331302E-01 -0.319310352206E-01 -0.655544688925E-03
  0.347142331302E-01 -0.319310352206E-01  0.655544688925E-03
  0.347142331302E-01  0.319310352206E-01 -0.655544688925E-03
  0.347142331302E-01  0.319310352206E-01  0.655544688925E-03
  0.351287946105E-01 -0.159655176103E-01 -0.427703466266E-02
  0.351287946105E-01 -0.159655176103E-01  0.427703466266E-02
  0.351287946105E-01  0.159655176103E-01 -0.427703466266E-02
  0.351287946105E-01  0.159655176103E-01  0.427703466266E-02
  0.354146696627E-01 -0.239482764155E-01 -0.257587991655E-02
  0.354146696627E-01 -0.239482764155E-01  0.257587991655E-02
  0.354146696627E-01  0.239482764155E-01 -0.257587991655E-02
  0.354146696627E-01  0.239482764155E-01  0.257587991655E-02
  0.358190163970E-01  0.000000000000E+00 -0.795978121459E-02
  0.358190163970E-01  0.000000000000E+00  0.795978121459E-02
  0.362099818885E-01 -0.319310352206E-01 -0.987933599390E-03
  0.362099818885E-01 -0.319310352206E-01  0.987933599390E-03
  0.362099818885E-01  0.319310352206E-01 -0.987933599390E-03
  0.362099818885E-01  0.319310352206E-01  0.987933599390E-03
  0.373018868268E-01 -0.798275880516E-02 -0.652462616563E-02
  0.373018868268E-01 -0.798275880516E-02  0.652462616563E-02
  0.373018868268E-01  0.798275880516E-02 -0.652462616563E-02
  0.373018868268E-01  0.798275880516E-02  0.652462616563E-02
  0.380428060889E-01 -0.319310352206E-01 -0.139522773679E-02
  0.380428060889E-01 -0.319310352206E-01  0.139522773679E-02
  0.380428060889E-01  0.319310352206E-01 -0.139522773679E-02
  0.380428060889E-01  0.319310352206E-01  0.139522773679E-02
[...]
CELL_DATA                5928
SCALARS C_p_ise float 1
LOOKUP_TABLE default
  0.289720929906E-03
  0.135078903075E-01
  0.111692545433E-01
  0.101079876245E-01
  0.121592249523E-01
  0.991623072155E-02
  0.743561499934E-02
  0.117559275222E-01
  0.801645432231E-02
  0.106151333049E-01
  0.772863544128E-02
  0.755844484925E-02
  0.112462903407E-01
  0.580211394732E-02
  0.818229937387E-02
  0.122555449217E-01
  0.107318707231E-01
  0.101956512667E-01
  0.123359879461E-01
  0.116949697907E-01
  0.140742803475E-01
  0.167058281011E-01
  0.155427845551E-01
  0.109086411714E-01
  0.750749797814E-01
  0.117240821325E+00
  0.215013394956E+00
  0.137489321925E+00
  0.216580750086E+00
  0.222662531432E+00
  0.215898751200E+00
  0.222481807397E+00
  0.216628343623E+00
  0.224172779274E+00
  0.216339619747E+00
  0.227101965248E+00
  0.214013678810E+00
  0.230923951903E+00
  0.213110581886E+00
  0.234815115271E+00
  0.214334372265E+00
  0.241403169697E+00
  0.215545550197E+00
  0.252080297667E+00
  0.216910404188E+00
  0.267530300373E+00
  0.218466579148E+00
  0.291248988297E+00
  0.219850559976E+00
  0.328809672423E+00
  0.221896447743E+00
  0.438154007649E+00
  0.438154015360E+00
  0.221896449003E+00
  0.328809681551E+00
  0.219850561178E+00
  0.291248996018E+00
  0.218466580359E+00
  0.267530317103E+00
  0.216910405621E+00
  0.252080274043E+00
  0.215545551421E+00
  0.241403183010E+00
  0.214334372389E+00
  0.234815112194E+00
  0.213110582574E+00
  0.230923934146E+00
  0.214013679576E+00
  0.227101987136E+00
  0.216339618584E+00
  0.224172769302E+00
  0.216628344611E+00
  0.222481807538E+00
  0.215898751907E+00
  0.222662509406E+00
  0.216580749076E+00
  0.137489334536E+00
  0.215013394391E+00
  0.117240822186E+00
  0.750749787392E-01
  0.109086385852E-01
  0.155427848881E-01
  0.167058296013E-01
  0.140742828269E-01
  0.116949705850E-01
  0.123359917775E-01
  0.101956532915E-01
  0.107318648974E-01
  0.122555458608E-01
  0.818230682080E-02
  0.580210836957E-02
  0.112462800752E-01
  0.755844869386E-02
  0.772863259631E-02
  0.106151331133E-01
  0.801647176117E-02
  0.117559236157E-01
  0.743569886628E-02
  0.991611116744E-02
  0.121591859274E-01
  0.101081426308E-01
  0.111689450186E-01
  0.135015920341E-01
  0.135181182131E-01
  0.885233059112E-02
  0.299151332437E-03
  0.123233291130E-01
  0.111677266584E-01
  0.736665129478E-02
  0.121590117111E-01
  0.106506227804E-01
  0.743597664990E-02
  0.963761612496E-02
  0.801467314305E-02
  0.991489168252E-02
  0.772569642510E-02
  0.905166431996E-02
  0.112482281152E-01
  0.486512971892E-02
  0.818360793688E-02
  0.109387746929E-01
  0.107331910113E-01
  0.111090619595E-01
  0.123308793912E-01
  0.954922735604E-02
  0.140098576580E-01
  0.198609776131E-01
  0.155487197606E-01
  0.439151268200E-01
  0.749986745577E-01
  0.137126819314E+00
  0.616721013657E-01
  0.221794690415E+00
  0.230216730971E+00
  0.221489767705E+00
  0.231768588018E+00
  0.222985435020E+00
  0.234843461323E+00
  0.225698876621E+00
  0.240247607967E+00
  0.229315874369E+00
  0.247687620721E+00
  0.232984210388E+00
  0.256705649003E+00
  0.239254268633E+00
  0.267140016256E+00
  0.249601888248E+00
  0.282407023987E+00
  0.264780710793E+00
  0.303675703635E+00
  0.288396424224E+00
  0.332624098851E+00
  0.326419488649E+00
  0.375651069999E+00
  0.439941406637E+00
  0.482384510611E+00
  0.482384480207E+00
  0.439941412697E+00
  0.375651133460E+00
  0.326419498006E+00
  0.332624104717E+00
  0.288396431905E+00
  0.303675730719E+00
  0.264780727457E+00
  0.282407019165E+00
  0.249601865484E+00
  0.267140006963E+00
  0.239254281884E+00
  0.256705651801E+00
  0.232984207474E+00
  0.247687593134E+00
  0.229315856820E+00
  0.240247613990E+00
  0.225698897904E+00
  0.234843479371E+00
  0.222985425411E+00
  0.231768576783E+00
  0.221489767885E+00
  0.230216750798E+00
  0.221794669780E+00
  0.616720825322E-01
  0.137126831491E+00
  0.749986735059E-01
  0.439151260537E-01
  0.155487200768E-01
  0.198609733456E-01
  0.140098601838E-01
  0.954923234767E-02
  0.123308832264E-01
  0.111090651650E-01
  0.107331851700E-01
  0.109387644442E-01
  0.818361540090E-02
  0.486513431589E-02
  0.112482178233E-01
  0.905166395845E-02
  0.772569355181E-02
  0.991489054335E-02
  0.801469059106E-02
  0.963765989778E-02
  0.743606045171E-02
  0.106505315187E-01
  0.121589727131E-01
  0.736649301770E-02
  0.111674168648E-01
  0.123235106006E-01
  0.135172836582E-01
  0.139953638043E-01
  0.748215037983E-02
  0.885209518522E-02
  0.794086432875E-02
  0.123241380008E-01
  0.787800124541E-02
  0.736796256651E-02
  0.105550048122E-01
  0.106508937405E-01
  0.923495146211E-02
  0.963843914130E-02
  0.951824365202E-02
  0.991835888980E-02
  0.516595504203E-02
  0.905122869868E-02
  0.953715718205E-02
  0.486589197845E-02
  0.905800807113E-02
  0.109402325745E-01
  0.109743460474E-01
  0.111096828184E-01
  0.650672397678E-02
  0.953233698033E-02
  0.264262748977E-01
  0.198512316384E-01
  0.107115765461E-01
  0.429475149704E-01
  0.625550096070E-01
 -0.128633668922E-01
  0.229510098966E+00
  0.237493289111E+00
  0.231080008097E+00
  0.241696190565E+00
  0.234112894603E+00
  0.246852870923E+00
  0.239461113898E+00
  0.253853736799E+00
  0.246892005402E+00
  0.263380286048E+00
  0.255991543205E+00
  0.275844334379E+00
  0.266514155766E+00
  0.290647444003E+00
  0.281853468288E+00
  0.307904023717E+00
  0.303313138069E+00
  0.331409989911E+00
  0.332574011463E+00
  0.362584119482E+00
  0.376107393485E+00
  0.407027667924E+00
  0.483750421345E+00
  0.508725225466E+00
  0.508725252308E+00
  0.483750393920E+00
  0.407027683570E+00
  0.376107458772E+00
  0.362584055756E+00
  0.332574014803E+00
  0.331410042237E+00
  0.303313163958E+00
  0.307904026598E+00
  0.281853462486E+00
  0.290647390765E+00
  0.266514143722E+00
  0.275844326825E+00
  0.255991543925E+00
  0.263380325415E+00
  0.246891978422E+00
  0.253853742550E+00
  0.239461120563E+00
  0.246852876136E+00
  0.234112913113E+00
  0.241696186893E+00
  0.231079996885E+00
  0.237493267179E+00
  0.229510117517E+00
 -0.128633685163E-01
  0.625549920650E-01
  0.429475144521E-01
  0.107115773021E-01
  0.198512273382E-01
  0.264262763784E-01
  0.953234193410E-02
  0.650672733432E-02
  0.111096860199E-01
  0.109743437874E-01
  0.109402223206E-01
  0.905800602214E-02
  0.486589659401E-02
  0.953715675199E-02
  0.905122832726E-02
  0.516595502223E-02
  0.991835774142E-02
  0.951823559325E-02
  0.963848288796E-02
  0.923500756944E-02
  0.106508024096E-01
  0.105548582841E-01
  0.736780452988E-02
  0.787807231005E-02
  0.123243194304E-01
  0.794088925515E-02
  0.139940826530E-01
  0.163346362247E-01
  0.170024268379E-02
  0.748419854806E-02
  0.557882776109E-02
  0.794259900662E-02
  0.120194759849E-01
  0.787544122952E-02
  0.570064365625E-02
  0.105549465130E-01
  0.895767963412E-02
  0.923462972880E-02
  0.782133817237E-02
  0.951550982868E-02
  0.800443691067E-02
  0.516646974549E-02
  0.106021852386E-01
  0.954590593113E-02
  0.765025098855E-02
  0.905913929122E-02
  0.964037591800E-02
  0.109735539475E-01
  0.282382731110E-02
  0.646394490842E-02
  0.241534522359E-01
  0.264112006488E-01
 -0.423091622524E-01
  0.405047482155E-02
 -0.140950961872E-01
  0.649186316888E-01
  0.236357967611E+00
  0.230628143163E+00
  0.241240211961E+00
  0.252355580649E+00
  0.246410519698E+00
  0.258941808242E+00
  0.253416348695E+00
  0.266927278930E+00
  0.262977420765E+00
  0.278558853156E+00
  0.275509181486E+00
  0.292356609816E+00
  0.290495080200E+00
  0.309425759626E+00
  0.307920966687E+00
  0.330483146894E+00
  0.331523195203E+00
  0.355144284640E+00
  0.362838685462E+00
  0.385509590086E+00
  0.407572325529E+00
  0.429891186813E+00
  0.509817310165E+00
  0.526599652287E+00
  0.526599545236E+00
  0.509817328431E+00
  0.429891315511E+00
  0.407572337947E+00
  0.385509608566E+00
  0.362838623748E+00
  0.355144303323E+00
  0.331523250279E+00
  0.330483124450E+00
  0.307920969902E+00
  0.309425761855E+00
  0.290495029160E+00
  0.292356624203E+00
  0.275509178175E+00
  0.278558859866E+00
  0.262977462540E+00
  0.266927249858E+00
  0.253416352538E+00
  0.258941820374E+00
  0.246410523609E+00
  0.252355546544E+00
  0.241240206420E+00
  0.230628173514E+00
  0.236357946100E+00
  0.649186179500E-01
 -0.140950989630E-01
  0.405047542309E-02
 -0.423091650854E-01
  0.264112021644E-01
  0.241534553662E-01
  0.646394831106E-02
  0.282383129356E-02
  0.109735516846E-01
  0.964037079411E-02
  0.905913722997E-02
  0.765025866017E-02
  0.954590552210E-02
  0.106021750806E-01
  0.516646972624E-02
  0.800442638285E-02
  0.951550180341E-02
  0.782136280651E-02
  0.923468582935E-02
  0.895769114009E-02
  0.105547999999E-01
  0.570067781655E-02
  0.787551249272E-02
  0.120194079773E-01
  0.794262389523E-02
  0.557866955004E-02
  0.163345399729E-01
  0.855943480038E-02
  0.131220556836E-02
  0.170441050771E-02
  0.135251358668E-01
  0.557272724357E-02
  0.327071732372E-02
  0.120195116606E-01
  0.109698762930E-01
  0.569981875118E-02
  0.877276818540E-02
  0.895446435786E-02
  0.865297890748E-02
  0.781663754635E-02
  0.922794558384E-02
  0.799751730359E-02
  0.569928867927E-02
  0.106023515035E-01
  0.943817037505E-02
  0.765146414096E-02
  0.694917954033E-02
  0.963663601196E-02
  0.173113620980E-02
  0.280906198430E-02
  0.157585667974E-01
  0.240686939893E-01
 -0.552206552374E-01
 -0.438817922194E-01
  0.644736230719E-01
 -0.852834024403E-02
  0.229204300466E+00
  0.217319306114E+00
  0.251902685473E+00
  0.259724450052E+00
  0.258693427483E+00
  0.270145671146E+00
  0.266735906365E+00
  0.280204820897E+00
  0.278406938321E+00
  0.292288129977E+00
  0.292274244484E+00
  0.307784559153E+00
  0.309419405875E+00
  0.325897670192E+00
  0.330670918563E+00
  0.347757807288E+00
  0.355558800726E+00
  0.374214031251E+00
  0.386063592250E+00
  0.406932729106E+00
  0.430528808485E+00
  0.450194294560E+00
  0.527469295365E+00
  0.539373127548E+00
  0.539373281971E+00
  0.527469206343E+00
  0.450194368816E+00
  0.430528953785E+00
  0.406932736547E+00
  0.386063618624E+00
  0.374213982832E+00
  0.355558820103E+00
  0.347757757751E+00
  0.330670896800E+00
  0.325897614607E+00
  0.309419407121E+00
  0.307784576311E+00
  0.292274255995E+00
  0.292288110590E+00
  0.278406940592E+00
  0.280204828352E+00
  0.266735876863E+00
  0.270145696531E+00
  0.258693441359E+00
  0.259724407750E+00
  0.251902652197E+00
  0.217319347438E+00
  0.229204332708E+00
 -0.852835251694E-02
  0.644736099139E-01
 -0.438817957223E-01
 -0.552206566779E-01
  0.240686969963E-01
  0.157585632617E-01
  0.280906597934E-02
  0.173113682248E-02
  0.963663090661E-02
  0.694917418802E-02
  0.765147179247E-02
  0.943816872063E-02
  0.106023413659E-01
  0.569929055558E-02
  0.799750671944E-02
  0.922793735832E-02
  0.781666216922E-02
  0.865300227183E-02
  0.895447583192E-02
  0.877278699272E-02
  0.569985270856E-02
  0.109699054399E-01
  0.120194436443E-01
  0.327050151024E-02
  0.557256883789E-02
  0.135252032794E-01
  0.856600595958E-02
  0.132016261993E-01
  0.694402727969E-02
  0.130730093049E-02
  0.264248519965E-02
  0.135253099848E-01
  0.136699092994E-01
  0.326983857275E-02
  0.260292034470E-02
  0.109698242351E-01
  0.955724245447E-02
  0.877650848598E-02
  0.855476158549E-02
  0.865631751494E-02
  0.613093362689E-02
  0.922886840064E-02
  0.782761616016E-02
  0.570677728696E-02
  0.110920833569E-01
  0.943736674571E-02
  0.469230726677E-02
  0.694664889176E-02
 -0.131148002969E-02
  0.170459164760E-02
  0.981341973296E-02
  0.156682079808E-01
 -0.593427904583E-01
 -0.554191057187E-01
 -0.782337283327E-02
 -0.140668388127E+00
  0.216779056166E+00
  0.219704176047E+00
  0.259281607892E+00
  0.264865908697E+00
  0.270007084183E+00
  0.280927350143E+00
  0.280178854593E+00
  0.292534917084E+00
  0.292303429853E+00
  0.305601319458E+00
  0.307865048411E+00
  0.321749869308E+00
  0.326054396865E+00
  0.340866273286E+00
  0.347968849776E+00
  0.363313437092E+00
  0.374532349254E+00
  0.389950267358E+00
  0.407486765133E+00
  0.422701121828E+00
  0.451022080959E+00
  0.464933479007E+00
  0.540530676660E+00
  0.552232186794E+00
  0.552232260170E+00
  0.540530826290E+00
  0.464933459585E+00
  0.451022133568E+00
  0.422701059334E+00
  0.407486754755E+00
  0.389950230857E+00
  0.374532287397E+00
  0.363313465590E+00
  0.347968795561E+00
  0.340866312178E+00
  0.326054343167E+00
  0.321749844246E+00
  0.307865067714E+00
  0.305601334690E+00
  0.292303413768E+00
  0.292534894786E+00
  0.280178864369E+00
  0.280927348919E+00
  0.270007108254E+00
  0.264865906891E+00
  0.259281566108E+00
  0.219704194757E+00
  0.216779097096E+00
 -0.140668365144E+00
 -0.782338444005E-02
 -0.554191073349E-01
 -0.593427971971E-01
  0.156682043844E-01
  0.981341624710E-02
  0.170459218858E-02
 -0.131148623337E-02
  0.694664355842E-02
  0.469230826653E-02
  0.943736506983E-02
  0.110920871580E-01
  0.570677917985E-02
  0.782760738665E-02
  0.922886018952E-02
  0.613093754641E-02
  0.865634089917E-02
  0.855477817911E-02
  0.877652729908E-02
  0.955723846386E-02
  0.109698533872E-01
  0.260271404585E-02
  0.326962248115E-02
  0.136700686881E-01
  0.135253773725E-01
  0.264251218564E-02
  0.131960848844E-01
  0.639438972103E-02
 -0.483297962043E-01
  0.694430863813E-02
  0.117238606000E-01
  0.263763523998E-02
  0.235307676312E-02
  0.136700477508E-01
  0.125670508591E-01
  0.259905550418E-02
  0.333305158019E-02
  0.955669747941E-02
  0.408314493344E-02
  0.855173311512E-02
  0.984120693107E-02
  0.613081618748E-02
  0.115958098386E-01
  0.781999772201E-02
  0.586194646472E-02
  0.110918357498E-01
  0.439394017003E-02
  0.468794928774E-02
 -0.441987216054E-02
 -0.134693175392E-02
  0.524765959252E-02
  0.974797467372E-02
 -0.624907715627E-01
 -0.594403178450E-01
 -0.136319551034E+00
 -0.175483468821E+00
  0.214120708679E+00
  0.116340035411E+00
  0.264552993927E+00
  0.271615450189E+00
  0.280825770240E+00
  0.290510879934E+00
  0.292576124830E+00
  0.303842020086E+00
  0.305734974705E+00
  0.318576996694E+00
  0.321903211683E+00
  0.334579353420E+00
  0.341095156028E+00
  0.354382207664E+00
  0.363610523972E+00
  0.377401494506E+00
  0.390296715719E+00
  0.403902621908E+00
  0.423114793238E+00
  0.436411530042E+00
  0.465407234689E+00
  0.477529582849E+00
  0.553041185611E+00
  0.561195097389E+00
  0.561195139767E+00
  0.553041256994E+00
  0.477529545707E+00
  0.465407216898E+00
  0.436411491779E+00
  0.423114736260E+00
  0.403902655424E+00
  0.390296689480E+00
  0.377401451060E+00
  0.363610556484E+00
  0.354382298158E+00
  0.341095197154E+00
  0.334579315278E+00
  0.321903183182E+00
  0.318577023037E+00
  0.305734989968E+00
  0.303842010218E+00
  0.292576101559E+00
  0.290510898699E+00
  0.280825771114E+00
  0.271615401379E+00
  0.264552992663E+00
  0.116340106859E+00
  0.214120728197E+00
 -0.175483523986E+00
 -0.136319528093E+00
 -0.594403237399E-01
 -0.624907702883E-01
  0.974797120537E-02
  0.524765283125E-02
 -0.134693795196E-02
 -0.441987666052E-02
  0.468795029750E-02
  0.439394278216E-02
  0.110918395528E-01
  0.586195358963E-02
  0.781998896880E-02
  0.115958023896E-01
  0.613082011423E-02
  0.984118108761E-02
  0.855174977184E-02
  0.408320173866E-02
  0.955669349140E-02
  0.333298584812E-02
  0.259884963836E-02
  0.125670005384E-01
  0.136702071496E-01
  0.235313649122E-02
  0.263766222830E-02
  0.117239125200E-01
  0.640758152084E-02
  0.637108101755E-01
 -0.371404254242E-02
 -0.482014907629E-01
  0.634720025683E-03
  0.117249603715E-01
  0.143586440077E-01
  0.235147942112E-02
 -0.203517029401E-02
  0.125648738658E-01
  0.139586619973E-01
  0.333701872506E-02
  0.612384132943E-02
  0.406838777018E-02
  0.500832280842E-02
  0.984194331903E-02
  0.820851907133E-02
  0.115963716439E-01
  0.481595786721E-02
  0.586536742901E-02
  0.585792314215E-02
  0.439467160686E-02
 -0.741678049162E-02
 -0.444981730704E-02
  0.111457530991E-02
  0.519679866767E-02
 -0.733598121341E-01
 -0.633026681825E-01
 -0.175032230807E+00
 -0.158907364559E+00
  0.112945494490E+00
  0.972035391349E-02
  0.269633518384E+00
  0.250707962484E+00
  0.290289475117E+00
  0.296266547145E+00
  0.303951707796E+00
  0.314946648359E+00
  0.318785941406E+00
  0.330101788694E+00
  0.334846957756E+00
  0.347745814130E+00
  0.354638601922E+00
  0.366778658989E+00
  0.377719725015E+00
  0.389930082381E+00
  0.404273990404E+00
  0.416799814472E+00
  0.436819138860E+00
  0.448707666114E+00
  0.477984015289E+00
  0.488682126838E+00
  0.561785258201E+00
  0.568562236729E+00
  0.568562223600E+00
  0.561785296057E+00
  0.488682203438E+00
  0.477983982547E+00
  0.448707727597E+00
  0.436819110050E+00
  0.416799706608E+00
  0.404274023951E+00
  0.389930281089E+00
  0.377719691235E+00
  0.366778647155E+00
  0.354638699019E+00
  0.347745766095E+00
  0.334846921832E+00
  0.330101831722E+00
  0.318785971264E+00
  0.314946629018E+00
  0.303951699666E+00
  0.296266507365E+00
  0.290289491091E+00
  0.250707889667E+00
  0.269633465285E+00
  0.972037770700E-02
  0.112945560680E+00
 -0.158907330745E+00
 -0.175032284587E+00
 -0.633026669021E-01
 -0.733598173959E-01
  0.519679199208E-02
  0.111457088977E-02
 -0.444982175559E-02
 -0.741677701801E-02
  0.439467420690E-02
  0.585792128978E-02
  0.586537456365E-02
  0.481596460967E-02
  0.115963641858E-01
  0.820851230833E-02
  0.984191743590E-02
  0.500834230134E-02
  0.406844474831E-02
  0.612380488223E-02
  0.333695302472E-02
  0.139586365382E-01
  0.125648235544E-01
 -0.203516200885E-02
  0.235153922197E-02
  0.143586942436E-01
  0.117250122692E-01
  0.634648434135E-03
  0.638052668107E-01
  0.203728350283E-01
  0.795779938973E-02
 -0.367729408996E-02
  0.147737653272E-01
  0.625038051974E-03
  0.554472532690E-03
  0.143583919612E-01
  0.109001252091E-01
 -0.204374906032E-02
  0.189437647086E-01
  0.139068407892E-01
 -0.696157421280E-02
  0.613238360848E-02
  0.671264779827E-02
  0.502295100204E-02
  0.563941807251E-02
  0.820970738590E-02
  0.661682834496E-02
  0.481985183950E-02
  0.402094814113E-02
  0.586469523702E-02
 -0.102592053299E-01
 -0.744615879460E-02
 -0.356474009481E-02
  0.105210279829E-02
 -0.884172514282E-01
 -0.746896793558E-01
 -0.159527915421E+00
 -0.137178603512E+00
  0.948760675323E-02
 -0.101931184882E-01
  0.244475541669E+00
  0.144873850069E+00
  0.296142654127E+00
  0.304408392287E+00
  0.314996771521E+00
  0.324183231146E+00
  0.330278992250E+00
  0.340799870473E+00
  0.348058055894E+00
  0.359141336463E+00
  0.367136565882E+00
  0.379512203034E+00
  0.390255949447E+00
  0.402314989674E+00
  0.417132352684E+00
  0.427817404238E+00
  0.449108601991E+00
  0.459516573333E+00
  0.489141078706E+00
  0.498893612925E+00
  0.569110161834E+00
  0.575179411805E+00
  0.575179366695E+00
  0.569110145720E+00
  0.498893835361E+00
  0.489141164973E+00
  0.459516651068E+00
  0.449108666821E+00
  0.427817432731E+00
  0.417132249995E+00
  0.402314969106E+00
  0.390256148322E+00
  0.379512224921E+00
  0.367136543773E+00
  0.359141287503E+00
  0.348058004833E+00
  0.340799894778E+00
  0.330279032449E+00
  0.324183202557E+00
  0.314996748331E+00
  0.304408330733E+00
  0.296142610500E+00
  0.144873855976E+00
  0.244475475761E+00
 -0.101931140544E-01
  0.948763020167E-02
 -0.137178631403E+00
 -0.159527882924E+00
 -0.746896847367E-01
 -0.884172568997E-01
  0.105209840524E-02
 -0.356473987484E-02
 -0.744615528427E-02
 -0.102591996008E-01
  0.586469337407E-02
  0.402093746591E-02
  0.481985856111E-02
  0.661684428609E-02
  0.820970062222E-02
  0.563941933673E-02
  0.502297029638E-02
  0.671261972971E-02
  0.613234727563E-02
 -0.696155162296E-02
  0.139068154774E-01
  0.189437733282E-01
 -0.204374069070E-02
  0.109001392460E-01
  0.143584422173E-01
  0.554345112737E-03
  0.624966347158E-03
  0.147737771985E-01
  0.204971436534E-01
 -0.460439055085E-02
  0.782720069254E-02
  0.794235075882E-02
 -0.322926468708E-02
  0.147747667236E-01
  0.115316414694E-01
  0.562183150131E-03
  0.287325661257E-02
  0.108997947087E-01
  0.793390993874E-02
  0.189632356984E-01
  0.111704573151E-02
 -0.692978526255E-02