# vtk DataFile Version 3.0
MachLine results file. Generated by MachLine, USU AeroLab (c) 2022.
ASCII
DATASET POLYDATA
POINTS                3023 float
  0.000000000000E+00  0.000000000000E+00  0.000000000000E+00
  0.895597194070E-03  0.000000000000E+00 -0.199021598680E-03
  0.895597194070E-03  0.000000000000E+00  0.199021598680E-03
  0.201978017340E-02  0.000000000000E+00 -0.448840038540E-03
  0.201978017340E-02  0.000000000000E+00  0.448840038540E-03
  0.342194336150E-02  0.000000000000E+00 -0.760431858110E-03
  0.342194336150E-02  0.000000000000E+00  0.760431858110E-03
  0.515701313740E-02  0.000000000000E+00 -0.114600291940E-02
  0.515701313740E-02  0.000000000000E+00  0.114600291940E-02
  0.728308852790E-02  0.000000000000E+00 -0.161846411730E-02
  0.728308852790E-02  0.000000000000E+00  0.161846411730E-02
  0.827775178670E-02  0.832120786070E-02  0.000000000000E+00
  0.827775178670E-02 -0.832120786070E-02  0.000000000000E+00
  0.914115697030E-02  0.832120786070E-02 -0.191867818590E-03
  0.914115697030E-02 -0.832120786070E-02 -0.191867818590E-03
  0.914115697030E-02  0.832120786070E-02  0.191867818590E-03
  0.914115697030E-02 -0.832120786070E-02  0.191867818590E-03
  0.985721679120E-02  0.000000000000E+00 -0.219049262030E-02
  0.985721679120E-02  0.000000000000E+00  0.219049262030E-02
  0.102249314820E-01  0.832120786070E-02 -0.432706598980E-03
  0.102249314820E-01 -0.832120786070E-02 -0.432706598980E-03
  0.102249314820E-01  0.832120786070E-02  0.432706598980E-03
  0.102249314820E-01 -0.832120786070E-02  0.432706598980E-03
  0.115766942760E-01  0.832120786070E-02 -0.733098330870E-03
  0.115766942760E-01 -0.832120786070E-02 -0.733098330870E-03
  0.115766942760E-01  0.832120786070E-02  0.733098330870E-03
  0.115766942760E-01 -0.832120786070E-02  0.733098330870E-03
  0.129289354540E-01  0.000000000000E+00 -0.287309676740E-02
  0.129289354540E-01  0.000000000000E+00  0.287309676740E-02
  0.132493974150E-01  0.832120786070E-02 -0.110481013970E-02
  0.132493974150E-01 -0.832120786070E-02 -0.110481013970E-02
  0.132493974150E-01  0.832120786070E-02  0.110481013970E-02
  0.132493974150E-01 -0.832120786070E-02  0.110481013970E-02
  0.152990515740E-01  0.832120786070E-02 -0.156028884160E-02
  0.152990515740E-01 -0.832120786070E-02 -0.156028884160E-02
  0.152990515740E-01  0.832120786070E-02  0.156028884160E-02
  0.152990515740E-01 -0.832120786070E-02  0.156028884160E-02
  0.165316099180E-01  0.000000000000E+00 -0.367369109300E-02
  0.165316099180E-01  0.000000000000E+00  0.367369109300E-02
  0.172182429130E-01  0.173086342730E-01  0.000000000000E+00
  0.172182429130E-01 -0.173086342730E-01  0.000000000000E+00
  0.177806534600E-01  0.832120786070E-02 -0.211175592730E-02
  0.177806534600E-01 -0.832120786070E-02 -0.211175592730E-02
  0.177806534600E-01  0.832120786070E-02  0.211175592730E-02
  0.177806534600E-01 -0.832120786070E-02  0.211175592730E-02
  0.180468787060E-01  0.173086342730E-01 -0.184141287390E-03
  0.180468787060E-01 -0.173086342730E-01 -0.184141287390E-03
  0.180468787060E-01  0.173086342730E-01  0.184141287390E-03
  0.180468787060E-01 -0.173086342730E-01  0.184141287390E-03
  0.190870095390E-01  0.173086342730E-01 -0.415281472340E-03
  0.190870095390E-01 -0.173086342730E-01 -0.415281472340E-03
  0.190870095390E-01  0.173086342730E-01  0.415281472340E-03
  0.190870095390E-01 -0.173086342730E-01  0.415281472340E-03
  0.203843367450E-01  0.173086342730E-01 -0.703576407050E-03
  0.203843367450E-01 -0.173086342730E-01 -0.703576407050E-03
  0.206723337860E-01  0.000000000000E+00 -0.459385195240E-02
  0.203843367450E-01  0.173086342730E-01  0.703576407050E-03
  0.203843367450E-01 -0.173086342730E-01  0.703576407050E-03
  0.207419599860E-01  0.832120786070E-02 -0.276982404430E-02
  0.207419599860E-01 -0.832120786070E-02 -0.276982404430E-02
  0.207419599860E-01  0.832120786070E-02  0.276982404430E-02
  0.207419599860E-01 -0.832120786070E-02  0.276982404430E-02
  0.206723337860E-01  0.000000000000E+00  0.459385195240E-02
  0.219896800060E-01  0.173086342730E-01 -0.106031935400E-02
  0.219896800060E-01 -0.173086342730E-01 -0.106031935400E-02
  0.219896800060E-01  0.173086342730E-01  0.106031935400E-02
  0.219896800060E-01 -0.173086342730E-01  0.106031935400E-02
  0.239567944400E-01  0.173086342730E-01 -0.149745589490E-02
  0.239567944400E-01 -0.173086342730E-01 -0.149745589490E-02
  0.242151372450E-01  0.832120786070E-02 -0.354164121300E-02
  0.242151372450E-01 -0.832120786070E-02 -0.354164121300E-02
  0.239567944400E-01  0.173086342730E-01  0.149745589490E-02
  0.239567944400E-01 -0.173086342730E-01  0.149745589490E-02
  0.242151372450E-01  0.832120786070E-02  0.354164121300E-02
  0.242151372450E-01 -0.832120786070E-02  0.354164121300E-02
  0.253221652780E-01  0.000000000000E+00 -0.562714783960E-02
  0.253221652780E-01  0.000000000000E+00  0.562714783960E-02
  0.263384620350E-01  0.173086342730E-01 -0.202671536050E-02
  0.263384620350E-01 -0.173086342730E-01 -0.202671536050E-02
  0.263384620350E-01  0.173086342730E-01  0.202671536050E-02
  0.263384620350E-01 -0.173086342730E-01  0.202671536050E-02
  0.267917395800E-01  0.269323893420E-01  0.000000000000E+00
  0.267917395800E-01 -0.269323893420E-01  0.000000000000E+00
  0.275831442370E-01  0.269323893420E-01 -0.175867701560E-03
  0.275831442370E-01 -0.269323893420E-01 -0.175867701560E-03
  0.275831442370E-01  0.269323893420E-01  0.175867701560E-03
  0.275831442370E-01 -0.269323893420E-01  0.175867701560E-03
  0.282070238600E-01  0.832120786070E-02 -0.442872712740E-02
  0.282070238600E-01 -0.832120786070E-02 -0.442872712740E-02
  0.282070238600E-01  0.832120786070E-02  0.442872712740E-02
  0.282070238600E-01 -0.832120786070E-02  0.442872712740E-02
  0.285765413250E-01  0.269323893420E-01 -0.396622610160E-03
  0.285765413250E-01 -0.269323893420E-01 -0.396622610160E-03
  0.285765413250E-01  0.269323893420E-01  0.396622610160E-03
  0.285765413250E-01 -0.269323893420E-01  0.396622610160E-03
  0.291805165300E-01  0.173086342730E-01 -0.265828302590E-02
  0.291805165300E-01 -0.173086342730E-01 -0.265828302590E-02
  0.291805165300E-01  0.173086342730E-01  0.265828302590E-02
  0.291805165300E-01 -0.173086342730E-01  0.265828302590E-02
  0.298155787900E-01  0.269323893420E-01 -0.671964269040E-03
  0.298155787900E-01 -0.269323893420E-01 -0.671964269040E-03
  0.298155787900E-01  0.269323893420E-01  0.671964269040E-03
  0.298155787900E-01 -0.269323893420E-01  0.671964269040E-03
  0.304094174850E-01  0.000000000000E+00 -0.675764833000E-02
  0.304094174850E-01  0.000000000000E+00  0.675764833000E-02
  0.313487929520E-01  0.269323893420E-01 -0.101267852710E-02
  0.313487929520E-01 -0.269323893420E-01 -0.101267852710E-02
  0.313487929520E-01  0.269323893420E-01  0.101267852710E-02
  0.313487929520E-01 -0.269323893420E-01  0.101267852710E-02
  0.325138286850E-01  0.173086342730E-01 -0.339901906030E-02
  0.325138286850E-01 -0.173086342730E-01 -0.339901906030E-02
  0.326897183580E-01  0.832120786070E-02 -0.542488146020E-02
  0.326897183580E-01 -0.832120786070E-02 -0.542488146020E-02
  0.325138286850E-01  0.173086342730E-01  0.339901906030E-02
  0.325138286850E-01 -0.173086342730E-01  0.339901906030E-02
  0.326897183580E-01  0.832120786070E-02  0.542488146020E-02
  0.326897183580E-01 -0.832120786070E-02  0.542488146020E-02
  0.332275236760E-01  0.269323893420E-01 -0.143017424370E-02
  0.332275236760E-01 -0.269323893420E-01 -0.143017424370E-02
  0.332275236760E-01  0.269323893420E-01  0.143017424370E-02
  0.332275236760E-01 -0.269323893420E-01  0.143017424370E-02
  0.358190159330E-01  0.000000000000E+00 -0.795978131850E-02
  0.355021814230E-01  0.269323893420E-01 -0.193565374290E-02
  0.355021814230E-01 -0.269323893420E-01 -0.193565374290E-02
  0.355021814230E-01  0.269323893420E-01  0.193565374290E-02
  0.355021814230E-01 -0.269323893420E-01  0.193565374290E-02
  0.363449617310E-01  0.173086342730E-01 -0.425038195950E-02
  0.363449617310E-01 -0.173086342730E-01 -0.425038195950E-02
  0.358190159330E-01  0.000000000000E+00  0.795978131850E-02
  0.363449617310E-01  0.173086342730E-01  0.425038195950E-02
  0.363449617310E-01 -0.173086342730E-01  0.425038195950E-02
  0.369489973750E-01  0.371429701360E-01  0.000000000000E+00
  0.369489973750E-01 -0.371429701360E-01  0.000000000000E+00
  0.375941105940E-01  0.832120786070E-02 -0.651474640160E-02
  0.375941105940E-01 -0.832120786070E-02 -0.651474640160E-02
  0.377009006610E-01  0.371429701360E-01 -0.167089619000E-03
  0.377009006610E-01 -0.371429701360E-01 -0.167089619000E-03
  0.377009006610E-01  0.371429701360E-01  0.167089619000E-03
  0.377009006610E-01 -0.371429701360E-01  0.167089619000E-03
  0.382165405910E-01  0.269323893420E-01 -0.253884466910E-02
  0.382165405910E-01 -0.269323893420E-01 -0.253884466910E-02
  0.375941105940E-01  0.832120786070E-02  0.651474640160E-02
  0.375941105940E-01 -0.832120786070E-02  0.651474640160E-02
  0.382165405910E-01  0.269323893420E-01  0.253884466910E-02
  0.382165405910E-01 -0.269323893420E-01  0.253884466910E-02
  0.386447143320E-01  0.371429701360E-01 -0.376825990390E-03
  0.386447143320E-01 -0.371429701360E-01 -0.376825990390E-03
  0.386447143320E-01  0.371429701360E-01  0.376825990390E-03
  0.386447143320E-01 -0.371429701360E-01  0.376825990390E-03
  0.398219077340E-01  0.371429701360E-01 -0.638424524220E-03
  0.398219077340E-01 -0.371429701360E-01 -0.638424524220E-03
  0.398219077340E-01  0.371429701360E-01  0.638424524220E-03
  0.398219077340E-01 -0.371429701360E-01  0.638424524220E-03
  0.406471377910E-01  0.173086342730E-01 -0.520642108390E-02
  0.406471377910E-01 -0.173086342730E-01 -0.520642108390E-02
  0.414000000000E-01  0.000000000000E+00 -0.920000000000E-02
  0.406471377910E-01  0.173086342730E-01  0.520642108390E-02
  0.406471377910E-01 -0.173086342730E-01  0.520642108390E-02
  0.414000848990E-01  0.269323893420E-01 -0.324629895980E-02
  0.414000848990E-01 -0.269323893420E-01 -0.324629895980E-02
  0.412785945950E-01  0.371429701360E-01 -0.962132715490E-03
[...]
CELL_DATA                5928
SCALARS C_p_ise float 1
LOOKUP_TABLE default
 -0.113324507052E+00
 -0.154241761474E+00
  0.875992140130E-02
  0.844841248821E-02
  0.944814320869E-02
  0.986162320760E-02
  0.105500198849E-01
  0.109227052345E-01
  0.113143434528E-01
  0.119568712846E-01
  0.119035043510E-01
  0.125076887062E-01
  0.130757705119E-01
  0.111266987924E-01
  0.149822013017E-01
  0.154622737141E-01
  0.168413341452E-01
  0.197363649882E-01
  0.214654255207E-01
  0.155152034491E-01
  0.149818795287E-01
  0.406629470511E-01
  0.410612231254E-01
  0.206957143778E-01
 -0.661969459280E-01
  0.143652923136E-01
  0.331870638745E+00
  0.343371034278E+00
  0.331111763090E+00
  0.345628794690E+00
  0.329835267421E+00
  0.346951775960E+00
  0.327751532985E+00
  0.350956825747E+00
  0.327101311965E+00
  0.359878064551E+00
  0.327346533752E+00
  0.370026686968E+00
  0.326486753917E+00
  0.383214925687E+00
  0.324745696648E+00
  0.400974479443E+00
  0.323954883905E+00
  0.403948806836E+00
  0.322902426568E+00
  0.450733763441E+00
  0.319880012110E+00
  0.475527972308E+00
  0.314750469681E+00
  0.453714625126E+00
  0.304171240941E+00
  0.427259316234E+00
  0.365252102154E+00
  0.187655124049E+00
  0.412361210038E+00
  0.186291979789E+00
  0.374449393417E+00
  0.182933420026E+00
  0.301067400595E+00
  0.176092652752E+00
  0.198142801350E+00
  0.171792084896E+00
  0.204260634950E+00
  0.168489904061E+00
  0.187377142623E+00
  0.165576024189E+00
  0.179277530238E+00
  0.161597086120E+00
  0.169472827973E+00
  0.157197233906E+00
  0.163316915437E+00
  0.155432254067E+00
  0.163270098750E+00
  0.156782467336E+00
  0.164091101806E+00
  0.156453427276E+00
  0.157870511141E+00
  0.156644376365E+00
 -0.148968412580E+00
 -0.212494508034E+00
 -0.119900316803E+00
 -0.105491030726E+00
 -0.113197430894E+00
 -0.120868474347E+00
 -0.115280292143E+00
 -0.116071336586E+00
 -0.121321861116E+00
 -0.120030156558E+00
 -0.118564185522E+00
 -0.119099461994E+00
 -0.117788988170E+00
 -0.118913640437E+00
 -0.120128678260E+00
 -0.120039639715E+00
 -0.120491599596E+00
 -0.120614769694E+00
 -0.120912271064E+00
 -0.120646966494E+00
 -0.120024875922E+00
 -0.120391957181E+00
 -0.119804441221E+00
 -0.120102013263E+00
  0.484083506841E-01
  0.712179404223E-03
 -0.155630837522E+00
 -0.113198481219E+00
  0.821053083558E-02
  0.875797538128E-02
  0.870764063802E-02
  0.944694628668E-02
  0.100419740466E-01
  0.105490813391E-01
  0.104883618875E-01
  0.113139580395E-01
  0.111857809933E-01
  0.119033979660E-01
  0.128075925549E-01
  0.130757885231E-01
  0.140523919790E-01
  0.149846769634E-01
  0.130580383184E-01
  0.168299454894E-01
  0.197001785842E-01
  0.214446433742E-01
  0.739410857567E-02
  0.147742112603E-01
  0.444718902959E-01
  0.416034512430E-01
 -0.138463888979E+00
 -0.834142831535E-01
  0.340781621206E+00
  0.358971740772E+00
  0.342131086560E+00
  0.363667471523E+00
  0.342372010600E+00
  0.368284786466E+00
  0.344881998738E+00
  0.376267563411E+00
  0.351719262645E+00
  0.390152119898E+00
  0.359281845152E+00
  0.404298528392E+00
  0.369355974406E+00
  0.425185132071E+00
  0.382798904436E+00
  0.436615339518E+00
  0.382490330458E+00
  0.451440799345E+00
  0.418557175659E+00
  0.438306601547E+00
  0.434997027078E+00
  0.426976652618E+00
  0.426475131540E+00
  0.427259409345E+00
  0.427259340718E+00
  0.427259340256E+00
  0.365252118930E+00
  0.365252114789E+00
  0.365251795075E+00
  0.403462490189E+00
  0.362934367911E+00
  0.358226089978E+00
  0.430307228438E+00
  0.289811027190E+00
  0.309448787601E+00
  0.192759615415E+00
  0.260074532673E+00
  0.199935900537E+00
  0.220547159363E+00
  0.184019995927E+00
  0.206099180737E+00
  0.176633821848E+00
  0.191826118244E+00
  0.167476446539E+00
  0.180610624839E+00
  0.161776520826E+00
  0.175731804065E+00
  0.161968830482E+00
  0.176364163750E+00
  0.163010204099E+00
  0.165213274208E+00
  0.156985838493E+00
 -0.228116197759E+00
 -0.266549092167E+00
 -0.105908033446E+00
 -0.107565559206E+00
 -0.121468893067E+00
 -0.135078344190E+00
 -0.116108428442E+00
 -0.115583250429E+00
 -0.120077816094E+00
 -0.119699662572E+00
 -0.119154313889E+00
 -0.120627570300E+00
 -0.118953434658E+00
 -0.121028838122E+00
 -0.120062531564E+00
 -0.120780125396E+00
 -0.120633859700E+00
 -0.120737599019E+00
 -0.120665192619E+00
 -0.121128819528E+00
 -0.120408843753E+00
 -0.120575951173E+00
 -0.120118640588E+00
 -0.120126965937E+00
  0.826804763601E-03
  0.491189499345E-01
 -0.131574060212E+00
 -0.155543602410E+00
  0.804459137466E-02
  0.820778039004E-02
  0.852806570184E-02
  0.870464435146E-02
  0.887462991949E-02
  0.100399764301E-01
  0.941752053432E-02
  0.104874287203E-01
  0.104649233258E-01
  0.111850345498E-01
  0.122811892882E-01
  0.128068831769E-01
  0.136706742972E-01
  0.140518718280E-01
  0.113033123309E-01
  0.130576503830E-01
  0.146183311024E-01
  0.196897559974E-01
  0.737810493661E-02
  0.740314927230E-02
  0.212986512938E-01
  0.439951120754E-01
 -0.182409665360E+00
 -0.150939859198E+00
  0.354412258819E+00
  0.374582867488E+00
  0.358585665841E+00
  0.381260930187E+00
  0.362709367195E+00
  0.389631817257E+00
  0.370023212622E+00
  0.403059528613E+00
  0.382804161602E+00
  0.419536347579E+00
  0.395619290325E+00
  0.434200741416E+00
  0.415450857704E+00
  0.448102579547E+00
  0.425747219217E+00
  0.446524230145E+00
  0.435867184701E+00
  0.427817631762E+00
  0.428106955258E+00
  0.427259402802E+00
  0.427259396387E+00
  0.427259395307E+00
  0.427259409188E+00
  0.427259412296E+00
  0.427259341432E+00
  0.427259319360E+00
  0.365252187322E+00
  0.365252118420E+00
  0.365251789220E+00
  0.365251794237E+00
  0.365251856160E+00
  0.364695933532E+00
  0.365277771507E+00
  0.427286106187E+00
  0.366119947941E+00
  0.303678235611E+00
  0.392358779370E+00
  0.257446875165E+00
  0.272240314544E+00
  0.218458758560E+00
  0.237824644975E+00
  0.204255500485E+00
  0.227069226361E+00
  0.190534613387E+00
  0.204834005169E+00
  0.179539403617E+00
  0.192111399511E+00
  0.174716661083E+00
  0.186425123737E+00
  0.175302237516E+00
  0.177570630120E+00
  0.164294748619E+00
 -0.278626184318E+00
 -0.301741847313E+00
 -0.109399044118E+00
 -0.131957374874E+00
 -0.135710889706E+00
 -0.136307869415E+00
 -0.116029420260E+00
 -0.125158103587E+00
 -0.119821752185E+00
 -0.121223376108E+00
 -0.120737817545E+00
 -0.123325533604E+00
 -0.121112064281E+00
 -0.122865099102E+00
 -0.120844636265E+00
 -0.122590605764E+00
 -0.120785550103E+00
 -0.121943462834E+00
 -0.121170165022E+00
 -0.121664468886E+00
 -0.120614878748E+00
 -0.121407381316E+00
 -0.120162320306E+00
 -0.121097899533E+00
  0.492720590676E-01
  0.199842013114E-01
 -0.274201806768E+00
 -0.131559868730E+00
  0.672004736994E-02
  0.804205987765E-02
  0.780310880094E-02
  0.852638162590E-02
  0.900025169144E-02
  0.887246291115E-02
  0.907856024995E-02
  0.941419243017E-02
  0.104518281535E-01
  0.104598073342E-01
  0.933960370085E-02
  0.122813024404E-01
  0.102406045280E-01
  0.136708566795E-01
  0.113935741675E-01
  0.113018235604E-01
  0.915619208998E-02
  0.145899167586E-01
  0.637953532067E-03
  0.725071381683E-02
 -0.249848987866E-01
  0.181088493525E-01
 -0.193280109636E+00
 -0.188413109340E+00
  0.369842960819E+00
  0.391500793522E+00
  0.376184891848E+00
  0.400810064776E+00
  0.384167742262E+00
  0.412249890768E+00
  0.397241097387E+00
  0.428089615326E+00
  0.413038392547E+00
  0.444851552440E+00
  0.425681566425E+00
  0.448671038953E+00
  0.436339834235E+00
  0.433298144565E+00
  0.434669294844E+00
  0.427409817176E+00
  0.427560454005E+00
  0.427259397866E+00
  0.427259402745E+00
  0.427259404094E+00
  0.427259396329E+00
  0.427259393899E+00
  0.427259411204E+00
  0.427259416590E+00
  0.427259326275E+00
  0.427259295633E+00
  0.365252292380E+00
  0.365252189518E+00
  0.365251773299E+00
  0.365251788779E+00
  0.365251861023E+00
  0.365251856118E+00
  0.365251807495E+00
  0.365250657885E+00
  0.365251934966E+00
  0.369966807283E+00
  0.365506651706E+00
  0.389306238344E+00
  0.388628246488E+00
  0.269946002419E+00
  0.306081295301E+00
  0.236825295875E+00
  0.255868815789E+00
  0.226016112267E+00
  0.237985592604E+00
  0.203848349848E+00
  0.214652705575E+00
  0.191152476133E+00
  0.203379638835E+00
  0.185525363773E+00
  0.193222655724E+00
  0.176893861329E+00
 -0.309251101608E+00
 -0.320452127730E+00
 -0.136767339951E+00
 -0.179760983688E+00
 -0.136220358075E+00
 -0.131356599130E+00
 -0.125709341936E+00
 -0.130907127914E+00
 -0.121554685540E+00
 -0.128111440356E+00
 -0.123501335712E+00
 -0.125696857150E+00
 -0.123014596826E+00
 -0.126469671298E+00
 -0.122698376998E+00
 -0.124419386349E+00
 -0.122037683017E+00
 -0.124124697491E+00
 -0.121740915256E+00
 -0.123733652968E+00
 -0.121472490962E+00
 -0.123099471478E+00
 -0.121157000489E+00
 -0.122188137106E+00
  0.198859838306E-01
  0.208120699878E+00
 -0.100160090984E+00
 -0.273593022671E+00
  0.608323158574E-02
  0.671451208483E-02
  0.708824059442E-02
  0.779706659671E-02
  0.753387564019E-02
  0.899607318344E-02
  0.859037288383E-02
  0.907575323811E-02
  0.882178045351E-02
  0.104523123838E-01
  0.820706110130E-02
  0.934262221551E-02
  0.614700325523E-02
  0.102412233780E-01
  0.830726346755E-02
  0.113894120918E-01
 -0.226133665074E-02
  0.901872700513E-02
  0.351247275137E-02
  0.586183615934E-03
 -0.941937788470E-01
 -0.313624528851E-01
 -0.172582452339E+00
 -0.191026426952E+00
  0.386755081463E+00
  0.410510112310E+00
  0.395805309540E+00
  0.420689935607E+00
  0.407169523073E+00
  0.435684197302E+00
  0.422089966049E+00
  0.446919075306E+00
  0.438380597748E+00
  0.447936769234E+00
  0.440092137358E+00
  0.428956848341E+00
  0.429392394320E+00
  0.427257679075E+00
  0.427256683315E+00
  0.427259398308E+00
  0.427259398638E+00
  0.427259397917E+00
  0.427259403793E+00
  0.427259404762E+00
  0.427259394948E+00
  0.427259392391E+00
  0.427259415070E+00
  0.427259421299E+00
  0.427259304191E+00
  0.427259265408E+00
  0.365252427305E+00
  0.365252295199E+00
  0.365251751871E+00
  0.365251772655E+00
  0.365251867443E+00
  0.365251861154E+00
  0.365251797420E+00
  0.365251806969E+00
  0.365251883106E+00
  0.365251872251E+00
  0.365251820168E+00
  0.365789774616E+00
  0.365284697975E+00
  0.388914310177E+00
  0.378267811401E+00
  0.303336523918E+00
  0.338796250622E+00
  0.254742236159E+00
  0.267017574189E+00
  0.236971249942E+00
  0.246329980421E+00
  0.213663620519E+00
  0.227468137455E+00
  0.202485326172E+00
  0.210859392587E+00
  0.192368244728E+00
 -0.323099018625E+00
 -0.310551752001E+00
 -0.192680090451E+00
 -0.245013722812E+00
 -0.132747503154E+00
 -0.143205428868E+00
 -0.131734894519E+00
 -0.143825681839E+00
 -0.128508694660E+00
 -0.134281730824E+00
 -0.125935799569E+00
 -0.131349772850E+00
 -0.126632901302E+00
 -0.126587599965E+00
 -0.124605658628E+00
 -0.129352477848E+00
 -0.124257753234E+00
 -0.126965767035E+00
 -0.123850520804E+00
 -0.125972037104E+00
 -0.123206862671E+00
 -0.124991416328E+00
 -0.122287757930E+00
 -0.123888481985E+00
  0.209896412565E+00
 -0.207613687932E-01
 -0.168548144447E+00
 -0.993167260074E-01
  0.554846244046E-02
  0.607636998484E-02
  0.671466910570E-02
  0.708107944344E-02
  0.670623823945E-02
  0.752733763969E-02
  0.684617822336E-02
  0.858535276460E-02
  0.554660017390E-02
  0.882426967618E-02
  0.690246187237E-02
  0.820832142047E-02
  0.344353958403E-02
  0.614910485946E-02
  0.655087573445E-02
  0.830770922914E-02
 -0.117730394345E-01
 -0.232134887751E-02
 -0.299535021609E-02
  0.351718674103E-02
 -0.158006027999E+00
 -0.101580506417E+00
 -0.131818437046E+00
 -0.164690145479E+00
  0.405639991971E+00
  0.429497199893E+00
  0.415619126565E+00
  0.440807620248E+00
  0.430570425219E+00
  0.449841691900E+00
  0.441617120837E+00
  0.441234262160E+00
  0.439403361285E+00
  0.427919397982E+00
  0.428180611716E+00
  0.427259060915E+00
  0.427258825301E+00
  0.427259408472E+00
  0.427259399045E+00
  0.427259397027E+00
  0.427259398160E+00
  0.427259397447E+00
  0.427259404166E+00
  0.427259405165E+00
  0.427259393087E+00
  0.427259389823E+00
  0.427259419192E+00
  0.427259425780E+00
  0.427259274571E+00
  0.427259238013E+00
  0.365252558933E+00
  0.365252430685E+00
  0.365251729209E+00
  0.365251751363E+00
  0.365251872864E+00
  0.365251867760E+00
  0.365251786804E+00
  0.365251797060E+00
  0.365251889883E+00
  0.365251883542E+00
  0.365251816467E+00
  0.365251819740E+00
  0.365251822609E+00
  0.365319497054E+00
  0.365247838513E+00
  0.379257898765E+00
  0.368509789335E+00
  0.335851603682E+00
  0.363601883224E+00
  0.265815004981E+00
  0.279898811209E+00
  0.245433737414E+00
  0.256662893139E+00
  0.226435512578E+00
  0.232465990457E+00
  0.209731389411E+00
 -0.304163835486E+00
 -0.285499068663E+00
 -0.256051004032E+00
 -0.296182372479E+00
 -0.145559436359E+00
 -0.168191619637E+00
 -0.144854562792E+00
 -0.156891592420E+00
 -0.134806791739E+00
 -0.140272834180E+00
 -0.131798263481E+00
 -0.137182921911E+00
 -0.126861010738E+00
 -0.133856603457E+00
 -0.129548000316E+00
 -0.130740941116E+00
 -0.127173499154E+00
 -0.130164162675E+00
 -0.126158507784E+00
 -0.129591762087E+00
 -0.125154246418E+00
 -0.128498015132E+00
 -0.124032947455E+00
 -0.127326826439E+00
 -0.206875713453E-01
  0.547403794080E-01
  0.316200034594E-01
 -0.168396903017E+00
  0.493440206740E-02
  0.554197097728E-02
  0.527556940168E-02
  0.671019387471E-02
  0.482553348992E-02
  0.670549032925E-02
  0.505861442925E-02
  0.684807085315E-02
  0.365939968311E-02
  0.554871634454E-02
  0.381441088729E-02
  0.690361647766E-02
  0.270770509687E-02
  0.344339922072E-02
 -0.654795938716E-02
  0.652090941445E-02
 -0.186666572110E-01
 -0.119361413715E-01
 -0.423064462587E-01
 -0.444478858271E-02
 -0.176612293703E+00
 -0.162892486016E+00
 -0.845316227239E-01
 -0.123788197314E+00
  0.423423945303E+00
  0.444717716784E+00
  0.435276588238E+00
  0.450877617864E+00
  0.441095335793E+00
  0.433082585893E+00
  0.433509562396E+00
  0.427374635935E+00
  0.427421733179E+00
  0.427259398538E+00
  0.427259395958E+00
  0.427259396542E+00
  0.427259406683E+00
  0.427259409685E+00
  0.427259397871E+00
  0.427259396785E+00
  0.427259398095E+00
  0.427259395870E+00
  0.427259404668E+00
  0.427259407180E+00
  0.427259391078E+00
  0.427259387578E+00
  0.427259424284E+00
  0.427259432632E+00
  0.427259246990E+00
  0.427259193908E+00
  0.365252750867E+00
  0.365252561740E+00
  0.365251700553E+00
  0.365251728441E+00
  0.365251881366E+00
  0.365251872982E+00
  0.365251772720E+00
  0.365251786229E+00
  0.365251904261E+00
  0.365251890409E+00
  0.365251805632E+00
  0.365251816054E+00
  0.365251819441E+00
  0.365251822226E+00
  0.365251882609E+00
  0.365253180760E+00
  0.365251440043E+00
  0.369493225368E+00
  0.365937223202E+00
  0.361540227948E+00
  0.377982512604E+00
  0.278331937532E+00
  0.299376897632E+00
  0.255674830503E+00
  0.270620977759E+00
  0.231849539351E+00
 -0.278834653101E+00
 -0.263059624891E+00
 -0.302823859566E+00
 -0.319458766236E+00
 -0.173065598854E+00
 -0.213312655164E+00
 -0.158077429588E+00
 -0.163612065128E+00
 -0.141288107541E+00
 -0.153802233906E+00
 -0.137765652980E+00
 -0.146800242888E+00
 -0.134294262477E+00
 -0.139645832988E+00
 -0.131059218560E+00
 -0.137134277841E+00
 -0.130406024428E+00
 -0.134447300000E+00
 -0.129811363640E+00
 -0.133105656919E+00
 -0.128708010126E+00
 -0.132166168911E+00
 -0.127527301120E+00
 -0.131297967592E+00
  0.550781497945E-01
 -0.153762337289E+00
  0.130155481718E+00
  0.321129154284E-01
  0.265519460588E-02
  0.493370348150E-02
  0.352068677776E-02
  0.527715709180E-02
  0.387990248651E-02
  0.482611046963E-02
  0.319366088650E-02
  0.505929905170E-02
  0.110809412743E-02
  0.366202707686E-02
  0.213303413063E-02
  0.381615158163E-02
 -0.737345329056E-02
  0.270815621857E-02
 -0.144295403205E-01
 -0.660098866241E-02
 -0.204013951884E-01
 -0.186710681446E-01
 -0.125173642318E+00
 -0.469695558360E-01
 -0.145402613170E+00
 -0.176024385672E+00
 -0.231468530497E-01
 -0.800043045909E-01
  0.436735622837E+00
  0.444594761805E+00
  0.438830516454E+00
  0.428878078609E+00
  0.429051375099E+00
  0.427269103105E+00
  0.427272494963E+00
  0.427259403607E+00
  0.427259400615E+00
  0.427259400033E+00
  0.427259397828E+00
  0.427259395029E+00
  0.427259407663E+00
  0.427259412926E+00
  0.427259397972E+00
  0.427259396078E+00
  0.427259396997E+00
  0.427259395229E+00
  0.427259406839E+00
  0.427259409667E+00
  0.427259389372E+00
  0.427259383874E+00
  0.427259430676E+00
  0.427259445217E+00
  0.427259206640E+00
  0.427259119685E+00
  0.365253078014E+00
  0.365252754675E+00
  0.365251653915E+00
  0.365251699461E+00
  0.365251897431E+00
  0.365251881439E+00
  0.365251752600E+00
  0.365251771861E+00
  0.365251926642E+00
  0.365251904868E+00
  0.365251795835E+00
  0.365251805073E+00
  0.365251810857E+00
  0.365251819012E+00
  0.365251897591E+00
  0.365251883414E+00
  0.365251834673E+00
  0.365251574577E+00
  0.365251836750E+00
  0.366267393083E+00
  0.365377703593E+00
  0.376579042853E+00
  0.381025501014E+00
  0.296588193474E+00
  0.318822637435E+00
  0.268371629835E+00
 -0.257405284045E+00
 -0.233538750315E+00
 -0.321635593679E+00
 -0.303801720282E+00
 -0.224588001229E+00
 -0.281280349084E+00
 -0.166108556068E+00
 -0.193210448893E+00
 -0.154851190336E+00
 -0.165577827704E+00
 -0.147625943010E+00
 -0.156623024805E+00
 -0.140262694004E+00
 -0.149110039730E+00
 -0.137620117717E+00
 -0.144322782072E+00
 -0.134848710591E+00
 -0.142913435260E+00
 -0.133411291002E+00
 -0.139426040772E+00
 -0.132427826169E+00
 -0.137194879976E+00
 -0.131540762150E+00
 -0.135222965072E+00
 -0.154434128776E+00
 -0.234357021733E+00
 -0.132038590616E+00
  0.130106729330E+00
  0.215995455098E-03
  0.265148581010E-02
  0.383473095596E-03
  0.351903514183E-02
  0.182622319783E-02
  0.387916951949E-02
 -0.604357911331E-03
  0.319969920399E-02
 -0.121709434295E-02
  0.111436031629E-02
 -0.939420362371E-02
  0.214543167158E-02
 -0.135921855701E-01
 -0.738898064287E-02
 -0.223423730321E-01
 -0.144940939447E-01
 -0.754619934128E-01
 -0.219407879968E-01
 -0.135368781783E+00
 -0.128405408913E+00
 -0.110138872047E+00
 -0.139195318445E+00
  0.763500366705E-01
 -0.244934985532E-01
  0.433705920432E+00
  0.427865216116E+00
  0.427974004421E+00
  0.427259995807E+00
  0.427260176666E+00
  0.427259401652E+00
  0.427259402488E+00
  0.427259403626E+00
  0.427259399858E+00
  0.427259398399E+00
  0.427259395442E+00
  0.427259395324E+00
  0.427259410129E+00
  0.427259409201E+00
  0.427259394354E+00
  0.427259392018E+00
  0.427259393219E+00
  0.427259393592E+00
  0.427259406725E+00
  0.427259403243E+00
  0.427259381486E+00
  0.427259383334E+00
  0.427259439619E+00
  0.427259429349E+00
  0.427259129562E+00
  0.427259190310E+00
  0.365252856147E+00
  0.365253084855E+00
  0.365251667960E+00
  0.365251654919E+00
  0.365251884177E+00
  0.365251899140E+00
  0.365251756528E+00
  0.365251753915E+00
  0.365251901573E+00
  0.365251927663E+00
  0.365251804879E+00
  0.365251796269E+00
  0.365251802100E+00
  0.365251811291E+00
  0.365251901045E+00
  0.365251898719E+00
  0.365251835341E+00
  0.365251834733E+00
  0.365251817674E+00
  0.365251813579E+00
  0.365251841447E+00
  0.365461874511E+00
  0.365230135904E+00
  0.380785361566E+00
  0.364619017485E+00
  0.314888944135E+00
 -0.227408514207E+00
 -0.186516641967E+00
 -0.297928201821E+00
 -0.285421405692E+00
 -0.287351214145E+00
 -0.300660097350E+00
 -0.199378698722E+00
 -0.244643772148E+00
 -0.167670290102E+00
 -0.190159623890E+00
 -0.157719039338E+00
 -0.169769089091E+00
 -0.149961018528E+00
 -0.163013127765E+00
 -0.144911893850E+00
 -0.153127128912E+00
 -0.143451160807E+00
 -0.150741083325E+00
 -0.139910943040E+00
 -0.147765970839E+00
 -0.137617543001E+00
 -0.144631184746E+00
 -0.135598499824E+00
 -0.142247999570E+00
 -0.235019146887E+00
 -0.135277352916E-01
  0.143902676769E+00
 -0.131073122074E+00
 -0.387904913943E-02
  0.218181519760E-03
 -0.455903671914E-02
  0.390133103190E-03
 -0.511307217114E-02
  0.183929621283E-02
 -0.626894594109E-02
 -0.587092936886E-03
 -0.116166364120E-01
 -0.120061902979E-02