# vtk DataFile Version 3.0
MachLine results file. Generated by MachLine, USU AeroLab (c) 2022.
ASCII
DATASET POLYDATA
POINTS                3023 float
  0.000000000000E+00  0.000000000000E+00  0.000000000000E+00
  0.895597194070E-03  0.000000000000E+00 -0.199021598680E-03
  0.895597194070E-03  0.000000000000E+00  0.199021598680E-03
  0.201978017340E-02  0.000000000000E+00 -0.448840038540E-03
  0.201978017340E-02  0.000000000000E+00  0.448840038540E-03
  0.342194336150E-02  0.000000000000E+00 -0.760431858110E-03
  0.342194336150E-02  0.000000000000E+00  0.760431858110E-03
  0.515701313740E-02  0.000000000000E+00 -0.114600291940E-02
  0.515701313740E-02  0.000000000000E+00  0.114600291940E-02
  0.728308852790E-02  0.000000000000E+00 -0.161846411730E-02
  0.728308852790E-02  0.000000000000E+00  0.161846411730E-02
  0.827775178670E-02  0.832120786070E-02  0.000000000000E+00
  0.827775178670E-02 -0.832120786070E-02  0.000000000000E+00
  0.914115697030E-02  0.832120786070E-02 -0.191867818590E-03
  0.914115697030E-02  0.832120786070E-02  0.191867818590E-03
  0.914115697030E-02 -0.832120786070E-02 -0.191867818590E-03
  0.914115697030E-02 -0.832120786070E-02  0.191867818590E-03
  0.985721679120E-02  0.000000000000E+00 -0.219049262030E-02
  0.985721679120E-02  0.000000000000E+00  0.219049262030E-02
  0.102249314820E-01  0.832120786070E-02 -0.432706598980E-03
  0.102249314820E-01  0.832120786070E-02  0.432706598980E-03
  0.102249314820E-01 -0.832120786070E-02 -0.432706598980E-03
  0.102249314820E-01 -0.832120786070E-02  0.432706598980E-03
  0.115766942760E-01  0.832120786070E-02 -0.733098330870E-03
  0.115766942760E-01  0.832120786070E-02  0.733098330870E-03
  0.115766942760E-01 -0.832120786070E-02 -0.733098330870E-03
  0.115766942760E-01 -0.832120786070E-02  0.733098330870E-03
  0.129289354540E-01  0.000000000000E+00 -0.287309676740E-02
  0.129289354540E-01  0.000000000000E+00  0.287309676740E-02
  0.132493974150E-01  0.832120786070E-02 -0.110481013970E-02
  0.132493974150E-01  0.832120786070E-02  0.110481013970E-02
  0.132493974150E-01 -0.832120786070E-02 -0.110481013970E-02
  0.132493974150E-01 -0.832120786070E-02  0.110481013970E-02
  0.152990515740E-01  0.832120786070E-02 -0.156028884160E-02
  0.152990515740E-01  0.832120786070E-02  0.156028884160E-02
  0.152990515740E-01 -0.832120786070E-02 -0.156028884160E-02
  0.152990515740E-01 -0.832120786070E-02  0.156028884160E-02
  0.165316099180E-01  0.000000000000E+00 -0.367369109300E-02
  0.165316099180E-01  0.000000000000E+00  0.367369109300E-02
  0.172182429130E-01  0.173086342730E-01  0.000000000000E+00
  0.172182429130E-01 -0.173086342730E-01  0.000000000000E+00
  0.177806534600E-01  0.832120786070E-02 -0.211175592730E-02
  0.177806534600E-01  0.832120786070E-02  0.211175592730E-02
  0.177806534600E-01 -0.832120786070E-02 -0.211175592730E-02
  0.177806534600E-01 -0.832120786070E-02  0.211175592730E-02
  0.180468787060E-01  0.173086342730E-01 -0.184141287390E-03
  0.180468787060E-01  0.173086342730E-01  0.184141287390E-03
  0.180468787060E-01 -0.173086342730E-01 -0.184141287390E-03
  0.180468787060E-01 -0.173086342730E-01  0.184141287390E-03
  0.190870095390E-01  0.173086342730E-01 -0.415281472340E-03
  0.190870095390E-01  0.173086342730E-01  0.415281472340E-03
  0.190870095390E-01 -0.173086342730E-01 -0.415281472340E-03
  0.190870095390E-01 -0.173086342730E-01  0.415281472340E-03
  0.203843367450E-01  0.173086342730E-01 -0.703576407050E-03
  0.203843367450E-01  0.173086342730E-01  0.703576407050E-03
  0.203843367450E-01 -0.173086342730E-01 -0.703576407050E-03
  0.203843367450E-01 -0.173086342730E-01  0.703576407050E-03
  0.206723337860E-01  0.000000000000E+00 -0.459385195240E-02
  0.206723337860E-01  0.000000000000E+00  0.459385195240E-02
  0.207419599860E-01  0.832120786070E-02 -0.276982404430E-02
  0.207419599860E-01  0.832120786070E-02  0.276982404430E-02
  0.207419599860E-01 -0.832120786070E-02 -0.276982404430E-02
  0.207419599860E-01 -0.832120786070E-02  0.276982404430E-02
  0.219896800060E-01  0.173086342730E-01 -0.106031935400E-02
  0.219896800060E-01  0.173086342730E-01  0.106031935400E-02
  0.219896800060E-01 -0.173086342730E-01 -0.106031935400E-02
  0.219896800060E-01 -0.173086342730E-01  0.106031935400E-02
  0.239567944400E-01  0.173086342730E-01 -0.149745589490E-02
  0.239567944400E-01  0.173086342730E-01  0.149745589490E-02
  0.239567944400E-01 -0.173086342730E-01 -0.149745589490E-02
  0.239567944400E-01 -0.173086342730E-01  0.149745589490E-02
  0.242151372450E-01  0.832120786070E-02 -0.354164121300E-02
  0.242151372450E-01  0.832120786070E-02  0.354164121300E-02
  0.242151372450E-01 -0.832120786070E-02 -0.354164121300E-02
  0.242151372450E-01 -0.832120786070E-02  0.354164121300E-02
  0.253221652780E-01  0.000000000000E+00 -0.562714783960E-02
  0.253221652780E-01  0.000000000000E+00  0.562714783960E-02
  0.263384620350E-01  0.173086342730E-01 -0.202671536050E-02
  0.263384620350E-01  0.173086342730E-01  0.202671536050E-02
  0.263384620350E-01 -0.173086342730E-01 -0.202671536050E-02
  0.263384620350E-01 -0.173086342730E-01  0.202671536050E-02
  0.267917395800E-01  0.269323893420E-01  0.000000000000E+00
  0.267917395800E-01 -0.269323893420E-01  0.000000000000E+00
  0.275831442370E-01  0.269323893420E-01 -0.175867701560E-03
  0.275831442370E-01  0.269323893420E-01  0.175867701560E-03
  0.275831442370E-01 -0.269323893420E-01 -0.175867701560E-03
  0.275831442370E-01 -0.269323893420E-01  0.175867701560E-03
  0.282070238600E-01  0.832120786070E-02 -0.442872712740E-02
  0.282070238600E-01  0.832120786070E-02  0.442872712740E-02
  0.282070238600E-01 -0.832120786070E-02 -0.442872712740E-02
  0.282070238600E-01 -0.832120786070E-02  0.442872712740E-02
  0.285765413250E-01  0.269323893420E-01 -0.396622610160E-03
  0.285765413250E-01  0.269323893420E-01  0.396622610160E-03
  0.285765413250E-01 -0.269323893420E-01 -0.396622610160E-03
  0.285765413250E-01 -0.269323893420E-01  0.396622610160E-03
  0.291805165300E-01  0.173086342730E-01 -0.265828302590E-02
  0.291805165300E-01  0.173086342730E-01  0.265828302590E-02
  0.291805165300E-01 -0.173086342730E-01 -0.265828302590E-02
  0.291805165300E-01 -0.173086342730E-01  0.265828302590E-02
  0.298155787900E-01  0.269323893420E-01 -0.671964269040E-03
  0.298155787900E-01  0.269323893420E-01  0.671964269040E-03
  0.298155787900E-01 -0.269323893420E-01 -0.671964269040E-03
  0.298155787900E-01 -0.269323893420E-01  0.671964269040E-03
  0.304094174850E-01  0.000000000000E+00 -0.675764833000E-02
  0.304094174850E-01  0.000000000000E+00  0.675764833000E-02
  0.313487929520E-01  0.269323893420E-01 -0.101267852710E-02
  0.313487929520E-01  0.269323893420E-01  0.101267852710E-02
  0.313487929520E-01 -0.269323893420E-01 -0.101267852710E-02
  0.313487929520E-01 -0.269323893420E-01  0.101267852710E-02
  0.325138286850E-01  0.173086342730E-01 -0.339901906030E-02
  0.325138286850E-01  0.173086342730E-01  0.339901906030E-02
  0.325138286850E-01 -0.173086342730E-01 -0.339901906030E-02
  0.325138286850E-01 -0.173086342730E-01  0.339901906030E-02
  0.326897183580E-01  0.832120786070E-02 -0.542488146020E-02
  0.326897183580E-01  0.832120786070E-02  0.542488146020E-02
  0.326897183580E-01 -0.832120786070E-02 -0.542488146020E-02
  0.326897183580E-01 -0.832120786070E-02  0.542488146020E-02
  0.332275236760E-01  0.269323893420E-01 -0.143017424370E-02
  0.332275236760E-01  0.269323893420E-01  0.143017424370E-02
  0.332275236760E-01 -0.269323893420E-01 -0.143017424370E-02
  0.332275236760E-01 -0.269323893420E-01  0.143017424370E-02
  0.355021814230E-01  0.269323893420E-01 -0.193565374290E-02
  0.355021814230E-01  0.269323893420E-01  0.193565374290E-02
  0.355021814230E-01 -0.269323893420E-01 -0.193565374290E-02
  0.355021814230E-01 -0.269323893420E-01  0.193565374290E-02
  0.358190159330E-01  0.000000000000E+00 -0.795978131850E-02
  0.358190159330E-01  0.000000000000E+00  0.795978131850E-02
  0.363449617310E-01  0.173086342730E-01 -0.425038195950E-02
  0.363449617310E-01  0.173086342730E-01  0.425038195950E-02
  0.363449617310E-01 -0.173086342730E-01 -0.425038195950E-02
  0.363449617310E-01 -0.173086342730E-01  0.425038195950E-02
  0.369489973750E-01  0.371429701360E-01  0.000000000000E+00
  0.369489973750E-01 -0.371429701360E-01  0.000000000000E+00
  0.375941105940E-01  0.832120786070E-02 -0.651474640160E-02
  0.375941105940E-01  0.832120786070E-02  0.651474640160E-02
  0.375941105940E-01 -0.832120786070E-02 -0.651474640160E-02
  0.375941105940E-01 -0.832120786070E-02  0.651474640160E-02
  0.377009006610E-01  0.371429701360E-01 -0.167089619000E-03
  0.377009006610E-01  0.371429701360E-01  0.167089619000E-03
  0.377009006610E-01 -0.371429701360E-01 -0.167089619000E-03
  0.377009006610E-01 -0.371429701360E-01  0.167089619000E-03
  0.382165405910E-01  0.269323893420E-01 -0.253884466910E-02
  0.382165405910E-01  0.269323893420E-01  0.253884466910E-02
  0.382165405910E-01 -0.269323893420E-01 -0.253884466910E-02
  0.382165405910E-01 -0.269323893420E-01  0.253884466910E-02
  0.386447143320E-01  0.371429701360E-01 -0.376825990390E-03
  0.386447143320E-01  0.371429701360E-01  0.376825990390E-03
  0.386447143320E-01 -0.371429701360E-01 -0.376825990390E-03
  0.386447143320E-01 -0.371429701360E-01  0.376825990390E-03
  0.398219077340E-01  0.371429701360E-01 -0.638424524220E-03
  0.398219077340E-01  0.371429701360E-01  0.638424524220E-03
  0.398219077340E-01 -0.371429701360E-01 -0.638424524220E-03
  0.398219077340E-01 -0.371429701360E-01  0.638424524220E-03
  0.406471377910E-01  0.173086342730E-01 -0.520642108390E-02
  0.406471377910E-01  0.173086342730E-01  0.520642108390E-02
  0.406471377910E-01 -0.173086342730E-01 -0.520642108390E-02
  0.406471377910E-01 -0.173086342730E-01  0.520642108390E-02
  0.412785945950E-01  0.371429701360E-01 -0.962132715490E-03
  0.412785945950E-01  0.371429701360E-01  0.962132715490E-03
  0.412785945950E-01 -0.371429701360E-01 -0.962132715490E-03
  0.412785945950E-01 -0.371429701360E-01  0.962132715490E-03
[...]
CELL_DATA                5928
SCALARS C_p_ise float 1
LOOKUP_TABLE default
 -0.620577905715E-01
 -0.624520321195E-01
 -0.619087626388E-01
 -0.616547281151E-01
 -0.621558421452E-01
 -0.617917028376E-01
 -0.616107554495E-01
 -0.614439222561E-01
 -0.613852862918E-01
 -0.610566105157E-01
 -0.606029136937E-01
 -0.604998516120E-01
 -0.598714335889E-01
 -0.599228212082E-01
 -0.587719647162E-01
 -0.586136457273E-01
 -0.588685731896E-01
 -0.571840219800E-01
 -0.536297946909E-01
 -0.592700492673E-01
 -0.583496384115E-01
 -0.412650254698E-01
 -0.396605779357E-01
 -0.596291112141E-01
 -0.147431287766E+00
 -0.733956956763E-01
  0.251258548869E+00
  0.260065042187E+00
  0.253654885879E+00
  0.261452850108E+00
  0.253215508398E+00
  0.265000596156E+00
  0.250076050648E+00
  0.268176570359E+00
  0.249854760328E+00
  0.275212697796E+00
  0.252521886037E+00
  0.284993702508E+00
  0.253955353802E+00
  0.298842358820E+00
  0.257009072244E+00
  0.303683459865E+00
  0.255837256093E+00
  0.368825991204E+00
  0.254378054502E+00
  0.292460370733E+00
  0.260437663409E+00
  0.517926645677E+00
  0.258845562548E+00
  0.507330795328E+00
  0.254155858143E+00
  0.478732403932E+00
  0.478732403562E+00
  0.254156731692E+00
  0.507330840112E+00
  0.258845718991E+00
  0.517926683144E+00
  0.260437641207E+00
  0.292460375059E+00
  0.254377973378E+00
  0.368825970075E+00
  0.255837170339E+00
  0.303683439019E+00
  0.257009055610E+00
  0.298842354246E+00
  0.253955317302E+00
  0.284993697594E+00
  0.252521868186E+00
  0.275212684711E+00
  0.249854730930E+00
  0.268176558697E+00
  0.250076030879E+00
  0.265000594531E+00
  0.253215500160E+00
  0.261452842179E+00
  0.253654877863E+00
  0.260065043138E+00
  0.251258542155E+00
 -0.733956934434E-01
 -0.147431284986E+00
 -0.596291096353E-01
 -0.396605773800E-01
 -0.412650319396E-01
 -0.583496443181E-01
 -0.592700481708E-01
 -0.536297931444E-01
 -0.571840216524E-01
 -0.588685723849E-01
 -0.586136460785E-01
 -0.587719656292E-01
 -0.599228186875E-01
 -0.598714320242E-01
 -0.604998540257E-01
 -0.606029125737E-01
 -0.610566087531E-01
 -0.613852856676E-01
 -0.614439215884E-01
 -0.616107545833E-01
 -0.617917029299E-01
 -0.621558426453E-01
 -0.616547291524E-01
 -0.619087644993E-01
 -0.624525443822E-01
 -0.620392206220E-01
 -0.627763484947E-01
 -0.620596005386E-01
 -0.626194140249E-01
 -0.619112205725E-01
 -0.622460459117E-01
 -0.621583446450E-01
 -0.622530504734E-01
 -0.616140015944E-01
 -0.617347928834E-01
 -0.613890943471E-01
 -0.613254355250E-01
 -0.606082496843E-01
 -0.608681211884E-01
 -0.598803641953E-01
 -0.604441454788E-01
 -0.587907020476E-01
 -0.601072728894E-01
 -0.588991483821E-01
 -0.521975922501E-01
 -0.536357350104E-01
 -0.756855604570E-01
 -0.589616359862E-01
 -0.344321177440E-01
 -0.396243073223E-01
 -0.209410006527E+00
 -0.163774016081E+00
  0.258037518054E+00
  0.274083450866E+00
  0.258937709928E+00
  0.275986907606E+00
  0.261899414690E+00
  0.281423631203E+00
  0.264482034865E+00
  0.291796321980E+00
  0.270580990876E+00
  0.305021913102E+00
  0.279124001673E+00
  0.327091692812E+00
  0.291145592820E+00
  0.352291575698E+00
  0.293843039150E+00
  0.354437972237E+00
  0.355737632487E+00
  0.456387175513E+00
  0.278988257934E+00
  0.479241912968E+00
  0.478992950813E+00
  0.477298197606E+00
  0.488887321762E+00
  0.478732180996E+00
  0.478732425405E+00
  0.478732474834E+00
  0.478732474585E+00
  0.478732425046E+00
  0.478732181324E+00
  0.488887397935E+00
  0.477298185432E+00
  0.478992998625E+00
  0.479241945510E+00
  0.278988265598E+00
  0.456387199429E+00
  0.355737619140E+00
  0.354437970104E+00
  0.293843021911E+00
  0.352291565850E+00
  0.291145590305E+00
  0.327091690909E+00
  0.279123997632E+00
  0.305021910176E+00
  0.270580978837E+00
  0.291796317104E+00
  0.264482023929E+00
  0.281423634987E+00
  0.261899413402E+00
  0.275986898308E+00
  0.258937702325E+00
  0.274083457386E+00
  0.258037519206E+00
 -0.163774013324E+00
 -0.209410005599E+00
 -0.396243067349E-01
 -0.344321182172E-01
 -0.589616418044E-01
 -0.756855619044E-01
 -0.536357334731E-01
 -0.521975931696E-01
 -0.588991475658E-01
 -0.601072710570E-01
 -0.587907029631E-01
 -0.604441459999E-01
 -0.598803626339E-01
 -0.608681198777E-01
 -0.606082485624E-01
 -0.613254330353E-01
 -0.613890937258E-01
 -0.617347932301E-01
 -0.616140007290E-01
 -0.622530524665E-01
 -0.621583451422E-01
 -0.622460475491E-01
 -0.619112224294E-01
 -0.626194153019E-01
 -0.620410260134E-01
 -0.627220834344E-01
 -0.632762062657E-01
 -0.627814831243E-01
 -0.631711442968E-01
 -0.626248117870E-01
 -0.627368997343E-01
 -0.622516348596E-01
 -0.628915767030E-01
 -0.622599266927E-01
 -0.628456089887E-01
 -0.617439338630E-01
 -0.626607085959E-01
 -0.613394110940E-01
 -0.620006628816E-01
 -0.608865415875E-01
 -0.611422987304E-01
 -0.604634883852E-01
 -0.614442269541E-01
 -0.601288199816E-01
 -0.631395985240E-01
 -0.524261490714E-01
 -0.733665606756E-01
 -0.759542068668E-01
 -0.576469804795E-01
 -0.351976347643E-01
 -0.249416271264E+00
 -0.221865124896E+00
  0.271833847413E+00
  0.292720853408E+00
  0.273385888986E+00
  0.296171870944E+00
  0.278367261279E+00
  0.305447395203E+00
  0.288268655286E+00
  0.318633019708E+00
  0.301110834948E+00
  0.342590346040E+00
  0.322616586201E+00
  0.372920762374E+00
  0.347312340994E+00
  0.400286799639E+00
  0.348950640051E+00
  0.475405761958E+00
  0.441435505747E+00
  0.477496188075E+00
  0.480632466894E+00
  0.478732177019E+00
  0.478732247987E+00
  0.478732256804E+00
  0.478732179499E+00
  0.478732170720E+00
  0.478732479444E+00
  0.478732535698E+00
  0.478732535707E+00
  0.478732479216E+00
  0.478732170698E+00
  0.478732179800E+00
  0.478732256445E+00
  0.478732247233E+00
  0.478732177024E+00
  0.480632513210E+00
  0.477496200136E+00
  0.441435530025E+00
  0.475405781280E+00
  0.348950638896E+00
  0.400286797908E+00
  0.347312331835E+00
  0.372920759172E+00
  0.322616584991E+00
  0.342590345726E+00
  0.301110832582E+00
  0.318633018289E+00
  0.288268650646E+00
  0.305447400137E+00
  0.278367264903E+00
  0.296171865425E+00
  0.273385879739E+00
  0.292720853070E+00
  0.271833853497E+00
 -0.221865123687E+00
 -0.249416270830E+00
 -0.351976351485E-01
 -0.576469758479E-01
 -0.759542083839E-01
 -0.733665631181E-01
 -0.524261500542E-01
 -0.631396006765E-01
 -0.601288181513E-01
 -0.614442260084E-01
 -0.604634888989E-01
 -0.611422963651E-01
 -0.608865402922E-01
 -0.620006622472E-01
 -0.613394086099E-01
 -0.626607101856E-01
 -0.617439342006E-01
 -0.628456103059E-01
 -0.622599286795E-01
 -0.628915778528E-01
 -0.622516364942E-01
 -0.627369016079E-01
 -0.626248130603E-01
 -0.631711456005E-01
 -0.627271969989E-01
 -0.632186743091E-01
 -0.640316010460E-01
 -0.632844512467E-01
 -0.642083129584E-01
 -0.631806069811E-01
 -0.639397102571E-01
 -0.627482722507E-01
 -0.640611563653E-01
 -0.629055743432E-01
 -0.639586115891E-01
 -0.628625239805E-01
 -0.638928055472E-01
 -0.626805457605E-01
 -0.652250270290E-01
 -0.620390383984E-01
 -0.640539841466E-01
 -0.612061536383E-01
 -0.649834604097E-01
 -0.615617920312E-01
 -0.671850482895E-01
 -0.633443097713E-01
 -0.710535317509E-01
 -0.732026397529E-01
 -0.106188093517E+00
 -0.613251091407E-01
 -0.265824954979E+00
 -0.256325975630E+00
  0.290272340053E+00
  0.309853889150E+00
  0.293854732253E+00
  0.319802980753E+00
  0.303038816309E+00
  0.333854177116E+00
  0.315911209040E+00
  0.356807447383E+00
  0.339354074024E+00
  0.387243524069E+00
  0.369021191577E+00
  0.425268449703E+00
  0.394590198485E+00
  0.483053951244E+00
  0.470769545405E+00
  0.478909152841E+00
  0.478007974586E+00
  0.478732272840E+00
  0.478732174661E+00
  0.478732160347E+00
  0.478732258061E+00
  0.478732269567E+00
  0.478732169501E+00
  0.478732153102E+00
  0.478732541298E+00
  0.478732644742E+00
  0.478732644644E+00
  0.478732541299E+00
  0.478732153585E+00
  0.478732169498E+00
  0.478732270270E+00
  0.478732257871E+00
  0.478732160271E+00
  0.478732174750E+00
  0.478732272563E+00
  0.478007992223E+00
  0.478909154547E+00
  0.470769566200E+00
  0.483053969621E+00
  0.394590198094E+00
  0.425268449668E+00
  0.369021189111E+00
  0.387243521710E+00
  0.339354074191E+00
  0.356807451226E+00
  0.315911208243E+00
  0.333854179403E+00
  0.303038821297E+00
  0.319802975033E+00
  0.293854726773E+00
  0.309853897837E+00
  0.290272340018E+00
 -0.256325975885E+00
 -0.265824955006E+00
 -0.613251044259E-01
 -0.106188090952E+00
 -0.732026420848E-01
 -0.710535297069E-01
 -0.633443120283E-01
 -0.671850531912E-01
 -0.615617911076E-01
 -0.649834588068E-01
 -0.612061512761E-01
 -0.640539821933E-01
 -0.620390377664E-01
 -0.652250288529E-01
 -0.626805473523E-01
 -0.638928085821E-01
 -0.628625252950E-01
 -0.639586146903E-01
 -0.629055754817E-01
 -0.640611575703E-01
 -0.627482741143E-01
 -0.639397084765E-01
 -0.631806082836E-01
 -0.642083132283E-01
 -0.632269153035E-01
 -0.640797857074E-01
 -0.651847337508E-01
 -0.640459781380E-01
 -0.653746483257E-01
 -0.642240767751E-01
 -0.651569384817E-01
 -0.639568991298E-01
 -0.658855920853E-01
 -0.640820412670E-01
 -0.654612264071E-01
 -0.639829131684E-01
 -0.672603122104E-01
 -0.639347612266E-01
 -0.650913094004E-01
 -0.652591255432E-01
 -0.692217329007E-01
 -0.641227947727E-01
 -0.700781413621E-01
 -0.651112762358E-01
 -0.796228152210E-01
 -0.676499495766E-01
 -0.768984241185E-01
 -0.716913931351E-01
 -0.176016266199E+00
 -0.116599100068E+00
 -0.249365408750E+00
 -0.266604591600E+00
  0.307421350912E+00
  0.333294778869E+00
  0.317318773243E+00
  0.345210879751E+00
  0.331500988417E+00
  0.369162579586E+00
  0.354518717602E+00
  0.402986469147E+00
  0.384362216510E+00
  0.449791384177E+00
  0.419444189387E+00
  0.479678636029E+00
  0.480369029975E+00
  0.478748292069E+00
  0.478751338926E+00
  0.478732183250E+00
  0.478732275056E+00
  0.478732285529E+00
  0.478732158296E+00
  0.478732144833E+00
  0.478732270957E+00
  0.478732282455E+00
  0.478732151478E+00
  0.478732135034E+00
  0.478732653070E+00
  0.478732751066E+00
  0.478732751053E+00
  0.478732652977E+00
  0.478732135392E+00
  0.478732151963E+00
  0.478732282569E+00
  0.478732271557E+00
  0.478732144613E+00
  0.478732158007E+00
  0.478732285580E+00
  0.478732274672E+00
  0.478732183408E+00
  0.478751343356E+00
  0.478748291905E+00
  0.480369049717E+00
  0.479678645046E+00
  0.419444188438E+00
  0.449791395985E+00
  0.384362215184E+00
  0.402986463996E+00
  0.354518721510E+00
  0.369162582267E+00
  0.331500990406E+00
  0.345210879189E+00
  0.317318767925E+00
  0.333294782847E+00
  0.307421359505E+00
 -0.266604591136E+00
 -0.249365412367E+00
 -0.116599095922E+00
 -0.176016257253E+00
 -0.716913908845E-01
 -0.768984229324E-01
 -0.676499543723E-01
 -0.796228124131E-01
 -0.651112747270E-01
 -0.700781434671E-01
 -0.641227928346E-01
 -0.692217358282E-01
 -0.652591273474E-01
 -0.650913125966E-01
 -0.639347642376E-01
 -0.672603139182E-01
 -0.639829162660E-01
 -0.654612268010E-01
 -0.640820424809E-01
 -0.658855927339E-01
 -0.639568973510E-01
 -0.651569367119E-01
 -0.642240770449E-01
 -0.653746377986E-01
 -0.640943021718E-01
 -0.652726433684E-01
 -0.669941217756E-01
 -0.652056705557E-01
 -0.670281066867E-01
 -0.653976354516E-01
 -0.673396493663E-01
 -0.651842811010E-01
 -0.682446848807E-01
 -0.659194657369E-01
 -0.680876616636E-01
 -0.655028436189E-01
 -0.689949053032E-01
 -0.673076525088E-01
 -0.696509453312E-01
 -0.651599627291E-01
 -0.738838450096E-01
 -0.693645143682E-01
 -0.726450370141E-01
 -0.702012307581E-01
 -0.918152832415E-01
 -0.800384562446E-01
 -0.922908626671E-01
 -0.776238659521E-01
 -0.232284336293E+00
 -0.185050792241E+00
 -0.218479402921E+00
 -0.241379600985E+00
  0.330830642081E+00
  0.357904172967E+00
  0.342852067938E+00
  0.383687263079E+00
  0.366330857293E+00
  0.415756537405E+00
  0.399582413962E+00
  0.466432523375E+00
  0.444453156712E+00
  0.478137617974E+00
  0.479831404547E+00
  0.478725997712E+00
  0.478748808431E+00
  0.478732235300E+00
  0.478732181273E+00
  0.478732169789E+00
  0.478732287766E+00
  0.478732303005E+00
  0.478732142648E+00
  0.478732124130E+00
  0.478732283980E+00
  0.478732299652E+00
  0.478732133433E+00
  0.478732110467E+00
  0.478732758526E+00
  0.478732903325E+00
  0.478732903130E+00
  0.478732758502E+00
  0.478732110474E+00
  0.478732133750E+00
  0.478732299845E+00
  0.478732284075E+00
  0.478732124366E+00
  0.478732142513E+00
  0.478732303054E+00
  0.478732287881E+00
  0.478732169373E+00
  0.478732181322E+00
  0.478732234646E+00
  0.478748808893E+00
  0.478725998235E+00
  0.479831416691E+00
  0.478137621113E+00
  0.444453166562E+00
  0.466432537773E+00
  0.399582408932E+00
  0.415756532159E+00
  0.366330860091E+00
  0.383687262745E+00
  0.342852067430E+00
  0.357904178142E+00
  0.330830645777E+00
 -0.241379606192E+00
 -0.218479399893E+00
 -0.185050785097E+00
 -0.232284337114E+00
 -0.776238648910E-01
 -0.922908548988E-01
 -0.800384535770E-01
 -0.918152840031E-01
 -0.702012329290E-01
 -0.726450462995E-01
 -0.693645172829E-01
 -0.738838509456E-01
 -0.651599658915E-01
 -0.696509462525E-01
 -0.673076542004E-01
 -0.689949041394E-01
 -0.655028440045E-01
 -0.680876581643E-01
 -0.659194663971E-01
 -0.682446789922E-01
 -0.651842793687E-01
 -0.673396436084E-01
 -0.653976249486E-01
 -0.670281033283E-01
 -0.652936459235E-01
 -0.670391100602E-01
 -0.692797114775E-01
 -0.670268446311E-01
 -0.695498494800E-01
 -0.670642947471E-01
 -0.698657652790E-01
 -0.673808030485E-01
 -0.704184691824E-01
 -0.682888368229E-01
 -0.711546759586E-01
 -0.681402878995E-01
 -0.726926880118E-01
 -0.690628498651E-01
 -0.746959843600E-01
 -0.697635013266E-01
 -0.795599464492E-01
 -0.740409271549E-01
 -0.859642473379E-01
 -0.730563496325E-01
 -0.998053610644E-01
 -0.925355161737E-01
 -0.129285896330E+00
 -0.950208389949E-01
 -0.255349493658E+00
 -0.238043134866E+00
 -0.188206343067E+00
 -0.211025637094E+00
  0.354894019263E+00
  0.401941589417E+00
  0.379877349099E+00
  0.428815797555E+00
  0.411663333197E+00
  0.474399242291E+00
  0.462166181496E+00
  0.478774301705E+00
  0.478541912266E+00
  0.478732423489E+00
  0.478730648092E+00
  0.478732306009E+00
  0.478732223802E+00
  0.478732163124E+00
  0.478732168820E+00
  0.478732169295E+00
  0.478732304523E+00
  0.478732308542E+00
  0.478732122571E+00
  0.478732115617E+00
  0.478732300578E+00
  0.478732307704E+00
  0.478732108798E+00
  0.478732097937E+00
  0.478732912072E+00
  0.478732967888E+00
  0.478732968342E+00
  0.478732911911E+00
  0.478732097662E+00
  0.478732108829E+00
  0.478732307312E+00
  0.478732300768E+00
  0.478732115533E+00
  0.478732122764E+00
  0.478732308532E+00
  0.478732304483E+00
  0.478732169534E+00
  0.478732168435E+00
  0.478732163303E+00
  0.478732223399E+00
  0.478732305551E+00
  0.478730648844E+00
  0.478732423729E+00
  0.478541917720E+00
  0.478774302206E+00
  0.462166195336E+00
  0.474399254714E+00
  0.411663327588E+00
  0.428815804216E+00
  0.379877350291E+00
  0.401941582978E+00
  0.354894024406E+00
 -0.211025631916E+00
 -0.188206330440E+00
 -0.238043136690E+00
 -0.255349497486E+00
 -0.950208311341E-01
 -0.129285887759E+00
 -0.925355170576E-01
 -0.998053707306E-01
 -0.730563588854E-01
 -0.859642581744E-01
 -0.740409330759E-01
 -0.795599504871E-01
 -0.697635022337E-01
 -0.746959781460E-01
 -0.690628487459E-01
 -0.726926813046E-01
 -0.681402844614E-01
 -0.711546742711E-01
 -0.682888309508E-01
 -0.704184668457E-01
 -0.673807972766E-01
 -0.698657590044E-01
 -0.670642913950E-01
 -0.695498432596E-01
 -0.670717492240E-01
 -0.693024643358E-01
 -0.721160171506E-01
 -0.693240213917E-01
 -0.724115504699E-01
 -0.695978277860E-01
 -0.729832000465E-01
 -0.699188377797E-01
 -0.740957578373E-01
 -0.704812399169E-01
 -0.765709947565E-01
 -0.712451981500E-01
 -0.781400057664E-01
 -0.728158965061E-01
 -0.805903019231E-01
 -0.748644076702E-01
 -0.883954489519E-01
 -0.798348313510E-01
 -0.975163068504E-01
 -0.864645000058E-01
 -0.112593639545E+00
 -0.100467544531E+00
 -0.208729563918E+00
 -0.137388533735E+00
 -0.231998933615E+00
 -0.256666145692E+00
 -0.148392527520E+00
 -0.182547394256E+00
  0.398904080348E+00
  0.453807928428E+00
  0.424780804439E+00
  0.482463433163E+00
  0.471311922489E+00
  0.478738957499E+00
  0.478717330787E+00
  0.478732173620E+00
  0.478732041490E+00
  0.478732265400E+00
  0.478732318282E+00
  0.478732309570E+00
  0.478732163536E+00
  0.478732158844E+00
  0.478732170684E+00
  0.478732192417E+00
  0.478732307149E+00
  0.478732280580E+00
  0.478732116752E+00
  0.478732145362E+00
  0.478732306588E+00
  0.478732284118E+00
  0.478732097830E+00
  0.478732127626E+00
  0.478732969228E+00
  0.478732758830E+00
  0.478732758601E+00
  0.478732969649E+00
  0.478732127657E+00
  0.478732097508E+00
  0.478732284133E+00
  0.478732306205E+00
  0.478732145392E+00
  0.478732116737E+00
  0.478732280420E+00
  0.478732307214E+00
  0.478732192391E+00
  0.478732170948E+00
  0.478732158494E+00
  0.478732163553E+00
  0.478732309999E+00
  0.478732317749E+00
  0.478732265251E+00
  0.478732041850E+00
  0.478732173326E+00
  0.478717332477E+00
  0.478738957681E+00
  0.471311935783E+00
  0.482463441943E+00
  0.424780808996E+00
  0.453807936440E+00
  0.398904073625E+00
 -0.182547380888E+00
 -0.148392510802E+00
 -0.256666149419E+00
 -0.231998951866E+00
 -0.137388522571E+00
 -0.208729549389E+00
 -0.100467553836E+00
 -0.112593652599E+00
 -0.864645104680E-01
 -0.975163058738E-01
 -0.798348353447E-01
 -0.883954357692E-01
 -0.748644016217E-01
 -0.805902946081E-01
 -0.728158899087E-01
 -0.781400118396E-01
 -0.712451964533E-01
 -0.765710004665E-01
 -0.704812375363E-01
 -0.740957501566E-01
 -0.699188314890E-01
 -0.729831909697E-01
 -0.695978215529E-01
 -0.724115535942E-01
 -0.693467236002E-01
 -0.721382118226E-01
 -0.764213066964E-01
 -0.721802184478E-01
 -0.775833981851E-01
 -0.724865989503E-01
 -0.786386124086E-01
 -0.730748983513E-01
 -0.798068369181E-01
 -0.742090279495E-01
 -0.826489689400E-01
 -0.767134579593E-01
 -0.835566182904E-01
 -0.782993532419E-01
 -0.934152803380E-01
 -0.808911155337E-01
 -0.986093364524E-01
 -0.888439784067E-01
 -0.113166003057E+00
 -0.982947971341E-01
 -0.160755115995E+00
 -0.115861513746E+00
 -0.228361534317E+00
 -0.213736298453E+00
 -0.210835132837E+00
 -0.225642431812E+00
 -0.775247749792E-01
 -0.143318408085E+00
  0.444730033687E+00
  0.478294081386E+00
  0.479624888882E+00
  0.478731407029E+00
  0.478733632526E+00
  0.478732189786E+00
  0.478732113965E+00
  0.478732123440E+00
  0.478732267437E+00
  0.478732268233E+00
  0.478732309303E+00
  0.478732314279E+00
  0.478732156632E+00
  0.478732181115E+00
  0.478732189612E+00
  0.478732116994E+00
  0.478732284422E+00
  0.478732374705E+00
  0.478732141953E+00
  0.478732045848E+00
  0.478732287663E+00
  0.478732363317E+00
  0.478732127643E+00
  0.478732025207E+00
  0.478732753278E+00
  0.478733464212E+00
  0.478733464117E+00
  0.478732753055E+00
  0.478732025209E+00
  0.478732127712E+00
  0.478732363498E+00
  0.478732287701E+00
  0.478732045729E+00
  0.478732141960E+00
  0.478732374460E+00
  0.478732284228E+00
  0.478732116811E+00
  0.478732189564E+00
  0.478732180986E+00
  0.478732156337E+00
  0.478732314195E+00
  0.478732309754E+00
  0.478732267799E+00
  0.478732267059E+00
  0.478732123640E+00
  0.478732113711E+00
  0.478732189426E+00
  0.478733633114E+00
  0.478731407442E+00
  0.479624899109E+00
  0.478294081523E+00
  0.444730039652E+00
 -0.143318391290E+00
 -0.775247861528E-01
 -0.225642448483E+00
 -0.210835120135E+00
 -0.213736284354E+00
 -0.228361529258E+00
 -0.115861526514E+00
 -0.160755110396E+00
 -0.982947965198E-01
 -0.113165986104E+00
 -0.888439656156E-01
 -0.986093368831E-01
 -0.808911082568E-01
 -0.934152918546E-01
 -0.782993592070E-01
 -0.835566189594E-01
 -0.767134636841E-01
 -0.826489652513E-01
 -0.742090203242E-01
 -0.798068394793E-01
 -0.730748892518E-01
 -0.786386073483E-01
 -0.724866020658E-01
 -0.775833786563E-01
 -0.722024110500E-01
 -0.764186811339E-01
 -0.827724294908E-01
 -0.765407205950E-01
 -0.842080041256E-01
 -0.777173186757E-01
 -0.857170541037E-01
 -0.787908736331E-01
 -0.875553537374E-01
 -0.799857867457E-01
 -0.920294975886E-01
 -0.828799594497E-01
 -0.979626268582E-01
 -0.839254031782E-01