# vtk DataFile Version 3.0
TriPan results file. Generated by TriPan, USU AeroLab (c) 2021.
ASCII
DATASET POLYDATA
POINTS                 144 float
  0.000000000000E+00  0.000000000000E+00  0.000000000000E+00
  0.113538098335E+01  0.000000000000E+00 -0.658124566078E+00
  0.113538098335E+01  0.000000000000E+00  0.658124566078E+00
  0.192375373840E+01  0.192375373840E+01  0.000000000000E+00
  0.305913543701E+01  0.192375373840E+01 -0.658124983311E+00
  0.305913543701E+01  0.192375373840E+01  0.658124983311E+00
  0.423028087616E+01  0.000000000000E+00 -0.108747220039E+01
  0.423028087616E+01  0.000000000000E+00  0.108747220039E+01
  0.547033166885E+01  0.547033166885E+01  0.000000000000E+00
  0.615403699875E+01  0.192375373840E+01 -0.108747279644E+01
  0.615403699875E+01  0.192375373840E+01  0.108747279644E+01
  0.660571479797E+01  0.547033166885E+01 -0.658125698566E+00
  0.660571479797E+01  0.547033166885E+01  0.658125698566E+00
  0.939508819580E+01  0.000000000000E+00 -0.980745851994E+00
  0.939508819580E+01  0.000000000000E+00  0.980745851994E+00
  0.970061969757E+01  0.547033166885E+01 -0.108747410774E+01
  0.970061969757E+01  0.547033166885E+01  0.108747410774E+01
  0.113188476562E+02  0.192375373840E+01 -0.980746448040E+00
  0.113188476562E+02  0.192375373840E+01  0.980746448040E+00
  0.113820018768E+02  0.113820018768E+02  0.000000000000E+00
  0.125173873901E+02  0.113820018768E+02 -0.658127009869E+00
  0.125173873901E+02  0.113820018768E+02  0.658127009869E+00
  0.145402030945E+02  0.000000000000E+00 -0.479613035917E+00
  0.145402030945E+02  0.000000000000E+00  0.479613035917E+00
  0.148654365540E+02  0.547033166885E+01 -0.980747580528E+00
  0.148654365540E+02  0.547033166885E+01  0.980747580528E+00
  0.156122989655E+02  0.113820018768E+02 -0.108747613430E+01
  0.156122989655E+02  0.113820018768E+02  0.108747613430E+01
  0.164639663696E+02  0.192375373840E+01 -0.479613333941E+00
  0.164639663696E+02  0.192375373840E+01  0.479613333941E+00
  0.176505107880E+02  0.000000000000E+00 -0.144198849797E+00
  0.176505107880E+02  0.000000000000E+00  0.144198849797E+00
  0.190000000000E+02  0.000000000000E+00  0.000000000000E+00
  0.195742740631E+02  0.192375373840E+01 -0.144198939204E+00
  0.195742740631E+02  0.192375373840E+01  0.144198939204E+00
  0.197561950684E+02  0.197561950684E+02  0.000000000000E+00
  0.200105609894E+02  0.547033166885E+01 -0.479613870382E+00
  0.200105609894E+02  0.547033166885E+01  0.479613870382E+00
  0.207771244049E+02  0.113820018768E+02 -0.980749428272E+00
  0.207771244049E+02  0.113820018768E+02  0.980749428272E+00
  0.208915824890E+02  0.197561950684E+02 -0.658128738403E+00
  0.208915824890E+02  0.197561950684E+02  0.658128738403E+00
  0.209237651825E+02  0.192375373840E+01  0.000000000000E+00
  0.231208724976E+02  0.547033166885E+01 -0.144199103117E+00
  0.231208724976E+02  0.547033166885E+01  0.144199103117E+00
  0.239865016937E+02  0.197561950684E+02 -0.108747911453E+01
  0.239865016937E+02  0.197561950684E+02  0.108747911453E+01
  0.244703655243E+02  0.547033166885E+01  0.000000000000E+00
  0.259222583771E+02  0.113820018768E+02 -0.479614794254E+00
  0.259222583771E+02  0.113820018768E+02  0.479614794254E+00
  0.290325775146E+02  0.113820018768E+02 -0.144199386239E+00
  0.290325775146E+02  0.113820018768E+02  0.144199386239E+00
  0.291513423920E+02  0.197561950684E+02 -0.980752110481E+00
  0.291513423920E+02  0.197561950684E+02  0.980752110481E+00
  0.292438049316E+02  0.292438049316E+02  0.000000000000E+00
  0.303791980743E+02  0.292438049316E+02 -0.658130764961E+00
  0.303791980743E+02  0.292438049316E+02  0.658130764961E+00
  0.303820724487E+02  0.113820018768E+02  0.000000000000E+00
  0.334741249084E+02  0.292438049316E+02 -0.108748245239E+01
  0.334741249084E+02  0.292438049316E+02  0.108748245239E+01
  0.342964897156E+02  0.197561950684E+02 -0.479616105556E+00
  0.342964897156E+02  0.197561950684E+02  0.479616105556E+00
  0.374068183899E+02  0.197561950684E+02 -0.144199773669E+00
  0.374068183899E+02  0.197561950684E+02  0.144199773669E+00
  0.376179962158E+02  0.376179962158E+02  0.000000000000E+00
  0.386389808655E+02  0.292438049316E+02 -0.980755090714E+00
  0.386389808655E+02  0.292438049316E+02  0.980755090714E+00
  0.387533912659E+02  0.376179962158E+02 -0.658132553101E+00
  0.387533912659E+02  0.376179962158E+02  0.658132553101E+00
  0.387563171387E+02  0.197561950684E+02  0.000000000000E+00
  0.418483314514E+02  0.376179962158E+02 -0.108748543262E+01
  0.418483314514E+02  0.376179962158E+02  0.108748543262E+01
  0.435296669006E+02  0.435296669006E+02  0.000000000000E+00
  0.437841453552E+02  0.292438049316E+02 -0.479617565870E+00
  0.437841453552E+02  0.292438049316E+02  0.479617565870E+00
  0.446650657654E+02  0.435296669006E+02 -0.658133804798E+00
  0.446650657654E+02  0.435296669006E+02  0.658133804798E+00
  0.468944816589E+02  0.292438049316E+02 -0.144200220704E+00
  0.468944816589E+02  0.292438049316E+02  0.144200220704E+00
  0.470131988525E+02  0.376179962158E+02 -0.980757772923E+00
  0.470131988525E+02  0.376179962158E+02  0.980757772923E+00
  0.470762481689E+02  0.470762481689E+02  0.000000000000E+00
  0.477600097656E+02  0.435296669006E+02 -0.108748745918E+01
  0.477600097656E+02  0.435296669006E+02  0.108748745918E+01
  0.482116432190E+02  0.470762481689E+02 -0.658134579659E+00
  0.482116432190E+02  0.470762481689E+02  0.658134579659E+00
  0.482439842224E+02  0.292438049316E+02  0.000000000000E+00
  0.490000000000E+02  0.490000000000E+02  0.000000000000E+00
  0.501353988647E+02  0.490000000000E+02 -0.658134996891E+00
  0.501353988647E+02  0.490000000000E+02  0.658134996891E+00
  0.506007728577E+02  0.494653701782E+02 -0.465371757746E+00
  0.506007728577E+02  0.494653701782E+02  0.465371757746E+00
  0.507935333252E+02  0.496581344604E+02 -0.771266485397E-15
  0.513065910339E+02  0.470762481689E+02 -0.108748877048E+01
  0.513065910339E+02  0.470762481689E+02  0.108748877048E+01
  0.521583786011E+02  0.376179962158E+02 -0.479618877172E+00
  0.521583786011E+02  0.376179962158E+02  0.479618877172E+00
  0.529248886108E+02  0.435296669006E+02 -0.980759620667E+00
  0.529248886108E+02  0.435296669006E+02  0.980759620667E+00
  0.532303466797E+02  0.490000000000E+02 -0.108748936653E+01
  0.532303466797E+02  0.490000000000E+02  0.108748936653E+01
  0.539993209839E+02  0.497689704895E+02 -0.768971264362E+00
  0.539993209839E+02  0.497689704895E+02  0.768971264362E+00
  0.543178405762E+02  0.500874900818E+02 -0.157378642191E-15
  0.552687225342E+02  0.376179962158E+02 -0.144200608134E+00
  0.552687225342E+02  0.376179962158E+02  0.144200608134E+00
  0.564714775085E+02  0.470762481689E+02 -0.980760753155E+00
  0.564714775085E+02  0.470762481689E+02  0.980760753155E+00
  0.566182289124E+02  0.376179962158E+02  0.000000000000E+00
  0.580700759888E+02  0.435296669006E+02 -0.479619771242E+00
  0.580700759888E+02  0.435296669006E+02  0.479619771242E+00
  0.583952369690E+02  0.490000000000E+02 -0.980761349201E+00
  0.583952369690E+02  0.490000000000E+02  0.980761349201E+00
  0.590887413025E+02  0.496935043335E+02 -0.693503141403E+00
  0.590887413025E+02  0.496935043335E+02  0.693503141403E+00
  0.593759994507E+02  0.499807624817E+02  0.000000000000E+00
  0.611804275513E+02  0.435296669006E+02 -0.144200876355E+00
  0.611804275513E+02  0.435296669006E+02  0.144200876355E+00
  0.616166725159E+02  0.470762481689E+02 -0.479620337486E+00
  0.616166725159E+02  0.470762481689E+02  0.479620337486E+00
  0.625299339294E+02  0.435296669006E+02  0.000000000000E+00
  0.635404319763E+02  0.490000000000E+02 -0.479620635509E+00
  0.635404319763E+02  0.490000000000E+02  0.479620635509E+00
  0.638795776367E+02  0.493391418457E+02 -0.339143037796E+00
  0.638795776367E+02  0.493391418457E+02  0.339143037796E+00
  0.640200576782E+02  0.494796218872E+02  0.296956834055E-15
  0.647270278931E+02  0.470762481689E+02 -0.144201040268E+00
  0.647270278931E+02  0.470762481689E+02  0.144201040268E+00
  0.660765380859E+02  0.470762481689E+02  0.000000000000E+00
  0.666507873535E+02  0.490000000000E+02 -0.144201144576E+00
  0.666507873535E+02  0.490000000000E+02  0.144201144576E+00
  0.667527542114E+02  0.491019668579E+02 -0.101965606213E+00
  0.667527542114E+02  0.491019668579E+02  0.101965606213E+00
  0.667949905396E+02  0.491441993713E+02 -0.260488604752E-16
  0.680002975464E+02  0.490000000000E+02  0.000000000000E+00
  0.209237651825E+02  0.192375373840E+01  0.000000000000E+00
  0.190000000000E+02  0.000000000000E+00  0.000000000000E+00
  0.244703655243E+02  0.547033166885E+01  0.000000000000E+00
  0.303820724487E+02  0.113820018768E+02  0.000000000000E+00
  0.387563171387E+02  0.197561950684E+02  0.000000000000E+00
  0.482439842224E+02  0.292438049316E+02  0.000000000000E+00
  0.566182289124E+02  0.376179962158E+02  0.000000000000E+00
  0.625299339294E+02  0.435296669006E+02  0.000000000000E+00
  0.660765380859E+02  0.470762481689E+02  0.000000000000E+00
POLYGONS                 256                1024
3                  32                  33                  42
3                  32                  30                  33
3                  30                  28                  33
3                  30                  22                  28
3                  22                  17                  28
3                  22                  13                  17
3                  13                   6                  17
3                  17                   6                   9
3                   6                   1                   9
3                   9                   1                   4
3                   1                   0                   4
3                   4                   0                   3
3                   0                   5                   3
3                   0                   2                   5
3                   2                  10                   5
3                   2                   7                  10
[...]
CELL_DATA                 256
SCALARS sigma float 1
LOOKUP_TABLE default
  0.000000000000E+00
  0.000000000000E+00
  0.000000000000E+00
  0.000000000000E+00
  0.000000000000E+00
  0.000000000000E+00
  0.000000000000E+00
  0.000000000000E+00
  0.000000000000E+00
  0.000000000000E+00
  0.000000000000E+00
  0.000000000000E+00
  0.000000000000E+00
  0.000000000000E+00
  0.000000000000E+00
  0.000000000000E+00
  0.000000000000E+00
  0.000000000000E+00
  0.000000000000E+00
  0.000000000000E+00
  0.000000000000E+00
  0.000000000000E+00
  0.000000000000E+00
  0.000000000000E+00
  0.000000000000E+00
  0.000000000000E+00
  0.000000000000E+00
  0.000000000000E+00
  0.000000000000E+00
  0.000000000000E+00
  0.000000000000E+00
  0.000000000000E+00
  0.000000000000E+00
  0.000000000000E+00
  0.000000000000E+00
  0.000000000000E+00
  0.000000000000E+00
  0.000000000000E+00
  0.000000000000E+00
  0.000000000000E+00
  0.000000000000E+00
  0.000000000000E+00
  0.000000000000E+00
  0.000000000000E+00
  0.000000000000E+00
  0.000000000000E+00
  0.000000000000E+00
  0.000000000000E+00
  0.000000000000E+00
  0.000000000000E+00
  0.000000000000E+00
  0.000000000000E+00
  0.000000000000E+00
  0.000000000000E+00
  0.000000000000E+00
  0.000000000000E+00
  0.000000000000E+00
  0.000000000000E+00
  0.000000000000E+00
  0.000000000000E+00
  0.000000000000E+00
  0.000000000000E+00
  0.000000000000E+00
  0.000000000000E+00
  0.000000000000E+00
  0.000000000000E+00
  0.000000000000E+00
  0.000000000000E+00
  0.000000000000E+00
  0.000000000000E+00
  0.000000000000E+00
  0.000000000000E+00
  0.000000000000E+00
  0.000000000000E+00
  0.000000000000E+00
  0.000000000000E+00
  0.000000000000E+00
  0.000000000000E+00
  0.000000000000E+00
  0.000000000000E+00
  0.000000000000E+00
  0.000000000000E+00
  0.000000000000E+00
  0.000000000000E+00
  0.000000000000E+00
  0.000000000000E+00
  0.000000000000E+00
  0.000000000000E+00
  0.000000000000E+00
  0.000000000000E+00
  0.000000000000E+00
  0.000000000000E+00
  0.000000000000E+00
  0.000000000000E+00
  0.000000000000E+00
  0.000000000000E+00
  0.000000000000E+00
  0.000000000000E+00
  0.000000000000E+00
  0.000000000000E+00
  0.000000000000E+00
  0.000000000000E+00
  0.000000000000E+00
  0.000000000000E+00
  0.000000000000E+00
  0.000000000000E+00
  0.000000000000E+00
  0.000000000000E+00
  0.000000000000E+00
  0.000000000000E+00
  0.000000000000E+00
  0.000000000000E+00
  0.000000000000E+00
  0.000000000000E+00
  0.000000000000E+00
  0.000000000000E+00
  0.000000000000E+00
  0.000000000000E+00
  0.000000000000E+00
  0.000000000000E+00
  0.000000000000E+00
  0.000000000000E+00
  0.000000000000E+00
  0.000000000000E+00
  0.000000000000E+00
  0.000000000000E+00
  0.000000000000E+00
  0.000000000000E+00
  0.000000000000E+00
  0.000000000000E+00
  0.000000000000E+00
  0.000000000000E+00
  0.000000000000E+00
  0.000000000000E+00
  0.000000000000E+00
  0.000000000000E+00
  0.000000000000E+00
  0.000000000000E+00
  0.000000000000E+00
  0.000000000000E+00
  0.000000000000E+00
  0.000000000000E+00
  0.000000000000E+00
  0.000000000000E+00
  0.000000000000E+00
  0.000000000000E+00
  0.000000000000E+00
  0.000000000000E+00
  0.000000000000E+00
  0.000000000000E+00
  0.000000000000E+00
  0.000000000000E+00
  0.000000000000E+00
  0.000000000000E+00
  0.000000000000E+00
  0.000000000000E+00
  0.000000000000E+00
  0.000000000000E+00
  0.000000000000E+00
  0.000000000000E+00
  0.000000000000E+00
  0.000000000000E+00
  0.000000000000E+00
  0.000000000000E+00
  0.000000000000E+00
  0.000000000000E+00
  0.000000000000E+00
  0.000000000000E+00
  0.000000000000E+00
  0.000000000000E+00
  0.000000000000E+00
  0.000000000000E+00
  0.000000000000E+00
  0.000000000000E+00
  0.000000000000E+00
  0.000000000000E+00
  0.000000000000E+00
  0.000000000000E+00
  0.000000000000E+00
  0.000000000000E+00
  0.000000000000E+00
  0.000000000000E+00
  0.000000000000E+00
  0.000000000000E+00
  0.000000000000E+00
  0.000000000000E+00
  0.000000000000E+00
  0.000000000000E+00
  0.000000000000E+00
  0.000000000000E+00
  0.000000000000E+00
  0.000000000000E+00
  0.000000000000E+00
  0.000000000000E+00
  0.000000000000E+00
  0.000000000000E+00
  0.000000000000E+00
  0.000000000000E+00
  0.000000000000E+00
  0.000000000000E+00
  0.000000000000E+00
  0.000000000000E+00
  0.000000000000E+00
  0.000000000000E+00
  0.000000000000E+00
  0.000000000000E+00
  0.000000000000E+00
  0.000000000000E+00
  0.000000000000E+00
  0.000000000000E+00
  0.000000000000E+00
  0.000000000000E+00
  0.000000000000E+00
  0.000000000000E+00
  0.000000000000E+00
  0.000000000000E+00
  0.000000000000E+00
  0.000000000000E+00
  0.000000000000E+00
  0.000000000000E+00
  0.000000000000E+00
  0.000000000000E+00
  0.000000000000E+00
  0.000000000000E+00
  0.000000000000E+00
  0.000000000000E+00
  0.000000000000E+00
  0.000000000000E+00
  0.000000000000E+00
  0.000000000000E+00
  0.000000000000E+00
  0.000000000000E+00
  0.000000000000E+00
  0.000000000000E+00
  0.000000000000E+00
  0.000000000000E+00
  0.000000000000E+00
  0.000000000000E+00
  0.000000000000E+00
  0.000000000000E+00
  0.000000000000E+00
  0.000000000000E+00
  0.000000000000E+00
  0.000000000000E+00
  0.000000000000E+00
  0.000000000000E+00
  0.000000000000E+00
  0.000000000000E+00
  0.000000000000E+00
  0.000000000000E+00
  0.000000000000E+00
  0.000000000000E+00
  0.000000000000E+00
  0.000000000000E+00
  0.000000000000E+00
  0.000000000000E+00
SCALARS C_p_inc float 1
LOOKUP_TABLE default
  0.995933722960E-01
  0.437622587668E-01
 -0.176991187024E-01
 -0.661475098435E-01
 -0.144319385376E+00
 -0.180943243738E+00
 -0.222644164879E+00
 -0.231691573466E+00
 -0.945424554753E-01
 -0.220126196769E+00
  0.368026571479E+00
  0.239472779031E+00
  0.239472279368E+00
  0.368026332783E+00
 -0.220126719071E+00
 -0.945428355876E-01
 -0.231692135202E+00
 -0.222644651265E+00
 -0.180943936089E+00
 -0.144320183241E+00
 -0.661487242267E-01
 -0.177004727765E-01
  0.437578322647E-01
  0.995920676739E-01
  0.106264950105E+00
  0.974236692951E-01
  0.753241093178E-02
 -0.176514234144E-01
 -0.113445020078E+00
 -0.144371953536E+00
 -0.236138844140E+00
 -0.236962401688E+00
 -0.212153279048E+00
 -0.263038716686E+00
  0.199683163285E+00
  0.161941380955E+00
  0.161940660094E+00
  0.199682692545E+00
 -0.263039439379E+00
 -0.212153785053E+00
 -0.236963105457E+00
 -0.236139405557E+00
 -0.144372763431E+00
 -0.113445904095E+00
 -0.176527695277E-01
  0.753109131077E-02
  0.974223384080E-01
  0.106262082523E+00
  0.109882042500E+00
  0.105758904068E+00
  0.150990315805E-01
  0.744259360048E-02
 -0.989270022025E-01
 -0.113495453285E+00
 -0.240845049303E+00
 -0.228141831581E+00
 -0.262947019600E+00
 -0.271533656278E+00
  0.158284078256E+00
  0.148794059087E+00
  0.148793024338E+00
  0.158283346246E+00
 -0.271534627618E+00
 -0.262947734871E+00
 -0.228142664474E+00
 -0.240845757755E+00
 -0.113496347361E+00
 -0.989278470891E-01
  0.744128085315E-02
  0.150982022037E-01
  0.105756117875E+00
  0.109881577553E+00
  0.111836519494E+00
  0.109781186113E+00
  0.179705070547E-01
  0.150755477875E-01
 -0.946804708200E-01
 -0.989275101040E-01
 -0.230132088768E+00
 -0.224216332371E+00
 -0.272995928367E+00
 -0.268626781874E+00
  0.150612758298E+00
  0.151895264389E+00
  0.151893889569E+00
  0.150611705778E+00
 -0.268628035698E+00
 -0.272996897881E+00
 -0.224217392129E+00
 -0.230132919629E+00
 -0.989283542477E-01
 -0.946817049469E-01
  0.150747115843E-01
  0.179685510715E-01
  0.109780623864E+00
  0.111832966115E+00
  0.114326809386E+00
  0.111735432546E+00
  0.203994787548E-01
  0.179380342455E-01
 -0.928227751844E-01
 -0.946115992965E-01
 -0.224565679058E+00
 -0.223018214646E+00
 -0.269063775840E+00
 -0.267467209539E+00
  0.152627258158E+00
  0.153462374709E+00
  0.153460633087E+00
  0.152625868396E+00
 -0.267468820182E+00
 -0.269065021797E+00
 -0.223019720275E+00
 -0.224566719236E+00
 -0.946128377930E-01
 -0.928250736125E-01
  0.179360795307E-01
  0.203945931271E-01
  0.111731852693E+00
  0.114313927747E+00
  0.127417282461E+00
  0.114014058827E+00
  0.297345225215E-01
  0.202471774523E-01
 -0.907642588036E-01
 -0.925403991802E-01
 -0.222398777518E+00
 -0.224761013946E+00
 -0.266965665366E+00
 -0.269586052802E+00
  0.152754059523E+00
  0.151652292641E+00
  0.151650651527E+00
  0.152752324948E+00
 -0.269587401512E+00
 -0.266967290762E+00
 -0.224761822096E+00
 -0.222400340466E+00
 -0.925427389722E-01
 -0.907640896898E-01
  0.202423861283E-01
  0.297376550018E-01
  0.114001786351E+00
  0.127428103649E+00
  0.261316134749E+00
  0.124380468089E+00
  0.434203205671E-01
  0.282854720418E-01
 -0.967042444398E-01
 -0.899543384503E-01
 -0.221883450249E+00
 -0.238055517097E+00
 -0.267402295271E+00
 -0.282681078458E+00
  0.148680086420E+00
  0.143029595837E+00
  0.143028521330E+00
  0.148678489731E+00
 -0.282681704968E+00
 -0.267403675573E+00
 -0.238055370648E+00
 -0.221884334853E+00
 -0.899541292695E-01
 -0.967029093287E-01
  0.282885153777E-01
  0.434234769003E-01
  0.124390587268E+00
  0.261321998484E+00
 -0.227064791156E+02
 -0.185374234800E+00
  0.737854419737E+00
 -0.362988855463E-01
 -0.403059324017E+00
 -0.968440673666E-01
 -0.231575642397E+00
 -0.259333873533E+00
 -0.276839949704E+00
 -0.314603295989E+00
  0.134420935833E+00
  0.119221040905E+00
  0.119220384470E+00
  0.134419926320E+00
 -0.314603516561E+00
 -0.276840576940E+00
 -0.259333469448E+00
 -0.231575494947E+00
 -0.968427271393E-01
 -0.403058307270E+00
 -0.362965369949E-01
  0.737852955717E+00
 -0.185360523210E+00
 -0.227064641052E+02
 -0.412623270179E+08
 -0.214851667659E+05
 -0.120797612586E+05
  0.916211830285E+00
 -0.224248961248E+00
 -0.396541609940E+00
 -0.255481774822E+00
 -0.312522741831E+00
 -0.306945156143E+00
 -0.269319010649E+00
  0.801195848355E-01
  0.376533444527E-01
  0.376529387750E-01
  0.801190427159E-01
 -0.269319048770E+00
 -0.306945365494E+00
 -0.312522436781E+00
 -0.255481367616E+00
 -0.396540525956E+00
 -0.224247267499E+00
  0.916211389606E+00
 -0.120797614616E+05
 -0.214851673078E+05
 -0.412623270163E+08
 -0.859339844836E+08
 -0.486745018963E+06
 -0.183313430912E+05
 -0.317795295167E+02
  0.226409884042E+00
 -0.325988908795E+00
 -0.370571064698E+00
 -0.271810977083E+00
 -0.242531769875E+00
 -0.910507913171E-01
 -0.910509820138E-01
 -0.242531747964E+00
 -0.271810991005E+00
 -0.370570898346E+00
 -0.325988665532E+00
  0.226409746516E+00
 -0.317795123396E+02
 -0.183313428290E+05
 -0.486745023528E+06
 -0.859339845178E+08
 -0.587311630800E+08
 -0.582024818813E+06
 -0.219038419581E+05
 -0.491761946862E+02
  0.724167234282E+00
 -0.376436232207E+00
 -0.411885197885E+00
 -0.244653471978E+00
 -0.235679553600E+00
 -0.134953802131E+00
 -0.134953868744E+00
 -0.235679575280E+00
 -0.244653441733E+00
 -0.411885207142E+00
 -0.376436102822E+00
  0.724166932682E+00
 -0.491761706629E+02
 -0.219038417485E+05
 -0.582024824995E+06
 -0.587311631059E+08
SCALARS inclination float 1
LOOKUP_TABLE default
  0.100000000000E+01
  0.100000000000E+01
  0.100000000000E+01
  0.100000000000E+01
  0.100000000000E+01
  0.100000000000E+01
  0.100000000000E+01
  0.100000000000E+01
  0.100000000000E+01
  0.100000000000E+01
  0.100000000000E+01
  0.100000000000E+01
  0.100000000000E+01
  0.100000000000E+01
  0.100000000000E+01
  0.100000000000E+01
  0.100000000000E+01
  0.100000000000E+01
  0.100000000000E+01
  0.100000000000E+01
  0.100000000000E+01
  0.100000000000E+01
  0.100000000000E+01
  0.100000000000E+01
  0.100000000000E+01
  0.100000000000E+01
  0.100000000000E+01
  0.100000000000E+01
  0.100000000000E+01
  0.100000000000E+01
  0.100000000000E+01
  0.100000000000E+01
  0.100000000000E+01
  0.100000000000E+01
  0.100000000000E+01
  0.100000000000E+01
  0.100000000000E+01
  0.100000000000E+01
  0.100000000000E+01
  0.100000000000E+01
  0.100000000000E+01
  0.100000000000E+01
  0.100000000000E+01
  0.100000000000E+01
  0.100000000000E+01
  0.100000000000E+01
  0.100000000000E+01
  0.100000000000E+01
  0.100000000000E+01
  0.100000000000E+01
  0.100000000000E+01
  0.100000000000E+01
  0.100000000000E+01
  0.100000000000E+01
  0.100000000000E+01
  0.100000000000E+01
  0.100000000000E+01
  0.100000000000E+01
  0.100000000000E+01
  0.100000000000E+01
  0.100000000000E+01
  0.100000000000E+01
  0.100000000000E+01
  0.100000000000E+01
  0.100000000000E+01
  0.100000000000E+01
  0.100000000000E+01
  0.100000000000E+01
  0.100000000000E+01
  0.100000000000E+01
  0.100000000000E+01
  0.100000000000E+01
  0.100000000000E+01
  0.100000000000E+01
  0.100000000000E+01
  0.100000000000E+01
  0.100000000000E+01
  0.100000000000E+01
  0.100000000000E+01
  0.100000000000E+01
  0.100000000000E+01
  0.100000000000E+01
  0.100000000000E+01
  0.100000000000E+01
  0.100000000000E+01
  0.100000000000E+01
  0.100000000000E+01
  0.100000000000E+01
  0.100000000000E+01
  0.100000000000E+01
  0.100000000000E+01
  0.100000000000E+01
  0.100000000000E+01
  0.100000000000E+01
  0.100000000000E+01
  0.100000000000E+01
  0.100000000000E+01
  0.100000000000E+01
  0.100000000000E+01
  0.100000000000E+01
  0.100000000000E+01
  0.100000000000E+01
  0.100000000000E+01
  0.100000000000E+01
  0.100000000000E+01
  0.100000000000E+01
  0.100000000000E+01
  0.100000000000E+01
  0.100000000000E+01
  0.100000000000E+01
  0.100000000000E+01
  0.100000000000E+01
  0.100000000000E+01
  0.100000000000E+01
  0.100000000000E+01
  0.100000000000E+01
  0.100000000000E+01
  0.100000000000E+01
  0.100000000000E+01
  0.100000000000E+01
  0.100000000000E+01
  0.100000000000E+01
  0.100000000000E+01
  0.100000000000E+01
  0.100000000000E+01
  0.100000000000E+01
  0.100000000000E+01
  0.100000000000E+01
  0.100000000000E+01
  0.100000000000E+01
  0.100000000000E+01
  0.100000000000E+01
  0.100000000000E+01
  0.100000000000E+01
  0.100000000000E+01
  0.100000000000E+01
  0.100000000000E+01
  0.100000000000E+01
  0.100000000000E+01
  0.100000000000E+01
  0.100000000000E+01
  0.100000000000E+01
  0.100000000000E+01
  0.100000000000E+01
  0.100000000000E+01
  0.100000000000E+01
  0.100000000000E+01
  0.100000000000E+01
  0.100000000000E+01
  0.100000000000E+01
  0.100000000000E+01
  0.100000000000E+01
  0.100000000000E+01
  0.100000000000E+01
  0.100000000000E+01
  0.100000000000E+01
  0.100000000000E+01
  0.100000000000E+01
  0.100000000000E+01
  0.100000000000E+01
  0.100000000000E+01
  0.100000000000E+01
  0.100000000000E+01
  0.100000000000E+01
  0.100000000000E+01
  0.100000000000E+01
  0.100000000000E+01
  0.100000000000E+01
  0.100000000000E+01
  0.100000000000E+01
  0.100000000000E+01
  0.100000000000E+01
  0.100000000000E+01
  0.100000000000E+01
  0.100000000000E+01
  0.100000000000E+01
  0.100000000000E+01
  0.100000000000E+01
  0.100000000000E+01
  0.100000000000E+01
  0.100000000000E+01
  0.100000000000E+01
  0.100000000000E+01
  0.100000000000E+01
  0.100000000000E+01
  0.100000000000E+01
  0.100000000000E+01
  0.100000000000E+01
  0.100000000000E+01
  0.100000000000E+01
  0.100000000000E+01
  0.100000000000E+01
  0.100000000000E+01
  0.100000000000E+01
  0.100000000000E+01
  0.100000000000E+01
  0.100000000000E+01
  0.100000000000E+01
  0.100000000000E+01
  0.100000000000E+01
  0.100000000000E+01
  0.100000000000E+01
  0.100000000000E+01
  0.100000000000E+01
  0.100000000000E+01
  0.100000000000E+01
  0.100000000000E+01
  0.100000000000E+01
  0.100000000000E+01
  0.100000000000E+01
  0.100000000000E+01
  0.100000000000E+01
  0.100000000000E+01
  0.100000000000E+01
  0.100000000000E+01
  0.100000000000E+01
  0.100000000000E+01
  0.100000000000E+01
  0.100000000000E+01
  0.100000000000E+01
  0.100000000000E+01
  0.100000000000E+01
  0.100000000000E+01
  0.100000000000E+01
  0.100000000000E+01
  0.100000000000E+01
  0.100000000000E+01
  0.100000000000E+01
  0.100000000000E+01
  0.100000000000E+01
  0.100000000000E+01
  0.100000000000E+01
  0.100000000000E+01
  0.100000000000E+01
  0.100000000000E+01
  0.100000000000E+01
  0.100000000000E+01
  0.100000000000E+01
  0.100000000000E+01
  0.100000000000E+01
  0.100000000000E+01
  0.100000000000E+01
  0.100000000000E+01
  0.100000000000E+01
  0.100000000000E+01
  0.100000000000E+01
  0.100000000000E+01
  0.100000000000E+01
  0.100000000000E+01
  0.100000000000E+01
  0.100000000000E+01
  0.100000000000E+01
  0.100000000000E+01
  0.100000000000E+01
  0.100000000000E+01
  0.100000000000E+01
VECTORS v float
  0.153774458603E+03  0.478042062347E+01  0.159206517292E+02
  0.158492933726E+03  0.342055887219E+01  0.165701624220E+02
  0.163463107724E+03 -0.154963970724E+01  0.177949126126E+02
  0.167342260970E+03  0.870400255949E+00  0.179522501658E+02
  0.173417553074E+03 -0.520492205191E+01  0.173977821064E+02
  0.176295181598E+03 -0.434317983057E+00  0.172134062878E+02
  0.180143194747E+03 -0.428234673033E+01  0.381099847234E+01
  0.180742066175E+03 -0.649226284942E+01  0.386903776445E+01
  0.168930262016E+03  0.531954771774E+01 -0.226973013135E+02
  0.177187843358E+03 -0.171748162652E+02 -0.269634340258E+02
  0.114543955786E+03  0.454690917617E+02 -0.400393045596E+02
  0.126383880826E+03  0.190556660531E+02 -0.622128924948E+02
  0.126383917815E+03  0.190556290639E+02  0.622129353764E+02
  0.114543980277E+03  0.454690826546E+02  0.400393240348E+02
  0.177187879327E+03 -0.171748368512E+02  0.269634418716E+02
  0.168930291394E+03  0.531954508878E+01  0.226973057538E+02
  0.180742106935E+03 -0.649227686057E+01 -0.386903889625E+01
  0.180143230691E+03 -0.428234296767E+01 -0.381099913732E+01
  0.176295233138E+03 -0.434329816375E+00 -0.172134124603E+02
  0.173417613732E+03 -0.520491876866E+01 -0.173977876946E+02
  0.167342356075E+03  0.870369091383E+00 -0.179522637828E+02
  0.163463216010E+03 -0.154966264874E+01 -0.177949267642E+02
  0.158493303574E+03  0.342027436750E+01 -0.165702323426E+02
  0.153774574259E+03  0.478020937686E+01 -0.159206866603E+02
  0.153040791812E+03  0.941430630202E+01  0.153470980629E+02
  0.153821373331E+03  0.893620415510E+01  0.154815985034E+02
  0.161458594016E+03  0.129893939961E+01  0.172715531648E+02
  0.163493242170E+03  0.107171321674E+01  0.175154749944E+02
  0.171005636922E+03 -0.644071692176E+01  0.172832301669E+02
  0.173416319504E+03 -0.533618719180E+01  0.174104471363E+02
  0.180739433867E+03 -0.126593284839E+02  0.399642312484E+01
  0.180790960286E+03 -0.127860028330E+02  0.400010762189E+01
  0.177335949529E+03 -0.933099848464E+01 -0.258958286793E+02
  0.180502836792E+03 -0.154168514270E+02 -0.271794456497E+02
  0.130331937992E+03  0.347540619176E+02 -0.554017973916E+02
  0.133334671485E+03  0.299503614519E+02 -0.599267943271E+02
  0.133334726885E+03  0.299503060521E+02  0.599268585521E+02
  0.130331976961E+03  0.347540328027E+02  0.554018368568E+02
  0.180502884908E+03 -0.154168896884E+02  0.271794576326E+02
  0.177335985602E+03 -0.933101360309E+01  0.258958357809E+02
  0.180791009933E+03 -0.127860315262E+02 -0.400010924075E+01
  0.180739474630E+03 -0.126593353345E+02 -0.399642410874E+01
  0.173416379882E+03 -0.533621365755E+01 -0.174104555949E+02
  0.171005703822E+03 -0.644074039904E+01 -0.172832389697E+02
  0.163493349980E+03  0.107164882999E+01 -0.175154935640E+02
  0.161458701132E+03  0.129887509039E+01 -0.172715716512E+02
  0.153821490532E+03  0.893612976050E+01 -0.154816189763E+02
  0.153041046047E+03  0.941414797473E+01 -0.153471421471E+02
  0.152678108398E+03  0.103798768376E+02  0.152051762769E+02
  0.153048484665E+03  0.100957521445E+02  0.152751041949E+02
  0.160842253261E+03  0.230193774458E+01  0.170969142959E+02
  0.161466786431E+03  0.201158615845E+01  0.171955846441E+02
  0.169886663901E+03 -0.640833002692E+01  0.171710878000E+02
  0.171004676089E+03 -0.654295950822E+01  0.172930950028E+02
  0.180789448553E+03 -0.163277653057E+02  0.407326490607E+01
  0.179985178117E+03 -0.148199673422E+02  0.402548748248E+01
  0.180504304752E+03 -0.153391054661E+02 -0.271688640430E+02
  0.181035325493E+03 -0.161617673833E+02 -0.273566429306E+02
  0.133653896345E+03  0.312196737708E+02 -0.593760750322E+02
  0.134378229408E+03  0.302466988279E+02 -0.603599148051E+02