# vtk DataFile Version 3.0
TriPan results file. Generated by TriPan, USU AeroLab (c) 2021.
ASCII
DATASET POLYDATA
POINTS                7064 float
  0.000000000000E+00  0.000000000000E+00  0.000000000000E+00
  0.389988087118E-01  0.000000000000E+00 -0.109218262136E+00
  0.389988087118E-01  0.000000000000E+00  0.109218262136E+00
  0.147665724158E+00  0.000000000000E+00 -0.234920635819E+00
  0.147665724158E+00  0.000000000000E+00  0.234920635819E+00
  0.161138445139E+00  0.161138445139E+00  0.000000000000E+00
  0.200137257576E+00  0.161138445139E+00 -0.109218269587E+00
  0.200137257576E+00  0.161138445139E+00  0.109218269587E+00
  0.290265858173E+00  0.000000000000E+00 -0.347333192825E+00
  0.290265858173E+00  0.000000000000E+00  0.347333192825E+00
  0.308804154396E+00  0.161138445139E+00 -0.234920650721E+00
  0.308804154396E+00  0.161138445139E+00  0.234920650721E+00
  0.335006117821E+00  0.335006117821E+00  0.000000000000E+00
  0.374004930258E+00  0.335006117821E+00 -0.109218277037E+00
  0.374004930258E+00  0.335006117821E+00  0.109218277037E+00
  0.451404303312E+00  0.161138445139E+00 -0.347333222628E+00
  0.451404303312E+00  0.161138445139E+00  0.347333222628E+00
  0.473465979099E+00  0.000000000000E+00 -0.436293870211E+00
  0.473465979099E+00  0.000000000000E+00  0.436293870211E+00
  0.482671856880E+00  0.335006117821E+00 -0.234920650721E+00
  0.482671856880E+00  0.335006117821E+00  0.234920650721E+00
  0.522506594658E+00  0.522506594658E+00  0.000000000000E+00
  0.561505436897E+00  0.522506594658E+00 -0.109218284488E+00
  0.561505436897E+00  0.522506594658E+00  0.109218284488E+00
  0.625271975994E+00  0.335006117821E+00 -0.347333222628E+00
  0.625271975994E+00  0.335006117821E+00  0.347333222628E+00
  0.634604454041E+00  0.161138445139E+00 -0.436293900013E+00
  0.634604454041E+00  0.161138445139E+00  0.436293900013E+00
  0.670172333717E+00  0.522506594658E+00 -0.234920665622E+00
  0.670172333717E+00  0.522506594658E+00  0.234920665622E+00
  0.689334988594E+00  0.000000000000E+00 -0.522850036621E+00
  0.689334988594E+00  0.000000000000E+00  0.522850036621E+00
  0.724590361118E+00  0.724590361118E+00  0.000000000000E+00
  0.763589203358E+00  0.724590361118E+00 -0.109218291938E+00
  0.763589203358E+00  0.724590361118E+00  0.109218291938E+00
  0.808472156525E+00  0.335006117821E+00 -0.436293929815E+00
  0.808472156525E+00  0.335006117821E+00  0.436293929815E+00
  0.812772512436E+00  0.522506594658E+00 -0.347333252430E+00
  0.812772512436E+00  0.522506594658E+00  0.347333252430E+00
  0.850473463535E+00  0.161138445139E+00 -0.522850036621E+00
  0.850473463535E+00  0.161138445139E+00  0.522850036621E+00
  0.872256100178E+00  0.724590361118E+00 -0.234920680523E+00
  0.872256100178E+00  0.724590361118E+00  0.234920680523E+00
  0.942254066467E+00  0.942254066467E+00  0.000000000000E+00
  0.944064557552E+00  0.000000000000E+00 -0.604293465614E+00
  0.944064557552E+00  0.000000000000E+00  0.604293465614E+00
  0.981252849102E+00  0.942254066467E+00 -0.109218299389E+00
  0.981252849102E+00  0.942254066467E+00  0.109218299389E+00
  0.995972692966E+00  0.522506594658E+00 -0.436293959618E+00
  0.995972692966E+00  0.522506594658E+00  0.436293959618E+00
  0.101485633850E+01  0.724590361118E+00 -0.347333282232E+00
  0.101485633850E+01  0.724590361118E+00  0.347333282232E+00
  0.102434122562E+01  0.335006117821E+00 -0.522850096226E+00
  0.102434122562E+01  0.335006117821E+00  0.522850096226E+00
  0.108991980553E+01  0.942254066467E+00 -0.234920710325E+00
  0.108991980553E+01  0.942254066467E+00  0.234920710325E+00
  0.110520303249E+01  0.161138445139E+00 -0.604293525219E+00
  0.110520303249E+01  0.161138445139E+00  0.604293525219E+00
  0.117653930187E+01  0.117653930187E+01  0.000000000000E+00
  0.119805645943E+01  0.724590361118E+00 -0.436293989420E+00
  0.119805645943E+01  0.724590361118E+00  0.436293989420E+00
  0.121184170246E+01  0.522506594658E+00 -0.522850096226E+00
  0.121184170246E+01  0.522506594658E+00  0.522850096226E+00
  0.121553814411E+01  0.117653930187E+01 -0.109218306839E+00
  0.121553814411E+01  0.117653930187E+01  0.109218306839E+00
  0.123251998425E+01  0.942254066467E+00 -0.347333312035E+00
  0.123251998425E+01  0.942254066467E+00  0.347333312035E+00
  0.123833239079E+01  0.000000000000E+00 -0.683996438980E+00
  0.123833239079E+01  0.000000000000E+00  0.683996438980E+00
  0.127907073498E+01  0.335006117821E+00 -0.604293525219E+00
  0.127907073498E+01  0.335006117821E+00  0.604293525219E+00
  0.132420504093E+01  0.117653930187E+01 -0.234920725226E+00
  0.132420504093E+01  0.117653930187E+01  0.234920725226E+00
  0.139947092533E+01  0.161138445139E+00 -0.683996498585E+00
  0.139947092533E+01  0.161138445139E+00  0.683996498585E+00
  0.141392552853E+01  0.724590361118E+00 -0.522850155830E+00
  0.141392552853E+01  0.724590361118E+00  0.522850155830E+00
  0.141572022438E+01  0.942254066467E+00 -0.436294019222E+00
  0.141572022438E+01  0.942254066467E+00  0.436294019222E+00
  0.142853081226E+01  0.142853081226E+01  0.000000000000E+00
  0.146657133102E+01  0.522506594658E+00 -0.604293584824E+00
  0.146657133102E+01  0.522506594658E+00  0.604293584824E+00
  0.146680521965E+01  0.117653930187E+01 -0.347333341837E+00
  0.146680521965E+01  0.117653930187E+01  0.347333341837E+00
  0.146752965450E+01  0.142853081226E+01 -0.109218314290E+00
  0.146752965450E+01  0.142853081226E+01  0.109218314290E+00
  0.157333862782E+01  0.335006117821E+00 -0.683996558189E+00
  0.157333862782E+01  0.335006117821E+00  0.683996558189E+00
  0.157619655132E+01  0.142853081226E+01 -0.234920740128E+00
  0.157619655132E+01  0.142853081226E+01  0.234920740128E+00
  0.157641971111E+01  0.000000000000E+00 -0.760520398617E+00
  0.157641971111E+01  0.000000000000E+00  0.760520398617E+00
  0.163158929348E+01  0.942254066467E+00 -0.522850155830E+00
  0.163158929348E+01  0.942254066467E+00  0.522850155830E+00
  0.165000545979E+01  0.117653930187E+01 -0.436294049025E+00
  0.165000545979E+01  0.117653930187E+01  0.436294049025E+00
  0.166865515709E+01  0.724590361118E+00 -0.604293584824E+00
  0.166865515709E+01  0.724590361118E+00  0.604293584824E+00
  0.169935321808E+01  0.169935321808E+01  0.000000000000E+00
  0.171879673004E+01  0.142853081226E+01 -0.347333371639E+00
  0.171879673004E+01  0.142853081226E+01  0.347333371639E+00
  0.173755824566E+01  0.161138445139E+00 -0.760520458221E+00
  0.173755824566E+01  0.161138445139E+00  0.760520458221E+00
  0.173835194111E+01  0.169935321808E+01 -0.109218329191E+00
  0.173835194111E+01  0.169935321808E+01  0.109218329191E+00
  0.176083922386E+01  0.522506594658E+00 -0.683996558189E+00
  0.176083922386E+01  0.522506594658E+00  0.683996558189E+00
  0.184701895714E+01  0.169935321808E+01 -0.234920755029E+00
  0.184701895714E+01  0.169935321808E+01  0.234920755029E+00
  0.186587452888E+01  0.117653930187E+01 -0.522850215435E+00
  0.186587452888E+01  0.117653930187E+01  0.522850215435E+00
  0.188631892204E+01  0.942254066467E+00 -0.604293644428E+00
  0.188631892204E+01  0.942254066467E+00  0.604293644428E+00
  0.190199697018E+01  0.142853081226E+01 -0.436294078827E+00
  0.190199697018E+01  0.142853081226E+01  0.436294078827E+00
  0.191142594814E+01  0.335006117821E+00 -0.760520458221E+00
  0.191142594814E+01  0.335006117821E+00  0.760520458221E+00
  0.196138751507E+01  0.000000000000E+00 -0.833668828011E+00
  0.196138751507E+01  0.000000000000E+00  0.833668828011E+00
  0.196292304993E+01  0.724590361118E+00 -0.683996617794E+00
  0.196292304993E+01  0.724590361118E+00  0.683996617794E+00
  0.198961913586E+01  0.169935321808E+01 -0.347333401442E+00
  0.198961913586E+01  0.169935321808E+01  0.347333401442E+00
  0.199016737938E+01  0.199016737938E+01  0.000000000000E+00
  0.202916622162E+01  0.199016737938E+01 -0.109218336642E+00
  0.202916622162E+01  0.199016737938E+01  0.109218336642E+00
  0.209892654419E+01  0.522506594658E+00 -0.760520517826E+00
  0.209892654419E+01  0.522506594658E+00  0.760520517826E+00
  0.211786603928E+01  0.142853081226E+01 -0.522850275040E+00
  0.211786603928E+01  0.142853081226E+01  0.522850275040E+00
  0.212060427666E+01  0.117653930187E+01 -0.604293704033E+00
  0.212060427666E+01  0.117653930187E+01  0.604293704033E+00
  0.212252616882E+01  0.161138445139E+00 -0.833668828011E+00
  0.212252616882E+01  0.161138445139E+00  0.833668828011E+00
  0.213783311844E+01  0.199016737938E+01 -0.234920784831E+00
  0.213783311844E+01  0.199016737938E+01  0.234920784831E+00
  0.217281937599E+01  0.169935321808E+01 -0.436294138432E+00
  0.217281937599E+01  0.169935321808E+01  0.436294138432E+00
  0.218058681488E+01  0.942254066467E+00 -0.683996677399E+00
  0.218058681488E+01  0.942254066467E+00  0.683996677399E+00
  0.228043341637E+01  0.199016737938E+01 -0.347333431244E+00
  0.228043341637E+01  0.199016737938E+01  0.347333431244E+00
  0.229639387131E+01  0.335006117821E+00 -0.833668887615E+00
  0.229639387131E+01  0.335006117821E+00  0.833668887615E+00
  0.230101037025E+01  0.724590361118E+00 -0.760520577431E+00
  0.230101037025E+01  0.724590361118E+00  0.760520577431E+00
  0.230216526985E+01  0.230216526985E+01  0.000000000000E+00
  0.234116411209E+01  0.230216526985E+01 -0.109218344092E+00
  0.234116411209E+01  0.230216526985E+01  0.109218344092E+00
  0.237259578705E+01  0.142853081226E+01 -0.604293763638E+00
  0.237259578705E+01  0.142853081226E+01  0.604293763638E+00
  0.238868856430E+01  0.169935321808E+01 -0.522850275040E+00
  0.238868856430E+01  0.169935321808E+01  0.522850275040E+00
  0.239635515213E+01  0.000000000000E+00 -0.902061045170E+00
  0.239635515213E+01  0.000000000000E+00  0.902061045170E+00
  0.241487216949E+01  0.117653930187E+01 -0.683996737003E+00
  0.241487216949E+01  0.117653930187E+01  0.683996737003E+00
  0.244983124733E+01  0.230216526985E+01 -0.234920799732E+00
  0.244983124733E+01  0.230216526985E+01  0.234920799732E+00
  0.246363353729E+01  0.199016737938E+01 -0.436294168234E+00
  0.246363353729E+01  0.199016737938E+01  0.436294168234E+00
[...]
CELL_DATA               13888
SCALARS sigma float 1
LOOKUP_TABLE default
 -0.105346228177E+00
 -0.105344690271E+00
 -0.105416182636E+00
 -0.105416176583E+00
 -0.105498374667E+00
 -0.105499529244E+00
 -0.105594671928E+00
 -0.105594671875E+00
 -0.105704082084E+00
 -0.105704050497E+00
 -0.105831070522E+00
 -0.105830313011E+00
 -0.105967885968E+00
 -0.105968576074E+00
 -0.106148207741E+00
 -0.106148164893E+00
 -0.106433038766E+00
 -0.106432515230E+00
 -0.106820336450E+00
 -0.106820771773E+00
 -0.106987217518E+00
 -0.106987067209E+00
 -0.106754003915E+00
 -0.106754139721E+00
 -0.106481662559E+00
 -0.106481662576E+00
 -0.106443093559E+00
 -0.106443046898E+00
 -0.105056044106E+00
 -0.105055983315E+00
 -0.103563061813E+00
 -0.103563117009E+00
 -0.101489670172E+00
 -0.101489670173E+00
 -0.955058229432E-01
 -0.955057824146E-01
 -0.901740586883E-01
 -0.901739859742E-01
 -0.805725744762E-01
 -0.805726672409E-01
 -0.711699417294E-01
 -0.711699514828E-01
 -0.571758132890E-01
 -0.571757814450E-01
 -0.405820138594E-01
 -0.405819903948E-01
 -0.225426446885E-01
 -0.225427960649E-01
  0.700220137257E-02
  0.700220138589E-02
  0.334130474342E-01
  0.334130474200E-01
  0.587149510641E-01
  0.587149933335E-01
  0.830009539585E-01
  0.830011130876E-01
  0.105977353704E+00
  0.105977207439E+00
  0.128036784167E+00
  0.128036841652E+00
  0.153486340878E+00
  0.153486422425E+00
  0.183502023522E+00
  0.183501847675E+00
  0.215569125376E+00
  0.215569125369E+00
  0.252931427961E+00
  0.252931389271E+00
  0.291328286808E+00
  0.291328435224E+00
  0.348791811833E+00
  0.348791740534E+00
  0.400292370939E+00
  0.400292338549E+00
  0.526374099557E+00
  0.526374102521E+00
  0.603316567482E+00
  0.603316571177E+00
  0.685591074712E+00
  0.685591075719E+00
  0.685591075719E+00
  0.685591074712E+00
  0.603316571177E+00
  0.603316567482E+00
  0.526374102521E+00
  0.526374099557E+00
  0.400292338549E+00
  0.400292370939E+00
  0.348791740534E+00
  0.348791811833E+00
  0.291328435224E+00
  0.291328286808E+00
  0.252931389271E+00
  0.252931427961E+00
  0.215569125369E+00
  0.215569125376E+00
  0.183501847675E+00
  0.183502023522E+00
  0.153486422425E+00
  0.153486340878E+00
  0.128036841652E+00
  0.128036784167E+00
  0.105977207439E+00
  0.105977353704E+00
  0.830011130876E-01
  0.830009539585E-01
  0.587149933335E-01
  0.587149510641E-01
  0.334130474200E-01
  0.334130474342E-01
  0.700220138589E-02
  0.700220137257E-02
 -0.225427960649E-01
 -0.225426446885E-01
 -0.405819903948E-01
 -0.405820138594E-01
 -0.571757814450E-01
 -0.571758132890E-01
 -0.711699514828E-01
 -0.711699417294E-01
 -0.805726672409E-01
 -0.805725744762E-01
 -0.901739859742E-01
 -0.901740586883E-01
 -0.955057824146E-01
 -0.955058229432E-01
 -0.101489670173E+00
 -0.101489670172E+00
 -0.103563117009E+00
 -0.103563061813E+00
 -0.105055983315E+00
 -0.105056044106E+00
 -0.106443046898E+00
 -0.106443093559E+00
 -0.106481662576E+00
 -0.106481662559E+00
 -0.106754139721E+00
 -0.106754003915E+00
 -0.106987067209E+00
 -0.106987217518E+00
 -0.106820771773E+00
 -0.106820336450E+00
 -0.106432515230E+00
 -0.106433038766E+00
 -0.106148164893E+00
 -0.106148207741E+00
 -0.105968576074E+00
 -0.105967885968E+00
 -0.105830313011E+00
 -0.105831070522E+00
 -0.105704050497E+00
 -0.105704082084E+00
 -0.105594671875E+00
 -0.105594671928E+00
 -0.105499529244E+00
 -0.105498374667E+00
 -0.105416176583E+00
 -0.105416182636E+00
 -0.105344690271E+00
 -0.105346228177E+00
 -0.105344695622E+00
 -0.105346225418E+00
 -0.105416205781E+00
 -0.105416193684E+00
 -0.105499526296E+00
 -0.105498372806E+00
 -0.105593694379E+00
 -0.105594668677E+00
 -0.105704930590E+00
 -0.105704065868E+00
 -0.105830311282E+00
 -0.105831067762E+00
 -0.105967921035E+00
 -0.105967896808E+00
 -0.106148778236E+00
 -0.106148190845E+00
 -0.106432513507E+00
 -0.106433035999E+00
 -0.106820380962E+00
 -0.106820347112E+00
 -0.106987214785E+00
 -0.106987214783E+00
 -0.106754137022E+00
 -0.106754001572E+00
 -0.106481703644E+00
 -0.106481653241E+00
 -0.106443039678E+00
 -0.106443086170E+00
 -0.105055981067E+00
 -0.105056041667E+00
 -0.103563114690E+00
 -0.103563059673E+00
 -0.101489544253E+00
 -0.101489671477E+00
 -0.955058956603E-01
 -0.955058211326E-01
 -0.901739887901E-01
 -0.901740612981E-01
 -0.805726478307E-01
 -0.805725765126E-01
 -0.711699510383E-01
 -0.711700186556E-01
 -0.571757793231E-01
 -0.571757793231E-01
 -0.405819891098E-01
 -0.405819891098E-01
 -0.225427960654E-01
 -0.225426446615E-01
  0.700220134882E-02
  0.700220134891E-02
  0.334130465070E-01
  0.334130465066E-01
  0.587149909136E-01
  0.587149486163E-01
  0.830011141529E-01
  0.830009226953E-01
  0.105977211401E+00
  0.105977416751E+00
  0.128036839599E+00
  0.128036728773E+00
  0.153486434370E+00
  0.153486434372E+00
  0.183501849164E+00
  0.183501977466E+00
  0.215569112839E+00
  0.215568975716E+00
  0.252931387871E+00
  0.252931532338E+00
  0.291328435558E+00
  0.291328333163E+00
  0.348791743270E+00
  0.348791757682E+00
  0.400292325766E+00
  0.400292360995E+00
  0.526374071925E+00
  0.526374095975E+00
  0.603316529835E+00
  0.603316520875E+00
  0.685591080650E+00
  0.685591078522E+00
  0.685591078522E+00
  0.685591080650E+00
  0.603316520875E+00
  0.603316529835E+00
  0.526374095975E+00
  0.526374071925E+00
  0.400292360995E+00
  0.400292325766E+00
  0.348791757682E+00
  0.348791743270E+00
  0.291328333163E+00
  0.291328435558E+00
  0.252931532338E+00
  0.252931387871E+00
  0.215568975716E+00
  0.215569112839E+00
  0.183501977466E+00
  0.183501849164E+00
  0.153486434372E+00
  0.153486434370E+00
  0.128036728773E+00
  0.128036839599E+00
  0.105977416751E+00
  0.105977211401E+00
  0.830009226953E-01
  0.830011141529E-01
  0.587149486163E-01
  0.587149909136E-01
  0.334130465066E-01
  0.334130465070E-01
  0.700220134891E-02
  0.700220134882E-02
 -0.225426446615E-01
 -0.225427960654E-01
 -0.405819891098E-01
 -0.405819891098E-01
 -0.571757793231E-01
 -0.571757793231E-01
 -0.711700186556E-01
 -0.711699510383E-01
 -0.805725765126E-01
 -0.805726478307E-01
 -0.901740612981E-01
 -0.901739887901E-01
 -0.955058211326E-01
 -0.955058956603E-01
 -0.101489671477E+00
 -0.101489544253E+00
 -0.103563059673E+00
 -0.103563114690E+00
 -0.105056041667E+00
 -0.105055981067E+00
 -0.106443086170E+00
 -0.106443039678E+00
 -0.106481653241E+00
 -0.106481703644E+00
 -0.106754001572E+00
 -0.106754137022E+00
 -0.106987214783E+00
 -0.106987214785E+00
 -0.106820347112E+00
 -0.106820380962E+00
 -0.106433035999E+00
 -0.106432513507E+00
 -0.106148190845E+00
 -0.106148778236E+00
 -0.105967896808E+00
 -0.105967921035E+00
 -0.105831067762E+00
 -0.105830311282E+00
 -0.105704065868E+00
 -0.105704930590E+00
 -0.105594668677E+00
 -0.105593694379E+00
 -0.105498372806E+00
 -0.105499526296E+00
 -0.105416193684E+00
 -0.105416205781E+00
 -0.105346225418E+00
 -0.105344695622E+00
 -0.105344709807E+00
 -0.105344702880E+00
 -0.105416206194E+00
 -0.105416200149E+00
 -0.105499531112E+00
 -0.105499520659E+00
 -0.105593683847E+00
 -0.105593701980E+00
 -0.105704925494E+00
 -0.105704925494E+00
 -0.105830346301E+00
 -0.105830318731E+00
 -0.105967939248E+00
 -0.105967915017E+00
 -0.106148772665E+00
 -0.106148772665E+00
 -0.106432521119E+00
 -0.106432521117E+00
 -0.106820342399E+00
 -0.106820376180E+00
 -0.106987269879E+00
 -0.106987209151E+00
 -0.106753947473E+00
 -0.106754137614E+00
 -0.106481708950E+00
 -0.106481708932E+00
 -0.106443091435E+00
 -0.106443045100E+00
 -0.105055901550E+00
 -0.105055987857E+00
 -0.103563196595E+00
 -0.103563115367E+00
 -0.101489668612E+00
 -0.101489541818E+00
 -0.955057785357E-01
 -0.955058931105E-01
 -0.901739892743E-01
 -0.901739892633E-01
 -0.805726459703E-01
 -0.805726459744E-01
 -0.711700206426E-01
 -0.711699529016E-01
 -0.571757816264E-01
 -0.571757816258E-01
 -0.405819902619E-01
 -0.405819902624E-01
 -0.225426446657E-01
 -0.225427960946E-01
  0.700220138021E-02
  0.700220138021E-02
  0.334130472294E-01
  0.334130245983E-01
  0.587149508352E-01
  0.587149931720E-01
  0.830009209982E-01
  0.830010807373E-01
  0.105977415441E+00
  0.105977312491E+00
  0.128036726062E+00
  0.128036837290E+00
  0.153486422511E+00
  0.153486302357E+00
  0.183501981006E+00
  0.183501931942E+00
  0.215568969961E+00
  0.215569108190E+00
  0.252931524825E+00
  0.252931378867E+00
  0.291328328230E+00
  0.291328383199E+00
  0.348791746815E+00
  0.348791732142E+00
  0.400292361600E+00
  0.400292361604E+00
  0.526374104017E+00
  0.526374068688E+00
  0.603316527828E+00
  0.603316540115E+00
  0.685591031875E+00
  0.685591049927E+00
  0.685591049927E+00
  0.685591031875E+00
  0.603316540115E+00
  0.603316527828E+00
  0.526374068688E+00
  0.526374104017E+00
  0.400292361604E+00
  0.400292361600E+00
  0.348791732142E+00
  0.348791746815E+00
  0.291328383199E+00
  0.291328328230E+00
  0.252931378867E+00
  0.252931524825E+00
  0.215569108190E+00
  0.215568969961E+00
  0.183501931942E+00
  0.183501981006E+00
  0.153486302357E+00
  0.153486422511E+00
  0.128036837290E+00
  0.128036726062E+00
  0.105977312491E+00
  0.105977415441E+00
  0.830010807373E-01
  0.830009209982E-01
  0.587149931720E-01
  0.587149508352E-01
  0.334130245983E-01
  0.334130472294E-01
  0.700220138021E-02
  0.700220138021E-02
 -0.225427960946E-01
 -0.225426446657E-01
 -0.405819902624E-01
 -0.405819902619E-01
 -0.571757816258E-01
 -0.571757816264E-01
 -0.711699529016E-01
 -0.711700206426E-01
 -0.805726459744E-01
 -0.805726459703E-01
 -0.901739892633E-01
 -0.901739892743E-01
 -0.955058931105E-01
 -0.955057785357E-01
 -0.101489541818E+00
 -0.101489668612E+00
 -0.103563115367E+00
 -0.103563196595E+00
 -0.105055987857E+00
 -0.105055901550E+00
 -0.106443045100E+00
 -0.106443091435E+00
 -0.106481708932E+00
 -0.106481708950E+00
 -0.106754137614E+00
 -0.106753947473E+00
 -0.106987209151E+00
 -0.106987269879E+00
 -0.106820376180E+00
 -0.106820342399E+00
 -0.106432521117E+00
 -0.106432521119E+00
 -0.106148772665E+00
 -0.106148772665E+00
 -0.105967915017E+00
 -0.105967939248E+00
 -0.105830318731E+00
 -0.105830346301E+00
 -0.105704925494E+00
 -0.105704925494E+00
 -0.105593701980E+00
 -0.105593683847E+00
 -0.105499520659E+00
 -0.105499531112E+00
 -0.105416200149E+00
 -0.105416206194E+00
 -0.105344702880E+00
 -0.105344709807E+00
 -0.105346243766E+00
 -0.105344708676E+00
 -0.105416211104E+00
 -0.105416205064E+00
 -0.105498410233E+00
 -0.105499541016E+00
 -0.105594691282E+00
 -0.105593682571E+00
 -0.105704072274E+00
 -0.105704935142E+00
 -0.105831099426E+00
 -0.105830344797E+00
 -0.105967914425E+00
 -0.105967938589E+00
 -0.106148198144E+00
 -0.106148783734E+00
 -0.106433078524E+00
 -0.106432520070E+00
 -0.106820374220E+00
 -0.106820340506E+00
 -0.106986799935E+00
 -0.106987280306E+00
 -0.106754196800E+00
 -0.106753952219E+00
 -0.106481707500E+00
 -0.106481707520E+00
 -0.106443045435E+00
 -0.106443091659E+00
 -0.105055986375E+00
 -0.105055900303E+00
 -0.103563192033E+00
 -0.103563192031E+00
 -0.101489667509E+00
 -0.101489667496E+00
 -0.955057820473E-01
 -0.955057820485E-01
 -0.901739885025E-01
 -0.901739885123E-01
 -0.805726454486E-01
 -0.805726454428E-01
 -0.711699509496E-01
 -0.711699411281E-01
 -0.571757803445E-01
 -0.571758442691E-01
 -0.405819892062E-01
 -0.405819657016E-01
 -0.225427961302E-01
 -0.225426446777E-01
  0.700220134941E-02
  0.700220134941E-02
  0.334130238343E-01
  0.334130238348E-01
  0.587149912040E-01
  0.587149912040E-01
  0.830010806211E-01
  0.830008885073E-01
  0.105977315270E+00
  0.105977418477E+00
  0.128036841618E+00
  0.128036783502E+00
  0.153486305361E+00
  0.153486305363E+00
  0.183501933301E+00
  0.183501933295E+00
  0.215569124658E+00
  0.215569124663E+00
  0.252931383010E+00
  0.252931530339E+00
  0.291328375905E+00
  0.291328221698E+00
  0.348791747507E+00
  0.348791762412E+00
  0.400292380477E+00
  0.400292450053E+00
  0.526374038253E+00
  0.526374000642E+00
  0.603316581473E+00
  0.603316584201E+00
  0.685591054167E+00
  0.685591052729E+00
  0.685591052729E+00
  0.685591054167E+00
  0.603316584201E+00
  0.603316581473E+00
  0.526374000642E+00
  0.526374038253E+00
  0.400292450053E+00
  0.400292380477E+00
  0.348791762412E+00
  0.348791747507E+00
  0.291328221698E+00
  0.291328375905E+00
  0.252931530339E+00
  0.252931383010E+00
  0.215569124663E+00
  0.215569124658E+00
  0.183501933295E+00
  0.183501933301E+00
  0.153486305363E+00
  0.153486305361E+00
  0.128036783502E+00
  0.128036841618E+00
  0.105977418477E+00
  0.105977315270E+00
  0.830008885073E-01
  0.830010806211E-01
  0.587149912040E-01
  0.587149912040E-01
  0.334130238348E-01
  0.334130238343E-01
  0.700220134941E-02
  0.700220134941E-02
 -0.225426446777E-01
 -0.225427961302E-01
 -0.405819657016E-01
 -0.405819892062E-01
 -0.571758442691E-01
 -0.571757803445E-01
 -0.711699411281E-01
 -0.711699509496E-01
 -0.805726454428E-01
 -0.805726454486E-01
 -0.901739885123E-01
 -0.901739885025E-01
 -0.955057820485E-01
 -0.955057820473E-01
 -0.101489667496E+00
 -0.101489667509E+00
 -0.103563192031E+00
 -0.103563192033E+00
 -0.105055900303E+00
 -0.105055986375E+00
 -0.106443091659E+00
 -0.106443045435E+00
 -0.106481707520E+00
 -0.106481707500E+00
 -0.106753952219E+00
 -0.106754196800E+00
 -0.106987280306E+00
 -0.106986799935E+00
 -0.106820340506E+00
 -0.106820374220E+00
 -0.106432520070E+00
 -0.106433078524E+00
 -0.106148783734E+00
 -0.106148198144E+00
 -0.105967938589E+00
 -0.105967914425E+00
 -0.105830344797E+00
 -0.105831099426E+00
 -0.105704935142E+00
 -0.105704072274E+00
 -0.105593682571E+00
 -0.105594691282E+00
 -0.105499541016E+00
 -0.105498410233E+00
 -0.105416205064E+00
 -0.105416211104E+00
 -0.105344708676E+00
 -0.105346243766E+00
 -0.105344716946E+00
 -0.105346237242E+00
 -0.105416221664E+00
 -0.105416215628E+00
 -0.105498425163E+00
 -0.105498414724E+00
 -0.105594702739E+00
 -0.105594684585E+00
 -0.105704076863E+00
 -0.105704076908E+00
 -0.105831092925E+00
 -0.105831092888E+00
 -0.105967942813E+00
 -0.105967918713E+00
 -0.106148202077E+00
 -0.106148202044E+00
 -0.106433071048E+00
 -0.106433071078E+00
 -0.106820346149E+00
 -0.106820379804E+00
 -0.106986865328E+00
 -0.106986804828E+00
 -0.106754188497E+00
 -0.106754188517E+00
 -0.106481706629E+00
 -0.106481706628E+00
 -0.106443089151E+00
 -0.106443043029E+00
 -0.105055982434E+00
 -0.105055982434E+00
 -0.103563191331E+00
 -0.103563191345E+00
 -0.101489666865E+00
 -0.101489666866E+00
 -0.955057815247E-01
 -0.955057815234E-01
 -0.901739880807E-01
 -0.901739880709E-01
 -0.805726451469E-01
 -0.805726451554E-01
 -0.711699407236E-01
 -0.711700086901E-01
 -0.571758442533E-01
 -0.571757802779E-01
 -0.405819658513E-01
 -0.405818447389E-01
 -0.225426446663E-01
 -0.225427824750E-01
  0.700220137667E-02
  0.700220137667E-02
  0.334130244903E-01
  0.334130471346E-01
  0.587149928852E-01
  0.587149504762E-01
  0.830008889051E-01
  0.830010813078E-01
  0.105977416631E+00
  0.105977209747E+00
  0.128036787621E+00
  0.128036787623E+00
  0.153486311251E+00
  0.153486432415E+00
  0.183501932739E+00
  0.183501932745E+00
  0.215569123940E+00
  0.215569123932E+00
  0.252931547041E+00
  0.252931547044E+00
  0.291328220589E+00
  0.291328376429E+00
  0.348791735188E+00
  0.348791658805E+00
  0.400292450014E+00
  0.400292308151E+00
  0.526374052266E+00
  0.526374110424E+00
  0.603316603193E+00
  0.603316582996E+00
  0.685591144913E+00
  0.685591118329E+00
  0.685591118329E+00
  0.685591144913E+00
  0.603316582996E+00
  0.603316603193E+00
  0.526374110424E+00
  0.526374052266E+00
  0.400292308151E+00
  0.400292450014E+00
  0.348791658805E+00
  0.348791735188E+00
  0.291328376429E+00
  0.291328220589E+00
  0.252931547044E+00
  0.252931547041E+00
  0.215569123932E+00
  0.215569123940E+00
  0.183501932745E+00
  0.183501932739E+00
  0.153486432415E+00
  0.153486311251E+00
  0.128036787623E+00
  0.128036787621E+00
  0.105977209747E+00
  0.105977416631E+00
  0.830010813078E-01
  0.830008889051E-01
  0.587149504762E-01
  0.587149928852E-01
  0.334130471346E-01
  0.334130244903E-01
  0.700220137667E-02
  0.700220137667E-02
 -0.225427824750E-01
 -0.225426446663E-01
 -0.405818447389E-01
 -0.405819658513E-01
 -0.571757802779E-01
 -0.571758442533E-01
 -0.711700086901E-01
 -0.711699407236E-01
 -0.805726451554E-01
 -0.805726451469E-01
 -0.901739880709E-01
 -0.901739880807E-01
 -0.955057815234E-01
 -0.955057815247E-01
 -0.101489666866E+00
 -0.101489666865E+00
 -0.103563191345E+00
 -0.103563191331E+00
 -0.105055982434E+00
 -0.105055982434E+00
 -0.106443043029E+00
 -0.106443089151E+00
 -0.106481706628E+00
 -0.106481706629E+00
 -0.106754188517E+00
 -0.106754188497E+00
 -0.106986804828E+00
 -0.106986865328E+00
 -0.106820379804E+00
 -0.106820346149E+00
 -0.106433071078E+00
 -0.106433071048E+00
 -0.106148202044E+00
 -0.106148202077E+00
 -0.105967918713E+00
 -0.105967942813E+00
 -0.105831092888E+00
 -0.105831092925E+00
 -0.105704076908E+00
 -0.105704076863E+00
 -0.105594684585E+00
 -0.105594702739E+00
 -0.105498414724E+00
 -0.105498425163E+00
 -0.105416215628E+00
 -0.105416221664E+00
 -0.105346237242E+00
 -0.105344716946E+00
 -0.105346262995E+00
 -0.105344722433E+00
 -0.105416228923E+00
 -0.105416216856E+00
 -0.105498420390E+00
 -0.105498420391E+00
 -0.105594680083E+00
 -0.105594698225E+00
 -0.105704103690E+00
 -0.105704072172E+00
 -0.105830344740E+00
 -0.105831097867E+00
 -0.105967971526E+00
 -0.105967947421E+00
 -0.106148781361E+00
 -0.106148197354E+00
 -0.106432557021E+00
 -0.106433076102E+00
 -0.106820384143E+00
 -0.106820350540E+00
 -0.106987277158E+00
 -0.106986858997E+00
 -0.106754183747E+00
 -0.106754183747E+00
 -0.106481701933E+00
 -0.106481701915E+00
 -0.106442886295E+00
 -0.106443090776E+00
 -0.105056068349E+00
 -0.105055982735E+00
 -0.103563113780E+00
 -0.103563194321E+00
 -0.101489622286E+00
 -0.101489671397E+00
 -0.955058954562E-01
 -0.955057817661E-01
 -0.901739565852E-01
 -0.901739892259E-01
 -0.805725766953E-01
 -0.805726474413E-01
 -0.711700116628E-01
 -0.711700215020E-01
 -0.571757812577E-01
 -0.571757812577E-01
 -0.405818445976E-01
 -0.405819657630E-01
 -0.225427824688E-01
 -0.225427824688E-01
  0.700220137398E-02
  0.700220137398E-02
  0.334130470883E-01
  0.334130244378E-01
  0.587149502952E-01
  0.587151303773E-01
  0.830010811734E-01
  0.830009529155E-01
  0.105977206614E+00
  0.105977221388E+00
  0.128036782402E+00
  0.128036840857E+00
  0.153486427439E+00
  0.153486350952E+00
  0.183501930662E+00
  0.183501930658E+00
  0.215569120718E+00
  0.215569120721E+00
  0.252931542081E+00
  0.252931542085E+00
  0.291328390292E+00
  0.291328289669E+00
  0.348791682858E+00
  0.348791760279E+00
  0.400292289304E+00
  0.400292289294E+00
  0.526374108631E+00
  0.526374127974E+00
  0.603316528439E+00
  0.603316566279E+00
  0.685591040003E+00
  0.685591058334E+00
  0.685591058334E+00
  0.685591040003E+00
  0.603316566279E+00
  0.603316528439E+00
  0.526374127974E+00
  0.526374108631E+00
  0.400292289294E+00
  0.400292289304E+00
  0.348791760279E+00
  0.348791682858E+00
  0.291328289669E+00
  0.291328390292E+00
  0.252931542085E+00
  0.252931542081E+00
  0.215569120721E+00
  0.215569120718E+00
  0.183501930658E+00
  0.183501930662E+00
  0.153486350952E+00
  0.153486427439E+00
  0.128036840857E+00
  0.128036782402E+00
  0.105977221388E+00
  0.105977206614E+00
  0.830009529155E-01
  0.830010811734E-01
  0.587151303773E-01
  0.587149502952E-01
  0.334130244378E-01
  0.334130470883E-01
  0.700220137398E-02
  0.700220137398E-02
 -0.225427824688E-01
 -0.225427824688E-01
 -0.405819657630E-01
 -0.405818445976E-01
 -0.571757812577E-01
 -0.571757812577E-01
 -0.711700215020E-01
 -0.711700116628E-01
 -0.805726474413E-01
 -0.805725766953E-01
 -0.901739892259E-01
 -0.901739565852E-01
 -0.955057817661E-01
 -0.955058954562E-01
 -0.101489671397E+00
 -0.101489622286E+00
 -0.103563194321E+00
 -0.103563113780E+00
 -0.105055982735E+00
 -0.105056068349E+00
 -0.106443090776E+00
 -0.106442886295E+00
 -0.106481701915E+00
 -0.106481701933E+00
 -0.106754183747E+00
 -0.106754183747E+00
 -0.106986858997E+00
 -0.106987277158E+00
 -0.106820350540E+00
 -0.106820384143E+00
 -0.106433076102E+00
 -0.106432557021E+00
 -0.106148197354E+00
 -0.106148781361E+00
 -0.105967947421E+00
 -0.105967971526E+00