# vtk DataFile Version 3.0
MachLine results file. Generated by MachLine, USU AeroLab (c) 2022.
ASCII
DATASET POLYDATA
POINTS                1848 float
  0.000000000000E+00  0.000000000000E+00  0.000000000000E+00
  0.147665724158E+00  0.000000000000E+00 -0.234920635819E+00
  0.147665724158E+00  0.000000000000E+00  0.234920635819E+00
  0.339639574289E+00  0.339639574289E+00  0.000000000000E+00
  0.473465979099E+00  0.000000000000E+00 -0.436293870211E+00
  0.473465979099E+00  0.000000000000E+00  0.436293870211E+00
  0.487305283546E+00  0.339639574289E+00 -0.234920650721E+00
  0.487305283546E+00  0.339639574289E+00  0.234920650721E+00
  0.735364913940E+00  0.735364913940E+00  0.000000000000E+00
  0.813105583191E+00  0.339639574289E+00 -0.436293929815E+00
  0.813105583191E+00  0.339639574289E+00  0.436293929815E+00
  0.883030653000E+00  0.735364913940E+00 -0.234920680523E+00
  0.883030653000E+00  0.735364913940E+00  0.234920680523E+00
  0.944064557552E+00  0.000000000000E+00 -0.604293465614E+00
  0.944064557552E+00  0.000000000000E+00  0.604293465614E+00
  0.119528055191E+01  0.119528055191E+01  0.000000000000E+00
  0.120883107185E+01  0.735364913940E+00 -0.436293989420E+00
  0.120883107185E+01  0.735364913940E+00  0.436293989420E+00
  0.128370416164E+01  0.339639574289E+00 -0.604293525219E+00
  0.128370416164E+01  0.339639574289E+00  0.604293525219E+00
  0.134294629097E+01  0.119528055191E+01 -0.234920725226E+00
  0.134294629097E+01  0.119528055191E+01  0.234920725226E+00
  0.157641971111E+01  0.000000000000E+00 -0.760520398617E+00
  0.157641971111E+01  0.000000000000E+00  0.760520398617E+00
  0.166874670982E+01  0.119528055191E+01 -0.436294049025E+00
  0.166874670982E+01  0.119528055191E+01  0.436294049025E+00
  0.167942965031E+01  0.735364913940E+00 -0.604293584824E+00
  0.167942965031E+01  0.735364913940E+00  0.604293584824E+00
  0.172824025154E+01  0.172824025154E+01  0.000000000000E+00
  0.187590610981E+01  0.172824025154E+01 -0.234920769930E+00
  0.187590610981E+01  0.172824025154E+01  0.234920769930E+00
  0.191605937481E+01  0.339639574289E+00 -0.760520458221E+00
  0.191605937481E+01  0.339639574289E+00  0.760520458221E+00
  0.213934540749E+01  0.119528055191E+01 -0.604293704033E+00
  0.213934540749E+01  0.119528055191E+01  0.604293704033E+00
  0.220170640945E+01  0.172824025154E+01 -0.436294138432E+00
  0.220170640945E+01  0.172824025154E+01  0.436294138432E+00
  0.231178498268E+01  0.735364913940E+00 -0.760520577431E+00
  0.231178498268E+01  0.735364913940E+00  0.760520577431E+00
  0.234375929832E+01  0.234375929832E+01  0.000000000000E+00
  0.239635515213E+01  0.000000000000E+00 -0.902061045170E+00
  0.239635515213E+01  0.000000000000E+00  0.902061045170E+00
  0.249142503738E+01  0.234375929832E+01 -0.234920814633E+00
  0.249142503738E+01  0.234375929832E+01  0.234920814633E+00
  0.267230534554E+01  0.172824025154E+01 -0.604293823242E+00
  0.267230534554E+01  0.172824025154E+01  0.604293823242E+00
  0.273599505424E+01  0.339639574289E+00 -0.902061164379E+00
  0.273599505424E+01  0.339639574289E+00  0.902061164379E+00
  0.277170085907E+01  0.119528055191E+01 -0.760520696640E+00
  0.277170085907E+01  0.119528055191E+01  0.760520696640E+00
  0.281722569466E+01  0.234375929832E+01 -0.436294227839E+00
  0.281722569466E+01  0.234375929832E+01  0.436294227839E+00
  0.305185556412E+01  0.305185556412E+01  0.000000000000E+00
  0.313172078133E+01  0.735364913940E+00 -0.902061283588E+00
  0.313172078133E+01  0.735364913940E+00  0.902061283588E+00
  0.319952154160E+01  0.305185556412E+01 -0.234920859337E+00
  0.319952154160E+01  0.305185556412E+01  0.234920859337E+00
  0.328782463074E+01  0.234375929832E+01 -0.604293942451E+00
  0.328782463074E+01  0.234375929832E+01  0.604293942451E+00
  0.330466079712E+01  0.172824025154E+01 -0.760520815849E+00
  0.330466079712E+01  0.172824025154E+01  0.760520815849E+00
  0.342464399338E+01  0.000000000000E+00 -0.102348911762E+01
  0.342464399338E+01  0.000000000000E+00  0.102348911762E+01
  0.352532196045E+01  0.305185556412E+01 -0.436294317245E+00
  0.352532196045E+01  0.305185556412E+01  0.436294317245E+00
  0.359163665771E+01  0.119528055191E+01 -0.902061402798E+00
  0.359163665771E+01  0.119528055191E+01  0.902061402798E+00
  0.376428389549E+01  0.339639574289E+00 -0.102348923683E+01
  0.376428389549E+01  0.339639574289E+00  0.102348923683E+01
  0.386280250549E+01  0.386280250549E+01  0.000000000000E+00
  0.392018008232E+01  0.234375929832E+01 -0.760520994663E+00
  0.392018008232E+01  0.234375929832E+01  0.760520994663E+00
  0.399592113495E+01  0.305185556412E+01 -0.604294061661E+00
  0.399592113495E+01  0.305185556412E+01  0.604294061661E+00
  0.401046848297E+01  0.386280250549E+01 -0.234920918941E+00
  0.401046848297E+01  0.386280250549E+01  0.234920918941E+00
  0.412459707260E+01  0.172824025154E+01 -0.902061522007E+00
  0.412459707260E+01  0.172824025154E+01  0.902061522007E+00
  0.416000986099E+01  0.735364913940E+00 -0.102348935604E+01
  0.416000986099E+01  0.735364913940E+00  0.102348935604E+01
  0.433626890182E+01  0.386280250549E+01 -0.436294436455E+00
  0.433626890182E+01  0.386280250549E+01  0.436294436455E+00
  0.461992597580E+01  0.119528055191E+01 -0.102348947525E+01
  0.461992597580E+01  0.119528055191E+01  0.102348947525E+01
  0.462827682495E+01  0.305185556412E+01 -0.760521173477E+00
  0.462827682495E+01  0.305185556412E+01  0.760521173477E+00
  0.466872262955E+01  0.000000000000E+00 -0.111146688461E+01
  0.466872262955E+01  0.000000000000E+00  0.111146688461E+01
  0.474011659622E+01  0.234375929832E+01 -0.902061700821E+00
  0.474011659622E+01  0.234375929832E+01  0.902061700821E+00
  0.478677463531E+01  0.478677463531E+01  0.000000000000E+00
  0.480686807632E+01  0.386280250549E+01 -0.604294240475E+00
  0.480686807632E+01  0.386280250549E+01  0.604294240475E+00
  0.493444061279E+01  0.478677463531E+01 -0.234920993447E+00
  0.493444061279E+01  0.478677463531E+01  0.234920993447E+00
  0.500836277008E+01  0.339639574289E+00 -0.111146700382E+01
  0.500836277008E+01  0.339639574289E+00  0.111146700382E+01
  0.515288639069E+01  0.172824025154E+01 -0.102348971367E+01
  0.515288639069E+01  0.172824025154E+01  0.102348971367E+01
  0.526024150848E+01  0.478677463531E+01 -0.436294555664E+00
  0.526024150848E+01  0.478677463531E+01  0.436294555664E+00
  0.540408849716E+01  0.735364913940E+00 -0.111146712303E+01
  0.540408849716E+01  0.735364913940E+00  0.111146712303E+01
  0.543922424316E+01  0.386280250549E+01 -0.760521352291E+00
  0.543922424316E+01  0.386280250549E+01  0.760521352291E+00
  0.544821310043E+01  0.305185556412E+01 -0.902061939240E+00
  0.544821310043E+01  0.305185556412E+01  0.902061939240E+00
  0.573084068298E+01  0.478677463531E+01 -0.604294419289E+00
  0.573084068298E+01  0.478677463531E+01  0.604294419289E+00
  0.576840591431E+01  0.234375929832E+01 -0.102348983288E+01
  0.576840591431E+01  0.234375929832E+01  0.102348983288E+01
  0.583337688446E+01  0.583337688446E+01  0.000000000000E+00
  0.586400508881E+01  0.119528055191E+01 -0.111146736145E+01
  0.586400508881E+01  0.119528055191E+01  0.111146736145E+01
  0.598104286194E+01  0.583337688446E+01 -0.234921067953E+00
  0.598104286194E+01  0.583337688446E+01  0.234921067953E+00
  0.611307668686E+01  0.000000000000E+00 -0.114008128643E+01
  0.611307668686E+01  0.000000000000E+00  0.114008128643E+01
  0.625916051865E+01  0.386280250549E+01 -0.902062177658E+00
  0.625916051865E+01  0.386280250549E+01  0.902062177658E+00
  0.630684375763E+01  0.583337688446E+01 -0.436294704676E+00
  0.630684375763E+01  0.583337688446E+01  0.436294704676E+00
  0.636319684982E+01  0.478677463531E+01 -0.760521590710E+00
  0.636319684982E+01  0.478677463531E+01  0.760521590710E+00
  0.639696550369E+01  0.172824025154E+01 -0.111146748066E+01
  0.639696550369E+01  0.172824025154E+01  0.111146748066E+01
  0.645271682739E+01  0.339639574289E+00 -0.114008140564E+01
  0.645271682739E+01  0.339639574289E+00  0.114008140564E+01
  0.647650289536E+01  0.305185556412E+01 -0.102349007130E+01
  0.647650289536E+01  0.305185556412E+01  0.102349007130E+01
  0.677744340897E+01  0.583337688446E+01 -0.604294598103E+00
  0.677744340897E+01  0.583337688446E+01  0.604294598103E+00
  0.684844303131E+01  0.735364913940E+00 -0.114008152485E+01
  0.684844303131E+01  0.735364913940E+00  0.114008152485E+01
  0.701104879379E+01  0.701104879379E+01  0.000000000000E+00
  0.701248550415E+01  0.234375929832E+01 -0.111146771908E+01
  0.701248550415E+01  0.234375929832E+01  0.111146771908E+01
  0.715871477127E+01  0.701104879379E+01 -0.234921157360E+00
  0.715871477127E+01  0.701104879379E+01  0.234921157360E+00
  0.718313360214E+01  0.478677463531E+01 -0.902062416077E+00
  0.718313360214E+01  0.478677463531E+01  0.902062416077E+00
  0.728745079041E+01  0.386280250549E+01 -0.102349042892E+01
  0.728745079041E+01  0.386280250549E+01  0.102349042892E+01
  0.730835962296E+01  0.119528055191E+01 -0.114008176327E+01
  0.730835962296E+01  0.119528055191E+01  0.114008176327E+01
  0.740979957581E+01  0.583337688446E+01 -0.760521829128E+00
  0.740979957581E+01  0.583337688446E+01  0.760521829128E+00
  0.748451566696E+01  0.701104879379E+01 -0.436294883490E+00
  0.748451566696E+01  0.701104879379E+01  0.436294883490E+00
  0.771254587173E+01  0.000000000000E+00 -0.108925735950E+01
  0.771254587173E+01  0.000000000000E+00  0.108925735950E+01
  0.772058296204E+01  0.305185556412E+01 -0.111146795750E+01
  0.772058296204E+01  0.305185556412E+01  0.111146795750E+01
  0.784132003784E+01  0.172824025154E+01 -0.114008188248E+01
  0.784132003784E+01  0.172824025154E+01  0.114008188248E+01
  0.795511531830E+01  0.701104879379E+01 -0.604294836521E+00
  0.795511531830E+01  0.701104879379E+01  0.604294836521E+00
  0.805218601227E+01  0.339639574289E+00 -0.108925747871E+01
  0.805218601227E+01  0.339639574289E+00  0.108925747871E+01
  0.821142387390E+01  0.478677463531E+01 -0.102349066734E+01
  0.821142387390E+01  0.478677463531E+01  0.102349066734E+01
[...]
CELL_DATA                3576
SCALARS C_p_inc float 1
LOOKUP_TABLE default
  0.169561582646E+00
  0.129125697912E+00
  0.952743025113E-01
  0.635125824061E-01
  0.512317502097E-01
  0.317771487299E-01
  0.191335879177E-01
  0.643241721851E-02
 -0.786858874234E-02
 -0.174405168363E-01
 -0.337596451146E-01
 -0.416642744897E-01
 -0.606035322553E-01
 -0.677968995548E-01
 -0.897281305556E-01
 -0.966684803844E-01
 -0.121000881656E+00
 -0.127746871121E+00
 -0.149889513721E+00
 -0.155256787778E+00
 -0.175075404951E+00
 -0.171637074749E+00
 -0.180120131375E+00
 -0.181253041438E+00
 -0.146148046762E+00
 -0.159058141462E+00
 -0.866022652228E-01
 -0.106609848655E+00
 -0.215596603877E-01
 -0.468331931935E-01
  0.506142453404E-01
  0.150643383477E-01
  0.143670192068E+00
  0.905999417124E-01
  0.271238007426E+00
  0.195092234170E+00
  0.483853275183E+00
  0.407181805377E+00
  0.720238146189E+00
  0.729047206370E+00
  0.557102943716E+00
  0.602733758645E+00
  0.117187231227E+00
  0.269503344335E+00
 -0.668776983481E-01
  0.419156637028E-01
 -0.137915836789E+00
 -0.730460638138E-01
 -0.190589033550E+00
 -0.151824083503E+00
 -0.234623739720E+00
 -0.209365044802E+00
 -0.279758885052E+00
 -0.260882779422E+00
 -0.318084118535E+00
 -0.307347752201E+00
 -0.323793543839E+00
 -0.326065759564E+00
 -0.296471310327E+00
 -0.303256886459E+00
 -0.266697926465E+00
 -0.258334296805E+00
 -0.224108449177E+00
 -0.214476209803E+00
 -0.179650234442E+00
 -0.169920813619E+00
 -0.139213962674E+00
 -0.129188975317E+00
 -0.102978011752E+00
 -0.920281599622E-01
 -0.697291919984E-01
 -0.566775369798E-01
 -0.375363992288E-01
 -0.206145369378E-01
 -0.418632798246E-02
  0.207472729212E-01
  0.358942634555E-01
  0.750713157224E-01
  0.112213388730E+00
  0.161207743499E+00
  0.168731933179E+00
  0.167024688594E+00
  0.105357837422E+00
  0.948105472688E-01
  0.680218435751E-01
  0.511295976521E-01
  0.334780299371E-01
  0.191042222371E-01
  0.307743880318E-02
 -0.787247365876E-02
 -0.249521468195E-01
 -0.337460965593E-01
 -0.530047423628E-01
 -0.605717658707E-01
 -0.828824904498E-01
 -0.896780508050E-01
 -0.114993194579E+00
 -0.120952019822E+00
 -0.145630841669E+00
 -0.149933593189E+00
 -0.172132535527E+00
 -0.170106766363E+00
 -0.181799780041E+00
 -0.185093803453E+00
 -0.158945727765E+00
 -0.171302740946E+00
 -0.105876305461E+00
 -0.124772174715E+00
 -0.457880794563E-01
 -0.692475212654E-01
  0.163909031617E-01
 -0.121937889141E-01
  0.912087130563E-01
  0.579337721844E-01
  0.189759612224E+00
  0.156527930133E+00
  0.363627540153E+00
  0.345961753260E+00
  0.594215352975E+00
  0.595216486404E+00
  0.418477027037E+00
  0.435732743132E+00
  0.402018216538E-01
  0.101387926933E+00
 -0.126128790592E+00
 -0.611417442674E-01
 -0.185054951033E+00
 -0.133942349434E+00
 -0.226199566796E+00
 -0.188644586588E+00
 -0.261107032398E+00
 -0.233806577674E+00
 -0.299371931064E+00
 -0.279560538722E+00
 -0.329841301215E+00
 -0.318697044108E+00
 -0.325514558790E+00
 -0.325001251818E+00
 -0.292134162095E+00
 -0.297387713705E+00
 -0.258340238126E+00
 -0.251251462891E+00
 -0.214374572523E+00
 -0.205554487992E+00
 -0.169831072339E+00
 -0.160097581849E+00
 -0.129131913575E+00
 -0.118453409747E+00
 -0.920008033828E-01
 -0.797624344891E-01
 -0.566773452043E-01
 -0.417409293479E-01
 -0.206518004986E-01
 -0.154446519815E-02
  0.206094673667E-01
  0.428508469343E-01
  0.744562899166E-01
  0.898485213193E-01
  0.157992502368E+00
  0.162343020257E+00
  0.167548534990E+00
  0.167351950890E+00
  0.107868588756E+00
  0.104697601350E+00
  0.759471906765E-01
  0.677238236604E-01
  0.452717887927E-01
  0.333807613814E-01
  0.144711910211E-01
  0.305525918566E-02
 -0.153546056206E-01
 -0.249373456952E-01
 -0.448573554418E-01
 -0.529608398655E-01
 -0.757923144973E-01
 -0.828120622482E-01
 -0.109020911816E+00
 -0.114923001704E+00
 -0.141530457236E+00
 -0.145674549209E+00
 -0.170785882282E+00
 -0.168993967357E+00
 -0.185484143767E+00
 -0.188821017601E+00
 -0.170662184537E+00
 -0.181485778206E+00
 -0.123384347832E+00
 -0.140454607782E+00
 -0.677115067615E-01
 -0.886706568740E-01
 -0.109952391436E-01
 -0.345674561682E-01
  0.573237057290E-01
  0.330262623044E-01
  0.150503725591E+00
  0.129494123257E+00
  0.324022776477E+00
  0.314821729849E+00
  0.551954561733E+00
  0.551422807067E+00
  0.358155719498E+00
  0.372324585723E+00
 -0.150976807462E-01
  0.294774863043E-01
 -0.173294303495E+00
 -0.123368608145E+00
 -0.224063269559E+00
 -0.181019672340E+00
 -0.257692149831E+00
 -0.222971513037E+00
 -0.285817307082E+00
 -0.258974756547E+00
 -0.317583590119E+00
 -0.298233281562E+00
 -0.340395712512E+00
 -0.330030623956E+00
 -0.327903774721E+00
 -0.326882323181E+00
 -0.288668026315E+00
 -0.293570556034E+00
 -0.251257603372E+00
 -0.244416729689E+00
 -0.205415518944E+00
 -0.196608343404E+00
 -0.159969910156E+00
 -0.149844744463E+00
 -0.118370518351E+00
 -0.106883278824E+00
 -0.797257097063E-01
 -0.663576800621E-01
 -0.417597432539E-01
 -0.260898425262E-01
 -0.166987117672E-02
  0.146895639151E-01
  0.424485014405E-01
  0.545964329041E-01
  0.889370544583E-01
  0.948604022717E-01
  0.160481894114E+00
  0.162256485042E+00
  0.166711289201E+00
  0.166591667945E+00
  0.108937582697E+00
  0.107318843578E+00
  0.795550854645E-01
  0.755957001440E-01
  0.524704555636E-01
  0.450956153792E-01
  0.241892689077E-01
  0.144166034554E-01
 -0.564950819705E-02
 -0.153432026294E-01
 -0.362782732822E-01
 -0.448048688487E-01
 -0.684044340742E-01
 -0.757114520206E-01
 -0.102936361538E+00
 -0.108949730314E+00
 -0.137379136208E+00
 -0.141593252565E+00
 -0.169769366907E+00
 -0.167830516750E+00
 -0.189221284147E+00
 -0.192054547993E+00
 -0.180913677900E+00
 -0.190080418792E+00
 -0.139137716018E+00
 -0.153913832412E+00
 -0.872748701050E-01
 -0.105363782426E+00
 -0.337032970748E-01
 -0.531854761135E-01
  0.321828569611E-01
  0.135310406353E-01
  0.124769125688E+00
  0.110082642546E+00
  0.300827563228E+00
  0.295354750062E+00
  0.527165661446E+00
  0.526219617534E+00
  0.316794399695E+00
  0.329892786844E+00
 -0.586817034012E-01
 -0.221787179835E-01
 -0.212681720799E+00
 -0.171317418639E+00
 -0.257931808397E+00
 -0.220656935363E+00
 -0.286135234965E+00
 -0.254565692956E+00
 -0.308680742593E+00
 -0.283561323635E+00
 -0.334394085850E+00
 -0.316419388408E+00
 -0.350052966201E+00
 -0.340710457136E+00
 -0.330359653515E+00
 -0.329430990346E+00
 -0.285491238687E+00
 -0.290404803978E+00
 -0.244480308918E+00
 -0.237628175557E+00
 -0.196473717575E+00
 -0.187496910796E+00
 -0.149698708875E+00
 -0.139124304301E+00
 -0.106781679929E+00
 -0.946471540153E-01
 -0.663184485895E-01
 -0.526791185792E-01
 -0.261470209585E-01
 -0.123317750830E-01
  0.144584998514E-01
  0.254241751437E-01
  0.541133882218E-01
  0.608011094585E-01
  0.940941966707E-01
  0.976180986507E-01
  0.160965281117E+00
  0.162541470403E+00
  0.166834447896E+00
  0.166024449631E+00
  0.109841953459E+00
  0.108507047991E+00
  0.816909037644E-01
  0.792458687076E-01
  0.566924101555E-01
  0.522717471539E-01
  0.310643667234E-01
  0.240994247535E-01
  0.292767803829E-02
 -0.565155658171E-02
 -0.277352513680E-01
 -0.362238460199E-01
 -0.608097581892E-01
 -0.683192062729E-01
 -0.966854206954E-01
 -0.102868873961E+00
 -0.133061048153E+00
 -0.137455850479E+00
 -0.168688559602E+00
 -0.166368887890E+00
 -0.192542906803E+00
 -0.194553658626E+00
 -0.189711829196E+00
 -0.197089887894E+00
 -0.152847716847E+00
 -0.164944914318E+00
 -0.104214031087E+00
 -0.119177245707E+00
 -0.525526178447E-01
 -0.684123215493E-01
  0.127572616690E-01
 -0.180995334281E-02
  0.106539266416E+00
  0.958050862928E-01
  0.285928019614E+00
  0.282575199985E+00
  0.511124481365E+00
  0.510105992371E+00
  0.285115425328E+00
  0.297709952644E+00
 -0.951350719191E-01
 -0.634899959297E-01
 -0.246719907669E+00
 -0.211096178479E+00
 -0.287781111360E+00
 -0.255120899975E+00
 -0.311601277937E+00
 -0.283412438477E+00
 -0.329218201743E+00
 -0.306690882886E+00
 -0.349348781574E+00
 -0.333509297427E+00
 -0.358674589508E+00
 -0.350629448888E+00
 -0.332529203282E+00
 -0.332076322970E+00
 -0.282303591576E+00
 -0.287457111884E+00
 -0.237758901749E+00
 -0.230770350690E+00
 -0.187384288249E+00
 -0.178182009252E+00
 -0.138974553751E+00
 -0.128077824464E+00
 -0.945392035061E-01
 -0.823590286603E-01
 -0.526532048724E-01
 -0.402972937484E-01
 -0.124339991171E-01
 -0.204263454603E-02
  0.251625040641E-01
  0.322957431669E-01
  0.603792074568E-01
  0.647525050114E-01
  0.970238794810E-01
  0.995193716562E-01
  0.161592046638E+00
  0.162521381587E+00
  0.167128698850E+00
  0.166291287487E+00
  0.110734799325E+00
  0.109501866211E+00
  0.832829616890E-01
  0.814369827120E-01
  0.594622456390E-01
  0.565118079332E-01
  0.356469232093E-01
  0.309607105168E-01
  0.953812768291E-02
  0.290680398471E-02
 -0.200181118590E-01
 -0.276871149525E-01
 -0.533233021979E-01
 -0.607241977520E-01
 -0.903123964032E-01
 -0.966195769719E-01
 -0.128499480474E+00
 -0.133137358680E+00
 -0.167288799620E+00
 -0.164426251899E+00
 -0.195152941550E+00
 -0.196103162239E+00
 -0.196960058211E+00
 -0.202430921477E+00
 -0.164196806417E+00
 -0.173558719055E+00
 -0.118312532232E+00
 -0.130097586873E+00
 -0.679502968257E-01
 -0.804269220363E-01
 -0.241663408804E-02
 -0.136299870833E-01
  0.932402052300E-01
  0.854015106213E-01
  0.276160479312E+00
  0.274261804728E+00
  0.500476708734E+00
  0.499502583763E+00
  0.259511319254E+00
  0.271752091649E+00
 -0.126555067729E+00
 -0.984083853624E-01
 -0.276542542429E+00
 -0.245411262645E+00
 -0.314046720003E+00
 -0.285539899814E+00
 -0.334016261903E+00
 -0.309431362981E+00
 -0.347169121569E+00
 -0.327709964605E+00
 -0.362261512313E+00
 -0.348889616400E+00
 -0.366017294928E+00
 -0.359549707536E+00
 -0.334085714641E+00
 -0.334427556357E+00
 -0.278867859320E+00
 -0.284432531023E+00
 -0.230954530313E+00
 -0.223763360726E+00
 -0.178094650313E+00
 -0.168745618007E+00
 -0.127934131738E+00
 -0.117135665783E+00
 -0.822592240375E-01
 -0.710572353510E-01
 -0.402954524959E-01
 -0.303670339871E-01
 -0.216207055528E-02
  0.523810359760E-02
  0.320650431906E-01
  0.370292872355E-01
  0.644215885508E-01
  0.676250315458E-01
  0.990805554355E-01
  0.101073743174E+00
  0.161869034170E+00
  0.162839280310E+00
  0.167394046936E+00
  0.166702663674E+00
  0.111543544149E+00
  0.110463333031E+00
  0.845777490046E-01
  0.830774199630E-01
  0.614869272448E-01
  0.593101491216E-01
  0.388120254059E-01
  0.355489927444E-01
  0.142816802536E-01
  0.950427737627E-02
 -0.137644393594E-01
 -0.199835805281E-01
 -0.464756695203E-01
 -0.532424282520E-01
 -0.840256253551E-01
 -0.902446096501E-01
 -0.123705791937E+00
 -0.128560270385E+00
 -0.165381261759E+00
 -0.161915391239E+00
 -0.196815502546E+00
 -0.196582402775E+00
 -0.202546066027E+00
 -0.206073454317E+00
 -0.173133285193E+00
 -0.179850278442E+00
 -0.129516059424E+00
 -0.138228449172E+00
 -0.801031922702E-01
 -0.893954307738E-01
 -0.140519917771E-01
 -0.222826004242E-01
  0.836455057468E-01
  0.782223218826E-01
  0.270033219488E+00
  0.269308386943E+00
  0.493593282769E+00
  0.492698597037E+00
  0.238300453801E+00
  0.250146298306E+00
 -0.153882825043E+00
 -0.128731485288E+00
 -0.302610490632E+00
 -0.275486827819E+00
 -0.336862881899E+00
 -0.312360521712E+00
 -0.353312617097E+00
 -0.332456777037E+00
 -0.362418792801E+00
 -0.346225358975E+00
 -0.373044392941E+00
 -0.362273341108E+00
 -0.371899214424E+00
 -0.367203055413E+00
 -0.334803708012E+00
 -0.336145334451E+00
 -0.275047113990E+00
 -0.281091349258E+00
 -0.223976428764E+00
 -0.216627734160E+00
 -0.168679372764E+00
 -0.159478469267E+00
 -0.117007362278E+00
 -0.107016482479E+00
 -0.709792410977E-01
 -0.616352734286E-01
 -0.303838227338E-01
 -0.229203390215E-01
  0.513074184258E-02
  0.104831001396E-01
  0.368505481961E-01
  0.405466425834E-01
  0.673843868629E-01
  0.699349587498E-01
  0.100766797532E+00
  0.102533199755E+00
  0.162396793745E+00
  0.163525777248E+00
  0.167798137631E+00
  0.167068308176E+00
  0.112321913531E+00
  0.111329417890E+00
  0.856828478109E-01
  0.844129145633E-01
  0.630673422200E-01
  0.613623970540E-01
  0.411220511026E-01
  0.387273669163E-01
  0.176673510561E-01
  0.142442027638E-01
 -0.906282102115E-02
 -0.137448582712E-01
 -0.407518687640E-01
 -0.464058279144E-01
 -0.781972430139E-01
 -0.839551202005E-01
 -0.118833948853E+00
 -0.123739833627E+00
 -0.162866276670E+00
 -0.158869717374E+00
 -0.197384456495E+00
 -0.195982814835E+00
 -0.206408819930E+00
 -0.208056876652E+00
 -0.179716098976E+00
 -0.183959563712E+00
 -0.137903680302E+00
 -0.143773566268E+00
 -0.891907581329E-01
 -0.955475075090E-01
 -0.225397228938E-01
 -0.280577242907E-01
  0.771278552344E-01
  0.738576111821E-01
  0.266755506305E+00
  0.267072046178E+00
  0.489532670537E+00
  0.488722496179E+00
  0.220606527286E+00
  0.231923135366E+00
 -0.177533669031E+00
 -0.155258418433E+00
 -0.325101821744E+00
 -0.301812407897E+00
 -0.356293000524E+00
 -0.335707786758E+00
 -0.369501185713E+00
 -0.352353501533E+00
 -0.374970376075E+00
 -0.362031644520E+00
 -0.381660547993E+00
 -0.373504665706E+00
 -0.376217447648E+00
 -0.373366247174E+00
 -0.334582041002E+00
 -0.336974313660E+00
 -0.270843921145E+00
 -0.277279481994E+00
 -0.216843258345E+00
 -0.209559792957E+00
 -0.159429388707E+00
 -0.150888594573E+00
 -0.106914038144E+00
 -0.984099587352E-01
 -0.615838784607E-01
 -0.543246009707E-01
 -0.229428189269E-01
 -0.174181067125E-01
  0.104010784028E-01
  0.143984962387E-01
  0.404208039738E-01
  0.433024608049E-01
  0.697714497246E-01
  0.718766630988E-01
  0.102328052413E+00
  0.103875797840E+00
  0.163229920328E+00
  0.164262042270E+00
  0.168324199283E+00
  0.167542797406E+00
  0.113090642321E+00
  0.112152440051E+00
  0.866653220187E-01
  0.855511342616E-01
  0.643607878532E-01
  0.629665180708E-01
  0.428886564159E-01
  0.410514750803E-01
  0.201435897928E-01
  0.176319089013E-01
 -0.562368485422E-02
 -0.905428838846E-02
 -0.363050500521E-01
 -0.406969990920E-01
 -0.732009997351E-01
 -0.781276708917E-01
 -0.114177038915E+00
 -0.118837294606E+00
 -0.159764258202E+00
 -0.155465430972E+00
 -0.196827054946E+00
 -0.194426231900E+00
 -0.208561674938E+00
 -0.208520617539E+00
 -0.184064555185E+00
 -0.186091558577E+00
 -0.143664797288E+00
 -0.147002283984E+00
 -0.954456847161E-01
 -0.991845658304E-01
 -0.281854928236E-01
 -0.312806998236E-01
  0.732853905792E-01
  0.719391369956E-01
  0.265811985751E+00
  0.267061813551E+00
  0.487626954000E+00
  0.486896482858E+00
  0.205886958331E+00
  0.216511352615E+00
 -0.197737179273E+00
 -0.178333976837E+00
 -0.344137325170E+00
 -0.324564024316E+00
 -0.372441546763E+00
 -0.355622451541E+00
 -0.382681010775E+00
 -0.369082234034E+00
 -0.384910835734E+00
 -0.375074748614E+00
 -0.388157589072E+00
 -0.382500202687E+00
 -0.378991387845E+00
 -0.377893032505E+00
 -0.333476652628E+00
 -0.336777157822E+00
 -0.266439560572E+00
 -0.272977068274E+00
 -0.209758016465E+00
 -0.202937721443E+00
 -0.150857659565E+00
 -0.143503811691E+00
 -0.983399033329E-01
 -0.916019174725E-01
 -0.542951576612E-01
 -0.488460710125E-01
 -0.174373011325E-01
 -0.133199474757E-01
  0.143435588428E-01
  0.174004447685E-01
  0.432222405037E-01
  0.455118968305E-01
  0.717749111421E-01
  0.735128154208E-01
  0.103750060483E+00
  0.105064511269E+00
  0.164083916895E+00
  0.164957283274E+00
  0.168818532154E+00
  0.168115898049E+00
  0.113799342046E+00
  0.112953064254E+00
  0.875337971174E-01
  0.865584499644E-01
  0.654447489623E-01
  0.642786448824E-01
  0.442874212462E-01
  0.428302944494E-01
  0.220105579180E-01
  0.201121553889E-01
 -0.309589476424E-02
 -0.562164505605E-02
 -0.329792861134E-01
 -0.362644185521E-01
 -0.692049965901E-01
 -0.731374780638E-01
 -0.110049858316E+00
 -0.114153991015E+00
 -0.156247854776E+00
 -0.151996710178E+00
 -0.195248762415E+00
 -0.192170195834E+00
 -0.209124789467E+00
 -0.207722142181E+00
 -0.186369510212E+00
 -0.186536763895E+00
 -0.147060098002E+00
 -0.148248518930E+00
 -0.991673728132E-01
 -0.100670925833E+00
 -0.313169069731E-01
 -0.323339725272E-01
  0.717569346714E-01
  0.720667468791E-01
  0.266765330505E+00
  0.268809866230E+00
  0.487317281568E+00
  0.486659177020E+00
  0.193724009291E+00
  0.203508559457E+00
 -0.214703221035E+00
 -0.198142867711E+00
 -0.359881912761E+00
 -0.343846016721E+00
 -0.385492154658E+00
 -0.372184735397E+00
 -0.393042123649E+00
 -0.382707863790E+00
 -0.392423320986E+00
 -0.385404358727E+00
 -0.392703856261E+00
 -0.389269734919E+00
 -0.380397283301E+00
 -0.380763991408E+00
 -0.331721364120E+00
 -0.335580044701E+00
 -0.262172730942E+00
 -0.268356310152E+00
 -0.203111137070E+00
 -0.197180399566E+00
 -0.143494384582E+00
 -0.137599090267E+00
 -0.915627617976E-01
 -0.864625987974E-01
 -0.488312833872E-01
 -0.447857568433E-01
 -0.133324671002E-01
 -0.102365649781E-01
  0.173690930973E-01
  0.197342292550E-01
  0.454682005239E-01
  0.472997747787E-01
  0.734595052146E-01
  0.748982022871E-01
  0.105001351567E+00
  0.106134208315E+00
  0.164873392962E+00
  0.165685826920E+00
  0.169219438711E+00
  0.168646277200E+00
  0.114417277641E+00
  0.113685113282E+00
  0.882855216553E-01
  0.874450069034E-01
  0.663550550966E-01
  0.653764312081E-01
  0.454167544547E-01
  0.442385380916E-01
  0.234555469258E-01
  0.219831160808E-01
 -0.120338713513E-02
 -0.309727315353E-02
 -0.305093377494E-01
 -0.329495506595E-01
 -0.661397085276E-01
 -0.691501491104E-01
 -0.106631063718E+00
 -0.110009642684E+00
 -0.152626396740E+00
 -0.148767509073E+00
 -0.192905813057E+00
 -0.189563933365E+00
 -0.208347172992E+00
 -0.206025887810E+00
 -0.186913905107E+00
 -0.185676919081E+00
 -0.148418447406E+00
 -0.147916737031E+00
 -0.100716572667E+00
 -0.100431312365E+00
 -0.323116418081E-01
 -0.316529821510E-01
  0.721540646712E-01
  0.737976487451E-01
  0.269182616350E+00
  0.271841648825E+00
  0.488105404479E+00
  0.487512232139E+00
  0.183744431074E+00
  0.192581578694E+00
 -0.228689753787E+00
 -0.214856771937E+00
 -0.372585379537E+00
 -0.359803169340E+00
 -0.395724573058E+00
 -0.385558280293E+00
 -0.400881013543E+00
 -0.393397677941E+00
 -0.397809553540E+00
 -0.393178472280E+00
 -0.395609163101E+00
 -0.393954739173E+00
 -0.380768323078E+00
 -0.382131798584E+00
 -0.329683119140E+00
 -0.333610121358E+00
 -0.258405481944E+00
 -0.263780513758E+00
 -0.197331859399E+00
 -0.192539826437E+00
 -0.137611292178E+00
 -0.133127686962E+00
 -0.864476471883E-01
 -0.826767676604E-01
 -0.447798879545E-01
 -0.417826794763E-01
 -0.102423768371E-01
 -0.790054662638E-02
  0.197213647789E-01
  0.215627372446E-01
  0.472837354406E-01
  0.487549951258E-01
  0.748810915999E-01
  0.760773804844E-01
  0.106116995182E+00
  0.107102257610E+00
  0.165668026373E+00
  0.166450891214E+00
  0.169766346862E+00
  0.169078710162E+00
  0.115025196783E+00
  0.114321484418E+00
  0.889588108189E-01
  0.882102180067E-01
  0.671300119604E-01
  0.662967783182E-01
  0.463409306514E-01
  0.453747788634E-01
  0.245961549545E-01
  0.234313164160E-01
  0.243445628642E-03
 -0.120652615687E-02
 -0.286556209961E-01
 -0.304870703118E-01
 -0.638191148265E-01
 -0.660931541977E-01
 -0.103917999450E+00
 -0.106582520609E+00
 -0.149234652619E+00
 -0.145968654237E+00
 -0.190166411279E+00
 -0.186944639388E+00
 -0.206600948624E+00
 -0.203843078386E+00
 -0.186081670198E+00
 -0.183954809256E+00
 -0.148144187702E+00
 -0.146467902214E+00
 -0.100515560596E+00
 -0.989391116266E-01
 -0.315980221371E-01
 -0.297123782806E-01
  0.740496200918E-01
  0.766592478444E-01
  0.272624467835E+00
  0.275686094109E+00
  0.489549819321E+00
  0.489015151072E+00
  0.175592008911E+00
  0.183427829090E+00
 -0.240027933568E+00
 -0.228698278459E+00
 -0.382600651688E+00
 -0.372668035074E+00
 -0.403523016928E+00
 -0.396010176897E+00
 -0.406605624412E+00
 -0.401436662130E+00
 -0.401487443323E+00
 -0.398688181955E+00
 -0.397299088715E+00
 -0.396858406199E+00
 -0.380527463602E+00
 -0.382335729393E+00
 -0.327732709128E+00
 -0.331265444803E+00
 -0.255359928004E+00
 -0.259669419146E+00
 -0.192675282096E+00
 -0.189022620253E+00
 -0.133157312364E+00
 -0.129855788365E+00
 -0.826785416245E-01
 -0.799202207841E-01
 -0.417821111394E-01
 -0.395602413202E-01