# vtk DataFile Version 3.0
MachLine results file. Generated by MachLine, USU AeroLab (c) 2022.
ASCII
DATASET POLYDATA
POINTS                7064 float
  0.000000000000E+00  0.000000000000E+00  0.000000000000E+00
  0.389988087118E-01  0.000000000000E+00 -0.109218262136E+00
  0.389988087118E-01  0.000000000000E+00  0.109218262136E+00
  0.147665724158E+00  0.000000000000E+00 -0.234920635819E+00
  0.147665724158E+00  0.000000000000E+00  0.234920635819E+00
  0.161138445139E+00  0.161138445139E+00  0.000000000000E+00
  0.200137257576E+00  0.161138445139E+00 -0.109218269587E+00
  0.200137257576E+00  0.161138445139E+00  0.109218269587E+00
  0.290265858173E+00  0.000000000000E+00 -0.347333192825E+00
  0.290265858173E+00  0.000000000000E+00  0.347333192825E+00
  0.308804154396E+00  0.161138445139E+00 -0.234920650721E+00
  0.308804154396E+00  0.161138445139E+00  0.234920650721E+00
  0.335006117821E+00  0.335006117821E+00  0.000000000000E+00
  0.374004930258E+00  0.335006117821E+00 -0.109218277037E+00
  0.374004930258E+00  0.335006117821E+00  0.109218277037E+00
  0.451404303312E+00  0.161138445139E+00 -0.347333222628E+00
  0.451404303312E+00  0.161138445139E+00  0.347333222628E+00
  0.473465979099E+00  0.000000000000E+00 -0.436293870211E+00
  0.473465979099E+00  0.000000000000E+00  0.436293870211E+00
  0.482671856880E+00  0.335006117821E+00 -0.234920650721E+00
  0.482671856880E+00  0.335006117821E+00  0.234920650721E+00
  0.522506594658E+00  0.522506594658E+00  0.000000000000E+00
  0.561505436897E+00  0.522506594658E+00 -0.109218284488E+00
  0.561505436897E+00  0.522506594658E+00  0.109218284488E+00
  0.625271975994E+00  0.335006117821E+00 -0.347333222628E+00
  0.625271975994E+00  0.335006117821E+00  0.347333222628E+00
  0.634604454041E+00  0.161138445139E+00 -0.436293900013E+00
  0.634604454041E+00  0.161138445139E+00  0.436293900013E+00
  0.670172333717E+00  0.522506594658E+00 -0.234920665622E+00
  0.670172333717E+00  0.522506594658E+00  0.234920665622E+00
  0.689334988594E+00  0.000000000000E+00 -0.522850036621E+00
  0.689334988594E+00  0.000000000000E+00  0.522850036621E+00
  0.724590361118E+00  0.724590361118E+00  0.000000000000E+00
  0.763589203358E+00  0.724590361118E+00 -0.109218291938E+00
  0.763589203358E+00  0.724590361118E+00  0.109218291938E+00
  0.808472156525E+00  0.335006117821E+00 -0.436293929815E+00
  0.808472156525E+00  0.335006117821E+00  0.436293929815E+00
  0.812772512436E+00  0.522506594658E+00 -0.347333252430E+00
  0.812772512436E+00  0.522506594658E+00  0.347333252430E+00
  0.850473463535E+00  0.161138445139E+00 -0.522850036621E+00
  0.850473463535E+00  0.161138445139E+00  0.522850036621E+00
  0.872256100178E+00  0.724590361118E+00 -0.234920680523E+00
  0.872256100178E+00  0.724590361118E+00  0.234920680523E+00
  0.942254066467E+00  0.942254066467E+00  0.000000000000E+00
  0.944064557552E+00  0.000000000000E+00 -0.604293465614E+00
  0.944064557552E+00  0.000000000000E+00  0.604293465614E+00
  0.981252849102E+00  0.942254066467E+00 -0.109218299389E+00
  0.981252849102E+00  0.942254066467E+00  0.109218299389E+00
  0.995972692966E+00  0.522506594658E+00 -0.436293959618E+00
  0.995972692966E+00  0.522506594658E+00  0.436293959618E+00
  0.101485633850E+01  0.724590361118E+00 -0.347333282232E+00
  0.101485633850E+01  0.724590361118E+00  0.347333282232E+00
  0.102434122562E+01  0.335006117821E+00 -0.522850096226E+00
  0.102434122562E+01  0.335006117821E+00  0.522850096226E+00
  0.108991980553E+01  0.942254066467E+00 -0.234920710325E+00
  0.108991980553E+01  0.942254066467E+00  0.234920710325E+00
  0.110520303249E+01  0.161138445139E+00 -0.604293525219E+00
  0.110520303249E+01  0.161138445139E+00  0.604293525219E+00
  0.117653930187E+01  0.117653930187E+01  0.000000000000E+00
  0.119805645943E+01  0.724590361118E+00 -0.436293989420E+00
  0.119805645943E+01  0.724590361118E+00  0.436293989420E+00
  0.121184170246E+01  0.522506594658E+00 -0.522850096226E+00
  0.121184170246E+01  0.522506594658E+00  0.522850096226E+00
  0.121553814411E+01  0.117653930187E+01 -0.109218306839E+00
  0.121553814411E+01  0.117653930187E+01  0.109218306839E+00
  0.123251998425E+01  0.942254066467E+00 -0.347333312035E+00
  0.123251998425E+01  0.942254066467E+00  0.347333312035E+00
  0.123833239079E+01  0.000000000000E+00 -0.683996438980E+00
  0.123833239079E+01  0.000000000000E+00  0.683996438980E+00
  0.127907073498E+01  0.335006117821E+00 -0.604293525219E+00
  0.127907073498E+01  0.335006117821E+00  0.604293525219E+00
  0.132420504093E+01  0.117653930187E+01 -0.234920725226E+00
  0.132420504093E+01  0.117653930187E+01  0.234920725226E+00
  0.139947092533E+01  0.161138445139E+00 -0.683996498585E+00
  0.139947092533E+01  0.161138445139E+00  0.683996498585E+00
  0.141392552853E+01  0.724590361118E+00 -0.522850155830E+00
  0.141392552853E+01  0.724590361118E+00  0.522850155830E+00
  0.141572022438E+01  0.942254066467E+00 -0.436294019222E+00
  0.141572022438E+01  0.942254066467E+00  0.436294019222E+00
  0.142853081226E+01  0.142853081226E+01  0.000000000000E+00
  0.146657133102E+01  0.522506594658E+00 -0.604293584824E+00
  0.146657133102E+01  0.522506594658E+00  0.604293584824E+00
  0.146680521965E+01  0.117653930187E+01 -0.347333341837E+00
  0.146680521965E+01  0.117653930187E+01  0.347333341837E+00
  0.146752965450E+01  0.142853081226E+01 -0.109218314290E+00
  0.146752965450E+01  0.142853081226E+01  0.109218314290E+00
  0.157333862782E+01  0.335006117821E+00 -0.683996558189E+00
  0.157333862782E+01  0.335006117821E+00  0.683996558189E+00
  0.157619655132E+01  0.142853081226E+01 -0.234920740128E+00
  0.157619655132E+01  0.142853081226E+01  0.234920740128E+00
  0.157641971111E+01  0.000000000000E+00 -0.760520398617E+00
  0.157641971111E+01  0.000000000000E+00  0.760520398617E+00
  0.163158929348E+01  0.942254066467E+00 -0.522850155830E+00
  0.163158929348E+01  0.942254066467E+00  0.522850155830E+00
  0.165000545979E+01  0.117653930187E+01 -0.436294049025E+00
  0.165000545979E+01  0.117653930187E+01  0.436294049025E+00
  0.166865515709E+01  0.724590361118E+00 -0.604293584824E+00
  0.166865515709E+01  0.724590361118E+00  0.604293584824E+00
  0.169935321808E+01  0.169935321808E+01  0.000000000000E+00
  0.171879673004E+01  0.142853081226E+01 -0.347333371639E+00
  0.171879673004E+01  0.142853081226E+01  0.347333371639E+00
  0.173755824566E+01  0.161138445139E+00 -0.760520458221E+00
  0.173755824566E+01  0.161138445139E+00  0.760520458221E+00
  0.173835194111E+01  0.169935321808E+01 -0.109218329191E+00
  0.173835194111E+01  0.169935321808E+01  0.109218329191E+00
  0.176083922386E+01  0.522506594658E+00 -0.683996558189E+00
  0.176083922386E+01  0.522506594658E+00  0.683996558189E+00
  0.184701895714E+01  0.169935321808E+01 -0.234920755029E+00
  0.184701895714E+01  0.169935321808E+01  0.234920755029E+00
  0.186587452888E+01  0.117653930187E+01 -0.522850215435E+00
  0.186587452888E+01  0.117653930187E+01  0.522850215435E+00
  0.188631892204E+01  0.942254066467E+00 -0.604293644428E+00
  0.188631892204E+01  0.942254066467E+00  0.604293644428E+00
  0.190199697018E+01  0.142853081226E+01 -0.436294078827E+00
  0.190199697018E+01  0.142853081226E+01  0.436294078827E+00
  0.191142594814E+01  0.335006117821E+00 -0.760520458221E+00
  0.191142594814E+01  0.335006117821E+00  0.760520458221E+00
  0.196138751507E+01  0.000000000000E+00 -0.833668828011E+00
  0.196138751507E+01  0.000000000000E+00  0.833668828011E+00
  0.196292304993E+01  0.724590361118E+00 -0.683996617794E+00
  0.196292304993E+01  0.724590361118E+00  0.683996617794E+00
  0.198961913586E+01  0.169935321808E+01 -0.347333401442E+00
  0.198961913586E+01  0.169935321808E+01  0.347333401442E+00
  0.199016737938E+01  0.199016737938E+01  0.000000000000E+00
  0.202916622162E+01  0.199016737938E+01 -0.109218336642E+00
  0.202916622162E+01  0.199016737938E+01  0.109218336642E+00
  0.209892654419E+01  0.522506594658E+00 -0.760520517826E+00
  0.209892654419E+01  0.522506594658E+00  0.760520517826E+00
  0.211786603928E+01  0.142853081226E+01 -0.522850275040E+00
  0.211786603928E+01  0.142853081226E+01  0.522850275040E+00
  0.212060427666E+01  0.117653930187E+01 -0.604293704033E+00
  0.212060427666E+01  0.117653930187E+01  0.604293704033E+00
  0.212252616882E+01  0.161138445139E+00 -0.833668828011E+00
  0.212252616882E+01  0.161138445139E+00  0.833668828011E+00
  0.213783311844E+01  0.199016737938E+01 -0.234920784831E+00
  0.213783311844E+01  0.199016737938E+01  0.234920784831E+00
  0.217281937599E+01  0.169935321808E+01 -0.436294138432E+00
  0.217281937599E+01  0.169935321808E+01  0.436294138432E+00
  0.218058681488E+01  0.942254066467E+00 -0.683996677399E+00
  0.218058681488E+01  0.942254066467E+00  0.683996677399E+00
  0.228043341637E+01  0.199016737938E+01 -0.347333431244E+00
  0.228043341637E+01  0.199016737938E+01  0.347333431244E+00
  0.229639387131E+01  0.335006117821E+00 -0.833668887615E+00
  0.229639387131E+01  0.335006117821E+00  0.833668887615E+00
  0.230101037025E+01  0.724590361118E+00 -0.760520577431E+00
  0.230101037025E+01  0.724590361118E+00  0.760520577431E+00
  0.230216526985E+01  0.230216526985E+01  0.000000000000E+00
  0.234116411209E+01  0.230216526985E+01 -0.109218344092E+00
  0.234116411209E+01  0.230216526985E+01  0.109218344092E+00
  0.237259578705E+01  0.142853081226E+01 -0.604293763638E+00
  0.237259578705E+01  0.142853081226E+01  0.604293763638E+00
  0.238868856430E+01  0.169935321808E+01 -0.522850275040E+00
  0.238868856430E+01  0.169935321808E+01  0.522850275040E+00
  0.239635515213E+01  0.000000000000E+00 -0.902061045170E+00
  0.239635515213E+01  0.000000000000E+00  0.902061045170E+00
  0.241487216949E+01  0.117653930187E+01 -0.683996737003E+00
  0.241487216949E+01  0.117653930187E+01  0.683996737003E+00
  0.244983124733E+01  0.230216526985E+01 -0.234920799732E+00
  0.244983124733E+01  0.230216526985E+01  0.234920799732E+00
  0.246363353729E+01  0.199016737938E+01 -0.436294168234E+00
  0.246363353729E+01  0.199016737938E+01  0.436294168234E+00
[...]
CELL_DATA               13888
SCALARS C_p_inc float 1
LOOKUP_TABLE default
  0.204218507347E+00
  0.163774098750E+00
  0.133544427459E+00
  0.101284040967E+00
  0.957631845180E-01
  0.746437282971E-01
  0.696813823367E-01
  0.554302473020E-01
  0.501350844112E-01
  0.397064291924E-01
  0.339981911752E-01
  0.259079956207E-01
  0.198177485911E-01
  0.132742699421E-01
  0.680570746225E-02
  0.132064343138E-02
 -0.563189414616E-02
 -0.104207960216E-01
 -0.180995721976E-01
 -0.224738536298E-01
 -0.308132188954E-01
 -0.348184116646E-01
 -0.434333789432E-01
 -0.470321563842E-01
 -0.560700231539E-01
 -0.594636145576E-01
 -0.700304446053E-01
 -0.736227955229E-01
 -0.844526844000E-01
 -0.876905313430E-01
 -0.992272170389E-01
 -0.102572103684E+00
 -0.116300024283E+00
 -0.120065397111E+00
 -0.131348105770E+00
 -0.133996792429E+00
 -0.145826531279E+00
 -0.149003635684E+00
 -0.158059717481E+00
 -0.160034239604E+00
 -0.171081743360E+00
 -0.168734897976E+00
 -0.177939302655E+00
 -0.176857818112E+00
 -0.179047652500E+00
 -0.179133921467E+00
 -0.179688842071E+00
 -0.180110205649E+00
 -0.161699092266E+00
 -0.167647733375E+00
 -0.133670874993E+00
 -0.141209991922E+00
 -0.102452114373E+00
 -0.111498582698E+00
 -0.690454759485E-01
 -0.794984677286E-01
 -0.350617953881E-01
 -0.466894827506E-01
 -0.261600888256E-02
 -0.154600581987E-01
  0.318573555848E-01
  0.157245738296E-01
  0.730984430074E-01
  0.520801173485E-01
  0.120089628865E+00
  0.940926514434E-01
  0.175898606931E+00
  0.143153501428E+00
  0.236407861114E+00
  0.196757333673E+00
  0.318586052373E+00
  0.267278576565E+00
  0.409154102898E+00
  0.348564395326E+00
  0.562218617113E+00
  0.506998799972E+00
  0.719144598717E+00
  0.705759724006E+00
  0.818927482693E+00
  0.824375681258E+00
  0.728251159927E+00
  0.741324543129E+00
  0.488986509582E+00
  0.551961407315E+00
  0.236765159515E+00
  0.345618931433E+00
  0.765328821228E-01
  0.168972022399E+00
  0.158985134626E-01
  0.854498018575E-01
 -0.420354727591E-01
  0.700279834370E-02
 -0.837478346602E-01
 -0.456269171736E-01
 -0.123408394446E+00
 -0.948097719875E-01
 -0.156569259492E+00
 -0.134508370622E+00
 -0.184441825397E+00
 -0.168429563444E+00
 -0.207355837663E+00
 -0.195195707862E+00
 -0.231248771901E+00
 -0.220372484484E+00
 -0.257514178401E+00
 -0.247896461683E+00
 -0.283122311551E+00
 -0.275038831298E+00
 -0.306309778791E+00
 -0.299865159735E+00
 -0.325978728772E+00
 -0.321252077924E+00
 -0.330161599417E+00
 -0.331579183573E+00
 -0.319870815446E+00
 -0.321464739555E+00
 -0.308849719847E+00
 -0.311594991718E+00
 -0.291998679998E+00
 -0.296007165014E+00
 -0.276425451776E+00
 -0.272976422456E+00
 -0.257506537660E+00
 -0.252822441189E+00
 -0.234806133824E+00
 -0.230764869414E+00
 -0.213810233526E+00
 -0.208609140739E+00
 -0.189452621366E+00
 -0.184743132071E+00
 -0.168367440412E+00
 -0.163788916615E+00
 -0.148544046532E+00
 -0.143586076643E+00
 -0.128970079060E+00
 -0.124207485573E+00
 -0.111540019420E+00
 -0.106523795653E+00
 -0.946027272354E-01
 -0.891032018216E-01
 -0.777597328425E-01
 -0.717976248476E-01
 -0.614254390626E-01
 -0.549291285770E-01
 -0.455856069948E-01
 -0.382312768580E-01
 -0.296576519943E-01
 -0.210320776725E-01
 -0.131208439775E-01
 -0.267104000577E-02
  0.456392526385E-02
  0.177187025932E-01
  0.242268216101E-01
  0.416982171874E-01
  0.475328085134E-01
  0.725365445327E-01
  0.785563272759E-01
  0.115392975068E+00
  0.145719252396E+00
  0.189733490526E+00
  0.200507095028E+00
  0.201429063732E+00
  0.141046564093E+00
  0.132995980883E+00
  0.110379461010E+00
  0.956212954097E-01
  0.837479475987E-01
  0.696310271306E-01
  0.614558903782E-01
  0.501109503478E-01
  0.429615955382E-01
  0.339845895127E-01
  0.270759152026E-01
  0.198094459644E-01
  0.128575194884E-01
  0.680046033222E-02
 -0.420661149053E-03
 -0.563499153722E-02
 -0.134596699689E-01
 -0.181002985919E-01
 -0.266047248435E-01
 -0.308113411160E-01
 -0.396018448481E-01
 -0.434297528413E-01
 -0.524848302200E-01
 -0.560649257778E-01
 -0.665026850000E-01
 -0.700211080315E-01
 -0.811195223126E-01
 -0.844422744018E-01
 -0.959405859230E-01
 -0.992137301313E-01
 -0.112990398804E+00
 -0.116280821258E+00
 -0.128624862960E+00
 -0.131343667951E+00
 -0.143228324818E+00
 -0.145823521531E+00
 -0.156193297835E+00
 -0.158088613961E+00
 -0.168878484974E+00
 -0.167158435908E+00
 -0.177029091342E+00
 -0.176352980331E+00
 -0.179311566775E+00
 -0.179876804766E+00
 -0.180337392639E+00
 -0.182267797858E+00
 -0.167703467335E+00
 -0.173200013963E+00
 -0.141137266812E+00
 -0.148716124903E+00
 -0.111333727290E+00
 -0.120417555949E+00
 -0.792623568611E-01
 -0.896454425219E-01
 -0.464078256292E-01
 -0.579625322018E-01
 -0.151324556393E-01
 -0.280532976491E-01
  0.161569317541E-01
  0.101746476015E-02
  0.525907814204E-01
  0.345771871302E-01
  0.945171365837E-01
  0.735402295287E-01
  0.143063226452E+00
  0.119288326835E+00
  0.195542709277E+00
  0.169216135398E+00
  0.262071084188E+00
  0.234905774603E+00
  0.336087878449E+00
  0.309529964692E+00
  0.460105317626E+00
  0.445858506867E+00
  0.608300450434E+00
  0.607573581045E+00
  0.688401045644E+00
  0.687807993293E+00
  0.593568332405E+00
  0.597265812015E+00
  0.392430765716E+00
  0.416373402462E+00
  0.167130269348E+00
  0.211695692918E+00
  0.230769041675E-01
  0.772196094209E-01
 -0.287305662561E-01
  0.175586670994E-01
 -0.796054751675E-01
 -0.399400713567E-01
 -0.114922086173E+00
 -0.822219057345E-01
 -0.149170747104E+00
 -0.122362309024E+00
 -0.177534664348E+00
 -0.155933482637E+00
 -0.201250949336E+00
 -0.184134112065E+00
 -0.221080699896E+00
 -0.207215369356E+00
 -0.243065973581E+00
 -0.231159058787E+00
 -0.267801749341E+00
 -0.257490429337E+00
 -0.291839421419E+00
 -0.283187682432E+00
 -0.313303167012E+00
 -0.306477533333E+00
 -0.330691072758E+00
 -0.326291939147E+00
 -0.331016614557E+00
 -0.330632696786E+00
 -0.319188422194E+00
 -0.320224089083E+00
 -0.306849766977E+00
 -0.309160928083E+00
 -0.288890651306E+00
 -0.292247248568E+00
 -0.272996276850E+00
 -0.269676963392E+00
 -0.252802864876E+00
 -0.248775305725E+00
 -0.230747424993E+00
 -0.226629536748E+00
 -0.208574668758E+00
 -0.203870635771E+00
 -0.184718812473E+00
 -0.180052434026E+00
 -0.163770112751E+00
 -0.159054951050E+00
 -0.143569781796E+00
 -0.138634234587E+00
 -0.124197786495E+00
 -0.119168896404E+00
 -0.106516722772E+00
 -0.101179397637E+00
 -0.890990033294E-01
 -0.832963508440E-01
 -0.717973458423E-01
 -0.654499842089E-01
 -0.549324069367E-01
 -0.478681776582E-01
 -0.382377785174E-01
 -0.301443623491E-01
 -0.210429372209E-01
 -0.115007359085E-01
 -0.268908732353E-02
  0.886720189932E-02
  0.176869515158E-01
  0.319868822201E-01
  0.416337141805E-01
  0.591321121027E-01
  0.723629878739E-01
  0.908680075665E-01
  0.114760105608E+00
  0.126821261070E+00
  0.186793083938E+00
  0.191880155395E+00
  0.195537259632E+00
  0.199050025505E+00
  0.141352014745E+00
  0.140300712415E+00
  0.115456824107E+00
  0.109991686914E+00
  0.926053774332E-01
  0.835806307387E-01
  0.713365475485E-01
  0.613814527391E-01
  0.519638615328E-01
  0.429239901970E-01
  0.347556449608E-01
  0.270548542990E-01
  0.193647585984E-01
  0.128450774736E-01
  0.517790987239E-02
 -0.427776986752E-03
 -0.852411788628E-02
 -0.134622399624E-01
 -0.221579049401E-01
 -0.266025900979E-01
 -0.355503233817E-01
 -0.395958762761E-01
 -0.487314260649E-01
 -0.524759651857E-01
 -0.629098498707E-01
 -0.664885426658E-01
 -0.776938491346E-01
 -0.811004784964E-01
 -0.926499477503E-01
 -0.959173361101E-01
 -0.109789793128E+00
 -0.112960312533E+00
 -0.125846626266E+00
 -0.128604771050E+00
 -0.140798220088E+00
 -0.143218510811E+00
 -0.154366918855E+00
 -0.156221380676E+00
 -0.167391313125E+00
 -0.165894897098E+00
 -0.176597277806E+00
 -0.176057778604E+00
 -0.180084558932E+00
 -0.180852300424E+00
 -0.182423305656E+00
 -0.184766028156E+00
 -0.173080636950E+00
 -0.178168605356E+00
 -0.148373450260E+00
 -0.155769107218E+00
 -0.119944598195E+00
 -0.128876504869E+00
 -0.890989535662E-01
 -0.992754785644E-01
 -0.573860761524E-01
 -0.686601496726E-01
 -0.274408690152E-01
 -0.398997553249E-01
  0.167840771805E-02
 -0.123174147306E-01
  0.351584207832E-01
  0.193489857969E-01
  0.737840946469E-01
  0.562188132037E-01
  0.118659681988E+00
  0.998263897711E-01
  0.167079971981E+00
  0.147491560633E+00
  0.229161241925E+00
  0.210565860760E+00
  0.298379367375E+00
  0.281941005613E+00
  0.419314479784E+00
  0.411693547643E+00
  0.563831981758E+00
  0.563767074830E+00
  0.636182861151E+00
  0.634420246327E+00
  0.534513591529E+00
  0.537656798718E+00
  0.338436688073E+00
  0.355303473531E+00
  0.119240841372E+00
  0.150778460788E+00
 -0.184685316408E-01
  0.216580004883E-01
 -0.645166348043E-01
 -0.279619167511E-01
 -0.110772741561E+00
 -0.775002929027E-01
 -0.141708677110E+00
 -0.112932418455E+00
 -0.172074813996E+00
 -0.147410207023E+00
 -0.196818530217E+00
 -0.176156435283E+00
 -0.217392753914E+00
 -0.200239489077E+00
 -0.234766865410E+00
 -0.220352567502E+00
 -0.254914425482E+00
 -0.242508390501E+00
 -0.278072592075E+00
 -0.267383280288E+00
 -0.300511189511E+00
 -0.291583305108E+00
 -0.320180902175E+00
 -0.313249217799E+00
 -0.335074424289E+00
 -0.330935884857E+00
 -0.332523909717E+00
 -0.331547674822E+00
 -0.318950522544E+00
 -0.319702047061E+00
 -0.305207826683E+00
 -0.307353303610E+00
 -0.286204507838E+00
 -0.289329413754E+00
 -0.269685271507E+00
 -0.266444387065E+00
 -0.248738656482E+00
 -0.244915500698E+00
 -0.226583897033E+00
 -0.222420789065E+00
 -0.203816200326E+00
 -0.199224698245E+00
 -0.180010529964E+00
 -0.175319538635E+00
 -0.159020823427E+00
 -0.154173488782E+00
 -0.138608431951E+00
 -0.133555127990E+00
 -0.119151581596E+00
 -0.113883423131E+00
 -0.101167064915E+00
 -0.955236014345E-01
 -0.832900668689E-01
 -0.771482808774E-01
 -0.654507509046E-01
 -0.586892916001E-01
 -0.478756832875E-01
 -0.402862762674E-01
 -0.301595594189E-01
 -0.214555627408E-01
 -0.115278174907E-01
 -0.140078126847E-02
  0.881823276831E-02
  0.205570102791E-01
  0.318908829280E-01
  0.448086440803E-01
  0.589211882490E-01
  0.710968833853E-01
  0.903902581353E-01
  0.991679510313E-01
  0.125907873120E+00
  0.130952448698E+00
  0.190030911206E+00
  0.193831059108E+00
  0.195905944546E+00
  0.194695869721E+00
  0.141312730090E+00
  0.140749083631E+00
  0.117160129119E+00
  0.115024629175E+00
  0.968900229942E-01
  0.923364536537E-01
  0.779482678691E-01
  0.711899911489E-01
  0.596047121958E-01
  0.518876265462E-01
  0.421880770419E-01
  0.347148214657E-01
  0.260537207529E-01
  0.193421258631E-01
  0.110671226136E-01
  0.516576634319E-02
 -0.331238840465E-02
 -0.852856589475E-02
 -0.174758517944E-01
 -0.221553710070E-01
 -0.312902819721E-01
 -0.355420570185E-01
 -0.448073192465E-01
 -0.487188064825E-01
 -0.592164801578E-01
 -0.628909130687E-01
 -0.741854166766E-01
 -0.776682523142E-01
 -0.893277651551E-01
 -0.926198606161E-01
 -0.106631442263E+00
 -0.109753644462E+00
 -0.123038868373E+00
 -0.125819008561E+00
 -0.138443056949E+00
 -0.140790200551E+00
 -0.152574891671E+00
 -0.154401036468E+00
 -0.166179943837E+00
 -0.164792726103E+00
 -0.176344030581E+00
 -0.175881717218E+00
 -0.181075163911E+00
 -0.181935568341E+00
 -0.184879898469E+00
 -0.187380196959E+00
 -0.178008354298E+00
 -0.182785351211E+00
 -0.155339186143E+00
 -0.162412606770E+00
 -0.128292446362E+00
 -0.136953057212E+00
 -0.986186087258E-01
 -0.108480686467E+00
 -0.679883725180E-01
 -0.788495917533E-01
 -0.392230469756E-01
 -0.510717691753E-01
 -0.116588595036E-01
 -0.246023055462E-01
  0.198336995105E-01
  0.578104042803E-02
  0.562709465608E-01
  0.412746101181E-01
  0.989727687966E-01
  0.835314097193E-01
  0.145228857212E+00
  0.129891417818E+00
  0.205433856378E+00
  0.191621590770E+00
  0.272950323865E+00
  0.261548144310E+00
  0.393147834646E+00
  0.388344437856E+00
  0.535620386560E+00
  0.535620274405E+00
  0.602696950447E+00
  0.600415016225E+00
  0.494719728070E+00
  0.497820189025E+00
  0.299401926759E+00
  0.313084663946E+00
  0.820757261069E-01
  0.107277537672E+00
 -0.524351789293E-01
 -0.199704440678E-01
 -0.946442331270E-01
 -0.640508396920E-01
 -0.137727765207E+00
 -0.108954423156E+00
 -0.165488882385E+00
 -0.139771681833E+00
 -0.192935677673E+00
 -0.170201436513E+00
 -0.214905268350E+00
 -0.195220141156E+00
 -0.233011660076E+00
 -0.216104777847E+00
 -0.248299797260E+00
 -0.233766120524E+00
 -0.266723158065E+00
 -0.254127285855E+00
 -0.288320693118E+00
 -0.277468765732E+00
 -0.309137356410E+00
 -0.300119602966E+00
 -0.326919648419E+00
 -0.320062834111E+00
 -0.339329933570E+00
 -0.335339420195E+00
 -0.334374798232E+00
 -0.333083734394E+00
 -0.318988035766E+00
 -0.319562973518E+00
 -0.303805496971E+00
 -0.305836101794E+00
 -0.283764653507E+00
 -0.286770474856E+00
 -0.266459327057E+00
 -0.263279304954E+00
 -0.244877807987E+00
 -0.241146213644E+00
 -0.222361069158E+00
 -0.218170985649E+00
 -0.199157947986E+00
 -0.194601211515E+00
 -0.175264518206E+00
 -0.170516647110E+00
 -0.154127018195E+00
 -0.149156080286E+00
 -0.133519764106E+00
 -0.128311020088E+00
 -0.113858329570E+00
 -0.108348487011E+00
 -0.955058229828E-01
 -0.895686646844E-01
 -0.771394437261E-01
 -0.706634901491E-01
 -0.586908605254E-01
 -0.515408199171E-01
 -0.402990604885E-01
 -0.322978493810E-01
 -0.214831357002E-01
 -0.124815629792E-01
 -0.145303472255E-02
  0.850535895831E-02
  0.204581277464E-01
  0.308179804143E-01
  0.446188114108E-01
  0.540837711194E-01
  0.707483544284E-01
  0.779561536102E-01
  0.985963724821E-01
  0.103192932110E+00
  0.130090303155E+00
  0.132334133692E+00
  0.192211028518E+00
  0.190820258293E+00
  0.193194299819E+00
  0.195000158448E+00
  0.140999681166E+00
  0.140804690391E+00
  0.117975529303E+00
  0.116772141708E+00
  0.990934924260E-01
  0.966017847002E-01
  0.818841841794E-01
  0.777530070221E-01
  0.651307509215E-01
  0.594858521784E-01
  0.485570286782E-01
  0.421205831798E-01
  0.324442391313E-01
  0.260164672552E-01
  0.170222168963E-01
  0.110475975593E-01
  0.208665110985E-02
 -0.331992301873E-02
 -0.125908344649E-01
 -0.174736704184E-01
 -0.268395633282E-01
 -0.312803825727E-01
 -0.407173426610E-01
 -0.447915773815E-01
 -0.554058982129E-01
 -0.591935536069E-01
 -0.705967155165E-01
 -0.741549716298E-01
 -0.859587217179E-01
 -0.892927727645E-01
 -0.103482402596E+00
 -0.106591949882E+00
 -0.120221742925E+00
 -0.123008156844E+00
 -0.136112345533E+00
 -0.138438966586E+00
 -0.150816181210E+00
 -0.152618310812E+00
 -0.165120162092E+00
 -0.163772874170E+00
 -0.176201112783E+00
 -0.175786006425E+00
 -0.182175439158E+00
 -0.183058195414E+00
 -0.187478231153E+00
 -0.189994673190E+00
 -0.182619898054E+00
 -0.187145313903E+00
 -0.161962667026E+00
 -0.168601222382E+00
 -0.136326429586E+00
 -0.144580220922E+00
 -0.107777828466E+00
 -0.117202343803E+00
 -0.781430906688E-01
 -0.884797000005E-01
 -0.503880293780E-01
 -0.615492939504E-01
 -0.239844188291E-01
 -0.359389955848E-01
  0.617271890256E-02
 -0.643090207698E-02
  0.412054633982E-01
  0.281897652551E-01
  0.826108262510E-01
  0.696453770100E-01
  0.127740520234E+00
  0.115311200977E+00
  0.187193927775E+00
  0.176432618711E+00
  0.254270600172E+00
  0.245829614554E+00
  0.374516199989E+00
  0.371236549856E+00
  0.515717354571E+00
  0.515709405838E+00
  0.578653930622E+00
  0.576170573793E+00
  0.464877916096E+00
  0.468062114795E+00
  0.268674981159E+00
  0.280601925788E+00
  0.514117880655E-01
  0.728742568898E-01
 -0.813989572550E-01
 -0.537550082564E-01
 -0.120834654006E+00
 -0.942992581590E-01
 -0.161621129412E+00
 -0.136146390797E+00
 -0.186978960243E+00
 -0.163680857074E+00
 -0.212180972957E+00
 -0.191086152019E+00
 -0.231973522801E+00
 -0.213232556694E+00
 -0.248069872947E+00
 -0.231586567641E+00
 -0.261530583542E+00
 -0.247145815138E+00
 -0.278338230183E+00
 -0.265799511252E+00
 -0.298410051264E+00
 -0.287611172568E+00
 -0.317592789364E+00
 -0.308683802376E+00
 -0.333433670466E+00
 -0.326801176249E+00
 -0.343540390840E+00
 -0.339631085828E+00
 -0.336419538092E+00
 -0.334968687992E+00
 -0.319214676785E+00
 -0.319681755038E+00
 -0.302595368560E+00
 -0.304533269828E+00
 -0.281483415897E+00
 -0.284436624707E+00
 -0.263310468592E+00
 -0.260184185952E+00
 -0.241114115253E+00
 -0.237415727955E+00
 -0.218105664936E+00
 -0.213904853838E+00
 -0.194527530947E+00
 -0.189966539813E+00
 -0.170452224447E+00
 -0.165628855595E+00
 -0.149100286396E+00
 -0.144006444987E+00
 -0.128267628256E+00
 -0.122884916140E+00
 -0.108316723312E+00
 -0.102570376650E+00
 -0.895464667729E-01
 -0.833360100661E-01
 -0.706531474078E-01
 -0.638822255586E-01
 -0.515447770076E-01
 -0.441122238002E-01
 -0.323189932356E-01
 -0.241686317068E-01
 -0.125274030493E-01
 -0.378350455951E-02
  0.841841307366E-02
  0.172618045877E-01
  0.306618991103E-01
  0.387052050627E-01
  0.538234731837E-01
  0.602106062624E-01
  0.775623953051E-01
  0.820161811726E-01
  0.102642551527E+00
  0.105390640003E+00
  0.131600818554E+00
  0.133173596401E+00
  0.189818825684E+00
  0.191643191772E+00
  0.192509021260E+00
  0.192619112288E+00
  0.140725753394E+00
  0.140568416818E+00
  0.118386409777E+00
  0.117631017415E+00
  0.100395410576E+00
  0.988212621762E-01
  0.843151594418E-01
  0.816771472706E-01
  0.688690444474E-01
  0.649848685039E-01
  0.534715012957E-01
  0.484635220256E-01
  0.380302671171E-01
  0.323891880125E-01
  0.227026433797E-01
  0.169925927991E-01
  0.749725235276E-02
  0.207430860459E-02
 -0.758180555806E-02
 -0.125900884293E-01
 -0.222358829278E-01
 -0.268288651617E-01
 -0.364783366239E-01
 -0.406992434254E-01
 -0.514753355960E-01
 -0.553797975938E-01
 -0.669246617690E-01
 -0.705627504662E-01
 -0.825346364669E-01
 -0.859202954275E-01
 -0.100320513213E+00
 -0.103441255980E+00
 -0.117398953546E+00
 -0.120190661609E+00
 -0.133778473648E+00
 -0.136112016107E+00
 -0.149076227874E+00
 -0.150869035295E+00
 -0.164135331661E+00
 -0.162782551941E+00
 -0.176131048181E+00
 -0.175725625066E+00
 -0.183314121402E+00
 -0.184162259606E+00
 -0.190091012472E+00
 -0.192524249151E+00
 -0.186985616000E+00
 -0.191252410412E+00
 -0.168164565299E+00
 -0.174319757962E+00
 -0.143953789373E+00
 -0.151696371189E+00
 -0.116495412972E+00
 -0.125387920925E+00
 -0.877764785622E-01
 -0.975145252961E-01
 -0.608889520807E-01
 -0.713239777734E-01
 -0.353750329764E-01
 -0.463910929505E-01
 -0.611673439482E-02
 -0.174835641273E-01
  0.280500127722E-01
  0.166124297840E-01
  0.687357429330E-01
  0.576497914259E-01
  0.113349321483E+00
  0.103024375494E+00
  0.172645277066E+00
  0.163983398794E+00
  0.239870000669E+00
  0.233358603382E+00
  0.360517287859E+00
  0.358178214787E+00
  0.500859253663E+00
  0.500848103947E+00
  0.560286872625E+00
  0.557747103340E+00
  0.441063542619E+00
  0.444369107561E+00
  0.243204966764E+00
  0.254049632555E+00
  0.250911829353E-01
  0.441062502516E-01
 -0.106834717929E+00
 -0.824992415959E-01
 -0.144138952532E+00
 -0.120536229167E+00
 -0.183187230139E+00
 -0.160225841309E+00
 -0.206665967817E+00
 -0.185313754264E+00
 -0.230103280549E+00
 -0.210411867886E+00
 -0.248140343006E+00
 -0.230308800344E+00
 -0.262542377500E+00
 -0.246600502736E+00
 -0.274367908339E+00
 -0.260309869638E+00
 -0.289653657695E+00
 -0.277350746125E+00
 -0.308230933982E+00
 -0.297656184602E+00
 -0.325770115240E+00
 -0.317128357855E+00
 -0.339678564153E+00
 -0.333344350766E+00
 -0.347688998994E+00
 -0.343873476141E+00
 -0.338548199192E+00
 -0.337048494577E+00
 -0.319558201672E+00
 -0.319974631725E+00
 -0.301524333609E+00
 -0.303402819091E+00
 -0.279302376239E+00
 -0.282245088847E+00
 -0.260235968499E+00
 -0.257145598755E+00
 -0.237392270966E+00
 -0.233696319921E+00
 -0.213839945127E+00
 -0.209628650262E+00
 -0.189889911051E+00
 -0.185298564108E+00
 -0.165558182285E+00
 -0.160648939935E+00
 -0.143943923823E+00
 -0.138722812050E+00
 -0.122835118039E+00
 -0.117275828250E+00
 -0.102533300587E+00
 -0.965703967173E-01
 -0.833107073532E-01
 -0.768724286913E-01
 -0.638719264013E-01
 -0.569018562558E-01
 -0.441209321073E-01
 -0.366160517684E-01
 -0.242019002324E-01
 -0.163067627948E-01
 -0.385232820645E-02
  0.402482690259E-02
  0.171395242323E-01
  0.243414206443E-01