# vtk DataFile Version 3.0
MachLine results file. Generated by MachLine, USU AeroLab (c) 2022.
ASCII
DATASET POLYDATA
POINTS                3696 float
  0.000000000000E+00  0.000000000000E+00  0.000000000000E+00
  0.999328393779E+04  0.000000000000E+00  0.366437087066E+03
  0.147665724158E+00  0.000000000000E+00 -0.234920635819E+00
  0.999329273865E+04  0.000000000000E+00  0.366197074486E+03
  0.147665724158E+00  0.000000000000E+00  0.234920635819E+00
  0.999327553348E+04  0.000000000000E+00  0.366666284873E+03
  0.339639574289E+00  0.339639574289E+00  0.000000000000E+00
  0.999328439384E+04  0.339639574289E+00  0.366424649771E+03
  0.473465979099E+00  0.000000000000E+00 -0.436293870211E+00
  0.999330055023E+04  0.000000000000E+00  0.365984041137E+03
  0.473465979099E+00  0.000000000000E+00  0.436293870211E+00
  0.999326859685E+04  0.000000000000E+00  0.366855457200E+03
  0.487305283546E+00  0.339639574289E+00 -0.234920650721E+00
  0.999329319470E+04  0.339639574289E+00  0.366184637177E+03
  0.487305283546E+00  0.339639574289E+00  0.234920650721E+00
  0.999327598954E+04  0.339639574289E+00  0.366653847594E+03
  0.735364913940E+00  0.735364913940E+00  0.000000000000E+00
  0.999328492521E+04  0.735364913940E+00  0.366410158665E+03
  0.813105583191E+00  0.339639574289E+00 -0.436293929815E+00
  0.999330100628E+04  0.339639574289E+00  0.365971603781E+03
  0.813105583191E+00  0.339639574289E+00  0.436293929815E+00
  0.999326905290E+04  0.339639574289E+00  0.366843019963E+03
  0.883030653000E+00  0.735364913940E+00 -0.234920680523E+00
  0.999329372607E+04  0.735364913940E+00  0.366170146041E+03
  0.883030653000E+00  0.735364913940E+00  0.234920680523E+00
  0.999327652090E+04  0.735364913940E+00  0.366639356517E+03
  0.944064557552E+00  0.000000000000E+00 -0.604293465614E+00
  0.999330733412E+04  0.000000000000E+00  0.365799034229E+03
  0.944064557552E+00  0.000000000000E+00  0.604293465614E+00
  0.999326307676E+04  0.000000000000E+00  0.367005998316E+03
  0.119528055191E+01  0.119528055191E+01  0.000000000000E+00
  0.999328554276E+04  0.119528055191E+01  0.366393316969E+03
  0.120883107185E+01  0.735364913940E+00 -0.436293989420E+00
  0.999330153765E+04  0.735364913940E+00  0.365957112611E+03
  0.120883107185E+01  0.735364913940E+00  0.436293989420E+00
  0.999326958427E+04  0.735364913940E+00  0.366828528912E+03
  0.128370416164E+01  0.339639574289E+00 -0.604293525219E+00
  0.999330779018E+04  0.339639574289E+00  0.365786596873E+03
  0.128370416164E+01  0.339639574289E+00  0.604293525219E+00
  0.999326353281E+04  0.339639574289E+00  0.366993561080E+03
  0.134294629097E+01  0.119528055191E+01 -0.234920725226E+00
  0.999329434363E+04  0.119528055191E+01  0.366153304300E+03
  0.134294629097E+01  0.119528055191E+01  0.234920725226E+00
  0.999327713846E+04  0.119528055191E+01  0.366622514866E+03
  0.157641971111E+01  0.000000000000E+00 -0.760520398617E+00
  0.999331390411E+04  0.000000000000E+00  0.365619860796E+03
  0.157641971111E+01  0.000000000000E+00  0.760520398617E+00
  0.999325820497E+04  0.000000000000E+00  0.367138859198E+03
  0.166874670982E+01  0.119528055191E+01 -0.436294049025E+00
  0.999330215521E+04  0.119528055191E+01  0.365940270855E+03
  0.166874670982E+01  0.119528055191E+01  0.436294049025E+00
  0.999327020182E+04  0.119528055191E+01  0.366811687276E+03
  0.167942965031E+01  0.735364913940E+00 -0.604293584824E+00
  0.999330832155E+04  0.735364913940E+00  0.365772105703E+03
  0.167942965031E+01  0.735364913940E+00  0.604293584824E+00
  0.999326406417E+04  0.735364913940E+00  0.366979070028E+03
  0.172824025154E+01  0.172824025154E+01  0.000000000000E+00
  0.999328625840E+04  0.172824025154E+01  0.366373800465E+03
  0.187590610981E+01  0.172824025154E+01 -0.234920769930E+00
  0.999329505927E+04  0.172824025154E+01  0.366133787747E+03
  0.187590610981E+01  0.172824025154E+01  0.234920769930E+00
  0.999327785409E+04  0.172824025154E+01  0.366602998402E+03
  0.191605937481E+01  0.339639574289E+00 -0.760520458221E+00
  0.999331436017E+04  0.339639574289E+00  0.365607423438E+03
  0.191605937481E+01  0.339639574289E+00  0.760520458221E+00
  0.999325866102E+04  0.339639574289E+00  0.367126421959E+03
  0.213934540749E+01  0.119528055191E+01 -0.604293704033E+00
  0.999330893911E+04  0.119528055191E+01  0.365755263883E+03
  0.213934540749E+01  0.119528055191E+01  0.604293704033E+00
  0.999326468173E+04  0.119528055191E+01  0.366962228447E+03
  0.220170640945E+01  0.172824025154E+01 -0.436294138432E+00
  0.999330287085E+04  0.172824025154E+01  0.365920754262E+03
  0.220170640945E+01  0.172824025154E+01  0.436294138432E+00
  0.999327091745E+04  0.172824025154E+01  0.366792170861E+03
  0.231178498268E+01  0.735364913940E+00 -0.760520577431E+00
  0.999331489154E+04  0.735364913940E+00  0.365592932204E+03
  0.231178498268E+01  0.735364913940E+00  0.760520577431E+00
  0.999325919238E+04  0.735364913940E+00  0.367111930963E+03
  0.234375929832E+01  0.234375929832E+01  0.000000000000E+00
  0.999328708490E+04  0.234375929832E+01  0.366351260713E+03
  0.239635515213E+01  0.000000000000E+00 -0.902061045170E+00
  0.999332018818E+04  0.000000000000E+00  0.365448484908E+03
  0.239635515213E+01  0.000000000000E+00  0.902061045170E+00
  0.999325412286E+04  0.000000000000E+00  0.367250184492E+03
  0.249142503738E+01  0.234375929832E+01 -0.234920814633E+00
  0.999329588576E+04  0.234375929832E+01  0.366111247955E+03
  0.249142503738E+01  0.234375929832E+01  0.234920814633E+00
  0.999327868059E+04  0.234375929832E+01  0.366580458699E+03
  0.267230534554E+01  0.172824025154E+01 -0.604293823242E+00
  0.999330965475E+04  0.172824025154E+01  0.365735747252E+03
  0.267230534554E+01  0.172824025154E+01  0.604293823242E+00
  0.999326539736E+04  0.172824025154E+01  0.366942712054E+03
  0.273599505424E+01  0.339639574289E+00 -0.902061164379E+00
  0.999332064424E+04  0.339639574289E+00  0.365436047482E+03
  0.273599505424E+01  0.339639574289E+00  0.902061164379E+00
  0.999325457891E+04  0.339639574289E+00  0.367237747304E+03
  0.277170085907E+01  0.119528055191E+01 -0.760520696640E+00
  0.999331550910E+04  0.119528055191E+01  0.365576090380E+03
  0.277170085907E+01  0.119528055191E+01  0.760520696640E+00
  0.999325980994E+04  0.119528055191E+01  0.367095089377E+03
  0.281722569466E+01  0.234375929832E+01 -0.436294227839E+00
  0.999330369735E+04  0.234375929832E+01  0.365898214411E+03
  0.281722569466E+01  0.234375929832E+01  0.436294227839E+00
  0.999327174395E+04  0.234375929832E+01  0.366769631189E+03
  0.305185556412E+01  0.305185556412E+01  0.000000000000E+00
  0.999328803570E+04  0.305185556412E+01  0.366325330866E+03
  0.313172078133E+01  0.735364913940E+00 -0.902061283588E+00
  0.999332117561E+04  0.735364913940E+00  0.365421556243E+03
  0.313172078133E+01  0.735364913940E+00  0.902061283588E+00
  0.999325511027E+04  0.735364913940E+00  0.367223256304E+03
  0.319952154160E+01  0.305185556412E+01 -0.234920859337E+00
  0.999329683657E+04  0.305185556412E+01  0.366085318054E+03
  0.319952154160E+01  0.305185556412E+01  0.234920859337E+00
  0.999327963139E+04  0.305185556412E+01  0.366554528888E+03
  0.328782463074E+01  0.234375929832E+01 -0.604293942451E+00
  0.999331048125E+04  0.234375929832E+01  0.365713207371E+03
  0.328782463074E+01  0.234375929832E+01  0.604293942451E+00
  0.999326622385E+04  0.234375929832E+01  0.366920172411E+03
  0.330466079712E+01  0.172824025154E+01 -0.760520815849E+00
  0.999331622474E+04  0.172824025154E+01  0.365556573748E+03
  0.330466079712E+01  0.172824025154E+01  0.760520815849E+00
  0.999326052557E+04  0.172824025154E+01  0.367075572984E+03
  0.342464399338E+01  0.000000000000E+00 -0.102348911762E+01
  0.999332601552E+04  0.000000000000E+00  0.365289564874E+03
  0.342464399338E+01  0.000000000000E+00  0.102348911762E+01
  0.999325105702E+04  0.000000000000E+00  0.367333794506E+03
  0.352532196045E+01  0.305185556412E+01 -0.436294317245E+00
  0.999330464816E+04  0.305185556412E+01  0.365872284475E+03
  0.352532196045E+01  0.305185556412E+01  0.436294317245E+00
  0.999327269475E+04  0.305185556412E+01  0.366743701431E+03
  0.359163665771E+01  0.119528055191E+01 -0.902061402798E+00
  0.999332179317E+04  0.119528055191E+01  0.365404714419E+03
  0.359163665771E+01  0.119528055191E+01  0.902061402798E+00
  0.999325572782E+04  0.119528055191E+01  0.367206414718E+03
  0.376428389549E+01  0.339639574289E+00 -0.102348923683E+01
  0.999332647157E+04  0.339639574289E+00  0.365277127448E+03
  0.376428389549E+01  0.339639574289E+00  0.102348923683E+01
  0.999325151307E+04  0.339639574289E+00  0.367321357318E+03
  0.386280250549E+01  0.386280250549E+01  0.000000000000E+00
  0.999328912461E+04  0.386280250549E+01  0.366295634720E+03
  0.392018008232E+01  0.234375929832E+01 -0.760520994663E+00
  0.999331705125E+04  0.234375929832E+01  0.365534033808E+03
  0.392018008232E+01  0.234375929832E+01  0.760520994663E+00
  0.999326135206E+04  0.234375929832E+01  0.367053033401E+03
  0.399592113495E+01  0.305185556412E+01 -0.604294061661E+00
  0.999331143206E+04  0.305185556412E+01  0.365687277397E+03
  0.399592113495E+01  0.305185556412E+01  0.604294061661E+00
  0.999326717465E+04  0.305185556412E+01  0.366894242675E+03
  0.401046848297E+01  0.386280250549E+01 -0.234920918941E+00
  0.999329792548E+04  0.386280250549E+01  0.366055621849E+03
  0.401046848297E+01  0.386280250549E+01  0.234920918941E+00
  0.999328072030E+04  0.386280250549E+01  0.366524832801E+03
  0.412459707260E+01  0.172824025154E+01 -0.902061522007E+00
  0.999332250882E+04  0.172824025154E+01  0.365385197770E+03
  0.412459707260E+01  0.172824025154E+01  0.902061522007E+00
  0.999325644346E+04  0.172824025154E+01  0.367186898307E+03
  0.416000986099E+01  0.735364913940E+00 -0.102348935604E+01
  0.999332700294E+04  0.735364913940E+00  0.365262636200E+03
  0.416000986099E+01  0.735364913940E+00  0.102348935604E+01
  0.999325204443E+04  0.735364913940E+00  0.367306866308E+03
  0.433626890182E+01  0.386280250549E+01 -0.436294436455E+00
[...]
CELL_DATA                  78
NORMALS normals float
  0.366191312874E-01 -0.366193465682E-01 -0.998658131034E+00
  0.366191312874E-01 -0.366193465680E-01 -0.998658131034E+00
  0.366191313505E-01 -0.366192995776E-01 -0.998658132755E+00
  0.366191313505E-01 -0.366192995776E-01 -0.998658132755E+00
  0.366191312197E-01 -0.366193969904E-01 -0.998658129188E+00
  0.366191312197E-01 -0.366193969905E-01 -0.998658129188E+00
  0.366191312906E-01 -0.366193442454E-01 -0.998658131119E+00
  0.366191312906E-01 -0.366193442452E-01 -0.998658131119E+00
  0.366191313098E-01 -0.366193298929E-01 -0.998658131645E+00
  0.366191313098E-01 -0.366193298930E-01 -0.998658131645E+00
  0.366191312289E-01 -0.366193901551E-01 -0.998658129438E+00
  0.366191312289E-01 -0.366193901551E-01 -0.998658129438E+00
  0.366191313163E-01 -0.366193251047E-01 -0.998658131820E+00
  0.366191313163E-01 -0.366193251047E-01 -0.998658131820E+00
  0.366191312213E-01 -0.366193957938E-01 -0.998658129232E+00
  0.366191312213E-01 -0.366193957938E-01 -0.998658129232E+00
  0.366191313077E-01 -0.366193315141E-01 -0.998658131585E+00
  0.366191313077E-01 -0.366193315140E-01 -0.998658131585E+00
  0.366191312779E-01 -0.366193536836E-01 -0.998658130774E+00
  0.366191312779E-01 -0.366193536836E-01 -0.998658130774E+00
  0.366191312379E-01 -0.366193834730E-01 -0.998658129683E+00
  0.366191312379E-01 -0.366193834730E-01 -0.998658129683E+00
  0.366191313190E-01 -0.366193230902E-01 -0.998658131894E+00
  0.366191313190E-01 -0.366193230902E-01 -0.998658131894E+00
  0.366191312246E-01 -0.366193933415E-01 -0.998658129321E+00
  0.366191312246E-01 -0.366193933414E-01 -0.998658129321E+00
  0.366191312796E-01 -0.366193524440E-01 -0.998658130819E+00
  0.366191312796E-01 -0.366193524440E-01 -0.998658130819E+00
  0.366191312750E-01 -0.366193558108E-01 -0.998658130696E+00
  0.366191312750E-01 -0.366193558108E-01 -0.998658130696E+00
  0.366191313162E-01 -0.366193251364E-01 -0.998658131819E+00
  0.366191313162E-01 -0.366193251364E-01 -0.998658131819E+00
  0.366191313058E-01 -0.366193329243E-01 -0.998658131534E+00
  0.366191313058E-01 -0.366193329242E-01 -0.998658131534E+00
  0.366191312714E-01 -0.366193585293E-01 -0.998658130596E+00
  0.366191312714E-01 -0.366193585294E-01 -0.998658130596E+00
  0.366191312350E-01 -0.366193855997E-01 -0.998658129605E+00
  0.366191312350E-01 -0.366193855997E-01 -0.998658129605E+00
  0.366191312374E-01 -0.366193838333E-01 -0.998658129670E+00
  0.366191312374E-01 -0.366193838333E-01 -0.998658129670E+00
  0.366191312350E-01 -0.366193855997E-01 -0.998658129605E+00
  0.366191312350E-01 -0.366193855997E-01 -0.998658129605E+00
  0.366191313585E-01 -0.366192936836E-01 -0.998658132971E+00
  0.366191313585E-01 -0.366192936836E-01 -0.998658132971E+00
  0.366191312156E-01 -0.366194000403E-01 -0.998658129076E+00
  0.366191312156E-01 -0.366194000403E-01 -0.998658129076E+00
  0.366191312926E-01 -0.366193427334E-01 -0.998658131175E+00
  0.366191312926E-01 -0.366193427334E-01 -0.998658131175E+00
  0.366191312750E-01 -0.366193558107E-01 -0.998658130696E+00
  0.366191312750E-01 -0.366193558108E-01 -0.998658130696E+00
  0.366191312526E-01 -0.366193725259E-01 -0.998658130084E+00
  0.366191312526E-01 -0.366193725258E-01 -0.998658130084E+00
  0.366191313418E-01 -0.366193060838E-01 -0.998658132517E+00
  0.366191313418E-01 -0.366193060838E-01 -0.998658132517E+00
  0.366191313190E-01 -0.366193230936E-01 -0.998658131894E+00
  0.366191313190E-01 -0.366193230935E-01 -0.998658131894E+00
  0.366191312913E-01 -0.366193436966E-01 -0.998658131139E+00
  0.366191312913E-01 -0.366193436966E-01 -0.998658131139E+00
  0.366191310989E-01 -0.366194869483E-01 -0.998658125894E+00
  0.366191310989E-01 -0.366194869483E-01 -0.998658125894E+00
  0.366191313971E-01 -0.366192648679E-01 -0.998658134026E+00
  0.366191313971E-01 -0.366192648679E-01 -0.998658134026E+00
  0.366191313734E-01 -0.366192825585E-01 -0.998658133378E+00
  0.366191313734E-01 -0.366192825586E-01 -0.998658133378E+00
  0.366191311141E-01 -0.366194756289E-01 -0.998658126308E+00
  0.366191311141E-01 -0.366194756288E-01 -0.998658126308E+00
  0.366191315761E-01 -0.366191315760E-01 -0.998658138907E+00
  0.366191315761E-01 -0.366191315761E-01 -0.998658138907E+00
  0.366191309675E-01 -0.366195848659E-01 -0.998658122308E+00
  0.366191309675E-01 -0.366195848659E-01 -0.998658122308E+00
  0.366191308732E-01 -0.366196550824E-01 -0.998658119737E+00
  0.366191308732E-01 -0.366196550822E-01 -0.998658119737E+00
  0.366191319834E-01 -0.366188282538E-01 -0.998658150014E+00
  0.366191319834E-01 -0.366188282538E-01 -0.998658150014E+00
  0.366191311028E-01 -0.366194840936E-01 -0.998658125998E+00
  0.366191311028E-01 -0.366194840936E-01 -0.998658125998E+00
  0.366191315761E-01 -0.366191315868E-01 -0.998658138907E+00
  0.366191315761E-01 -0.366191315867E-01 -0.998658138907E+00
POINT_DATA                3696
SCALARS mu float 1
LOOKUP_TABLE default
  0.000000000000E+00
  0.000000000000E+00
  0.000000000000E+00
  0.000000000000E+00
  0.000000000000E+00
  0.000000000000E+00
  0.000000000000E+00
  0.000000000000E+00
  0.000000000000E+00
  0.000000000000E+00
  0.000000000000E+00
  0.000000000000E+00
  0.000000000000E+00
  0.000000000000E+00
  0.000000000000E+00
  0.000000000000E+00
  0.000000000000E+00
  0.000000000000E+00
  0.000000000000E+00
  0.000000000000E+00
  0.000000000000E+00
  0.000000000000E+00
  0.000000000000E+00
  0.000000000000E+00
  0.000000000000E+00
  0.000000000000E+00
  0.000000000000E+00
  0.000000000000E+00
  0.000000000000E+00
  0.000000000000E+00
  0.000000000000E+00
  0.000000000000E+00
  0.000000000000E+00
  0.000000000000E+00
  0.000000000000E+00
  0.000000000000E+00
  0.000000000000E+00
  0.000000000000E+00
  0.000000000000E+00
  0.000000000000E+00
  0.000000000000E+00
  0.000000000000E+00
  0.000000000000E+00
  0.000000000000E+00
  0.000000000000E+00
  0.000000000000E+00
  0.000000000000E+00
  0.000000000000E+00
  0.000000000000E+00
  0.000000000000E+00
  0.000000000000E+00
  0.000000000000E+00
  0.000000000000E+00
  0.000000000000E+00
  0.000000000000E+00
  0.000000000000E+00
  0.000000000000E+00
  0.000000000000E+00
  0.000000000000E+00
  0.000000000000E+00
  0.000000000000E+00
  0.000000000000E+00
  0.000000000000E+00
  0.000000000000E+00
  0.000000000000E+00
  0.000000000000E+00
  0.000000000000E+00
  0.000000000000E+00
  0.000000000000E+00
  0.000000000000E+00
  0.000000000000E+00
  0.000000000000E+00
  0.000000000000E+00
  0.000000000000E+00
  0.000000000000E+00
  0.000000000000E+00
  0.000000000000E+00
  0.000000000000E+00
  0.000000000000E+00
  0.000000000000E+00
  0.000000000000E+00
  0.000000000000E+00
  0.000000000000E+00
  0.000000000000E+00
  0.000000000000E+00
  0.000000000000E+00
  0.000000000000E+00
  0.000000000000E+00
  0.000000000000E+00
  0.000000000000E+00
  0.000000000000E+00
  0.000000000000E+00
  0.000000000000E+00
  0.000000000000E+00
  0.000000000000E+00
  0.000000000000E+00
  0.000000000000E+00
  0.000000000000E+00
  0.000000000000E+00
  0.000000000000E+00
  0.000000000000E+00
  0.000000000000E+00
  0.000000000000E+00
  0.000000000000E+00
  0.000000000000E+00
  0.000000000000E+00
  0.000000000000E+00
  0.000000000000E+00
  0.000000000000E+00
  0.000000000000E+00
  0.000000000000E+00
  0.000000000000E+00
  0.000000000000E+00
  0.000000000000E+00
  0.000000000000E+00
  0.000000000000E+00
  0.000000000000E+00
  0.000000000000E+00
  0.000000000000E+00
  0.000000000000E+00
  0.000000000000E+00
  0.000000000000E+00
  0.000000000000E+00
  0.000000000000E+00
  0.000000000000E+00
  0.000000000000E+00
  0.000000000000E+00
  0.000000000000E+00
  0.000000000000E+00
  0.000000000000E+00
  0.000000000000E+00
  0.000000000000E+00
  0.000000000000E+00
  0.000000000000E+00
  0.000000000000E+00
  0.000000000000E+00
  0.000000000000E+00
  0.000000000000E+00
  0.000000000000E+00
  0.000000000000E+00
  0.000000000000E+00
  0.000000000000E+00
  0.000000000000E+00
  0.000000000000E+00
  0.000000000000E+00
  0.000000000000E+00
  0.000000000000E+00
  0.000000000000E+00
  0.000000000000E+00
  0.000000000000E+00
  0.000000000000E+00
  0.000000000000E+00
  0.000000000000E+00
  0.000000000000E+00
  0.000000000000E+00
  0.000000000000E+00
  0.000000000000E+00
  0.000000000000E+00
  0.000000000000E+00
  0.000000000000E+00
  0.000000000000E+00
  0.000000000000E+00
  0.000000000000E+00
  0.000000000000E+00
  0.000000000000E+00
  0.000000000000E+00
  0.000000000000E+00
  0.000000000000E+00
  0.000000000000E+00
  0.000000000000E+00
  0.000000000000E+00
  0.000000000000E+00
  0.000000000000E+00
  0.000000000000E+00
  0.000000000000E+00
  0.000000000000E+00
  0.000000000000E+00
  0.000000000000E+00
  0.000000000000E+00
  0.000000000000E+00
  0.000000000000E+00
  0.000000000000E+00
  0.000000000000E+00
  0.000000000000E+00
  0.000000000000E+00
  0.000000000000E+00
  0.000000000000E+00
  0.000000000000E+00
  0.000000000000E+00
  0.000000000000E+00
  0.000000000000E+00
  0.000000000000E+00
  0.000000000000E+00
  0.000000000000E+00
  0.000000000000E+00
  0.000000000000E+00
  0.000000000000E+00
  0.000000000000E+00
  0.000000000000E+00
  0.000000000000E+00
  0.000000000000E+00
  0.000000000000E+00
  0.000000000000E+00
  0.000000000000E+00
  0.000000000000E+00
  0.000000000000E+00
  0.000000000000E+00
  0.000000000000E+00
  0.000000000000E+00
  0.000000000000E+00
  0.000000000000E+00
  0.000000000000E+00
  0.000000000000E+00
  0.000000000000E+00
  0.000000000000E+00
  0.000000000000E+00
  0.000000000000E+00
  0.000000000000E+00
  0.000000000000E+00
  0.000000000000E+00
  0.000000000000E+00
  0.000000000000E+00
  0.000000000000E+00
  0.000000000000E+00
  0.000000000000E+00
  0.000000000000E+00
  0.000000000000E+00
  0.000000000000E+00
  0.000000000000E+00
  0.000000000000E+00
  0.000000000000E+00
  0.000000000000E+00
  0.000000000000E+00
  0.000000000000E+00
  0.000000000000E+00
  0.000000000000E+00
  0.000000000000E+00
  0.000000000000E+00
  0.000000000000E+00
  0.000000000000E+00
  0.000000000000E+00
  0.000000000000E+00
  0.000000000000E+00
  0.000000000000E+00
  0.000000000000E+00
  0.000000000000E+00
  0.000000000000E+00
  0.000000000000E+00
  0.000000000000E+00
  0.000000000000E+00
  0.000000000000E+00
  0.000000000000E+00
  0.000000000000E+00
  0.000000000000E+00
  0.000000000000E+00
  0.000000000000E+00
  0.000000000000E+00
  0.000000000000E+00
  0.000000000000E+00
  0.000000000000E+00
  0.000000000000E+00
  0.000000000000E+00
  0.000000000000E+00
  0.000000000000E+00
  0.000000000000E+00
  0.000000000000E+00
  0.000000000000E+00
  0.000000000000E+00
  0.000000000000E+00
  0.000000000000E+00
  0.000000000000E+00
  0.000000000000E+00
  0.000000000000E+00
  0.000000000000E+00
  0.000000000000E+00
  0.000000000000E+00
  0.000000000000E+00
  0.000000000000E+00
  0.000000000000E+00
  0.000000000000E+00
  0.000000000000E+00
  0.000000000000E+00
  0.000000000000E+00
  0.000000000000E+00
  0.000000000000E+00
  0.000000000000E+00
  0.000000000000E+00
  0.000000000000E+00
  0.000000000000E+00
  0.000000000000E+00
  0.000000000000E+00
  0.000000000000E+00
  0.000000000000E+00
  0.000000000000E+00
  0.000000000000E+00
  0.000000000000E+00
  0.000000000000E+00
  0.000000000000E+00
  0.000000000000E+00
  0.000000000000E+00
  0.000000000000E+00
  0.000000000000E+00
  0.000000000000E+00
  0.000000000000E+00
  0.000000000000E+00
  0.000000000000E+00
  0.000000000000E+00
  0.000000000000E+00
  0.000000000000E+00
  0.000000000000E+00
  0.000000000000E+00
  0.000000000000E+00
  0.000000000000E+00
  0.000000000000E+00
  0.000000000000E+00
  0.000000000000E+00
  0.000000000000E+00
  0.000000000000E+00
  0.000000000000E+00
  0.000000000000E+00
  0.000000000000E+00
  0.000000000000E+00
  0.000000000000E+00
  0.000000000000E+00
  0.000000000000E+00
  0.000000000000E+00
  0.000000000000E+00
  0.000000000000E+00
  0.000000000000E+00
  0.000000000000E+00
  0.000000000000E+00
  0.000000000000E+00
  0.000000000000E+00
  0.000000000000E+00
  0.000000000000E+00
  0.000000000000E+00
  0.000000000000E+00
  0.000000000000E+00
  0.000000000000E+00
  0.000000000000E+00
  0.000000000000E+00
  0.000000000000E+00
  0.000000000000E+00
  0.000000000000E+00
  0.000000000000E+00
  0.000000000000E+00
  0.000000000000E+00
  0.000000000000E+00
  0.000000000000E+00
  0.000000000000E+00
  0.000000000000E+00
  0.000000000000E+00
  0.000000000000E+00
  0.000000000000E+00
  0.000000000000E+00
  0.000000000000E+00
  0.000000000000E+00
  0.000000000000E+00
  0.000000000000E+00
  0.000000000000E+00
  0.000000000000E+00
  0.000000000000E+00
  0.000000000000E+00
  0.000000000000E+00
  0.000000000000E+00
  0.000000000000E+00
  0.000000000000E+00
  0.000000000000E+00
  0.000000000000E+00
  0.000000000000E+00
  0.000000000000E+00
  0.000000000000E+00
  0.000000000000E+00
  0.000000000000E+00
  0.000000000000E+00
  0.000000000000E+00
  0.000000000000E+00
  0.000000000000E+00
  0.000000000000E+00
  0.000000000000E+00
  0.000000000000E+00
  0.000000000000E+00
  0.000000000000E+00
  0.000000000000E+00
  0.000000000000E+00
  0.000000000000E+00
  0.000000000000E+00
  0.000000000000E+00
  0.000000000000E+00
  0.000000000000E+00
  0.000000000000E+00
  0.000000000000E+00
  0.000000000000E+00
  0.000000000000E+00
  0.000000000000E+00
  0.000000000000E+00
  0.000000000000E+00
  0.000000000000E+00
  0.000000000000E+00
  0.000000000000E+00
  0.000000000000E+00
  0.000000000000E+00
  0.000000000000E+00
  0.000000000000E+00
  0.000000000000E+00
  0.000000000000E+00
  0.000000000000E+00
  0.000000000000E+00
  0.000000000000E+00
  0.000000000000E+00
  0.000000000000E+00
  0.000000000000E+00
  0.000000000000E+00
  0.000000000000E+00
  0.000000000000E+00
  0.000000000000E+00
  0.000000000000E+00
  0.000000000000E+00
  0.000000000000E+00
  0.000000000000E+00
  0.000000000000E+00
  0.000000000000E+00
  0.000000000000E+00
  0.000000000000E+00
  0.000000000000E+00
  0.000000000000E+00
  0.000000000000E+00
  0.000000000000E+00
  0.000000000000E+00
  0.000000000000E+00
  0.000000000000E+00
  0.000000000000E+00
  0.000000000000E+00
  0.000000000000E+00
  0.000000000000E+00
  0.000000000000E+00
  0.000000000000E+00
  0.000000000000E+00
  0.000000000000E+00
  0.000000000000E+00
  0.000000000000E+00
  0.000000000000E+00
  0.000000000000E+00
  0.000000000000E+00
  0.000000000000E+00
  0.000000000000E+00
  0.000000000000E+00
  0.000000000000E+00
  0.000000000000E+00
  0.000000000000E+00
  0.000000000000E+00
  0.000000000000E+00
  0.000000000000E+00
  0.000000000000E+00
  0.000000000000E+00
  0.000000000000E+00
  0.000000000000E+00
  0.000000000000E+00
  0.000000000000E+00
  0.000000000000E+00
  0.000000000000E+00
  0.000000000000E+00
  0.000000000000E+00
  0.000000000000E+00
  0.000000000000E+00
  0.000000000000E+00
  0.000000000000E+00
  0.000000000000E+00
  0.000000000000E+00
  0.000000000000E+00
  0.000000000000E+00
  0.000000000000E+00
  0.000000000000E+00
  0.000000000000E+00
  0.000000000000E+00
  0.000000000000E+00
  0.000000000000E+00
  0.000000000000E+00
  0.000000000000E+00
  0.000000000000E+00
  0.000000000000E+00
  0.000000000000E+00
  0.000000000000E+00
  0.000000000000E+00
  0.000000000000E+00
  0.000000000000E+00
  0.000000000000E+00
  0.000000000000E+00
  0.000000000000E+00
  0.000000000000E+00
  0.000000000000E+00
  0.000000000000E+00
  0.000000000000E+00
  0.000000000000E+00
  0.000000000000E+00
  0.000000000000E+00
  0.000000000000E+00
  0.000000000000E+00
  0.000000000000E+00
  0.000000000000E+00
  0.000000000000E+00
  0.000000000000E+00
  0.000000000000E+00
  0.000000000000E+00
  0.000000000000E+00
  0.000000000000E+00
  0.000000000000E+00
  0.000000000000E+00
  0.000000000000E+00
  0.000000000000E+00
  0.000000000000E+00
  0.000000000000E+00
  0.000000000000E+00
  0.000000000000E+00
  0.000000000000E+00
  0.000000000000E+00
  0.000000000000E+00
  0.000000000000E+00
  0.000000000000E+00
  0.000000000000E+00
  0.000000000000E+00
  0.000000000000E+00
  0.000000000000E+00
  0.000000000000E+00
  0.000000000000E+00
  0.000000000000E+00
  0.000000000000E+00
  0.000000000000E+00
  0.000000000000E+00
  0.000000000000E+00
  0.000000000000E+00
  0.000000000000E+00
  0.000000000000E+00
  0.000000000000E+00
  0.000000000000E+00
  0.000000000000E+00
  0.000000000000E+00
  0.000000000000E+00
  0.000000000000E+00
  0.000000000000E+00
  0.000000000000E+00
  0.000000000000E+00
  0.000000000000E+00
  0.000000000000E+00
  0.000000000000E+00
  0.000000000000E+00
  0.000000000000E+00
  0.000000000000E+00
  0.000000000000E+00
  0.000000000000E+00
  0.000000000000E+00
  0.000000000000E+00
  0.000000000000E+00
  0.000000000000E+00
  0.000000000000E+00
  0.000000000000E+00
  0.000000000000E+00
  0.000000000000E+00
  0.000000000000E+00
  0.000000000000E+00
  0.000000000000E+00
  0.000000000000E+00
  0.000000000000E+00
  0.000000000000E+00
  0.000000000000E+00
  0.000000000000E+00
  0.000000000000E+00
  0.000000000000E+00
  0.000000000000E+00
  0.000000000000E+00
  0.000000000000E+00
  0.000000000000E+00
  0.000000000000E+00
  0.000000000000E+00
  0.000000000000E+00
  0.000000000000E+00
  0.000000000000E+00
  0.000000000000E+00
  0.000000000000E+00
  0.000000000000E+00
  0.000000000000E+00
  0.000000000000E+00
  0.000000000000E+00
  0.000000000000E+00
  0.000000000000E+00
  0.000000000000E+00
  0.000000000000E+00
  0.000000000000E+00
  0.000000000000E+00
  0.000000000000E+00
  0.000000000000E+00
  0.000000000000E+00
  0.000000000000E+00
  0.000000000000E+00
  0.000000000000E+00
  0.000000000000E+00
  0.000000000000E+00
  0.000000000000E+00
  0.000000000000E+00
  0.000000000000E+00
  0.000000000000E+00
  0.000000000000E+00
  0.000000000000E+00
  0.000000000000E+00
  0.000000000000E+00
  0.000000000000E+00
  0.000000000000E+00
  0.000000000000E+00
  0.000000000000E+00
  0.000000000000E+00
  0.000000000000E+00
  0.000000000000E+00
  0.000000000000E+00
  0.000000000000E+00
  0.000000000000E+00
  0.000000000000E+00
  0.000000000000E+00
  0.000000000000E+00
  0.000000000000E+00
  0.000000000000E+00
  0.000000000000E+00
  0.000000000000E+00
  0.000000000000E+00
  0.000000000000E+00
  0.000000000000E+00
  0.000000000000E+00
  0.000000000000E+00
  0.000000000000E+00
  0.000000000000E+00
  0.000000000000E+00
  0.000000000000E+00
  0.000000000000E+00
  0.000000000000E+00
  0.000000000000E+00
  0.000000000000E+00
  0.000000000000E+00
  0.000000000000E+00
  0.000000000000E+00
  0.000000000000E+00
  0.000000000000E+00
  0.000000000000E+00
  0.000000000000E+00
  0.000000000000E+00
  0.000000000000E+00
  0.000000000000E+00
  0.000000000000E+00
  0.000000000000E+00
  0.000000000000E+00
  0.000000000000E+00
  0.000000000000E+00
  0.000000000000E+00
  0.000000000000E+00
  0.000000000000E+00
  0.000000000000E+00
  0.000000000000E+00
  0.000000000000E+00
  0.000000000000E+00
  0.000000000000E+00
  0.000000000000E+00
  0.000000000000E+00
  0.000000000000E+00
  0.000000000000E+00
  0.000000000000E+00
  0.000000000000E+00
  0.000000000000E+00
  0.000000000000E+00
  0.000000000000E+00
  0.000000000000E+00
  0.000000000000E+00
  0.000000000000E+00
  0.000000000000E+00
  0.000000000000E+00
  0.000000000000E+00
  0.000000000000E+00
  0.000000000000E+00
  0.000000000000E+00
  0.000000000000E+00
  0.000000000000E+00
  0.000000000000E+00
  0.000000000000E+00
  0.000000000000E+00
  0.000000000000E+00
  0.000000000000E+00
  0.000000000000E+00
  0.000000000000E+00
  0.000000000000E+00
  0.000000000000E+00
  0.000000000000E+00
  0.000000000000E+00
  0.000000000000E+00
  0.000000000000E+00
  0.000000000000E+00
  0.000000000000E+00
  0.000000000000E+00
  0.000000000000E+00
  0.000000000000E+00
  0.000000000000E+00
  0.000000000000E+00
  0.000000000000E+00
  0.000000000000E+00
  0.000000000000E+00
  0.000000000000E+00
  0.000000000000E+00
  0.000000000000E+00
  0.000000000000E+00
  0.000000000000E+00
  0.000000000000E+00
  0.000000000000E+00
  0.000000000000E+00
  0.000000000000E+00
  0.000000000000E+00
  0.000000000000E+00
  0.000000000000E+00
  0.000000000000E+00
  0.000000000000E+00
  0.000000000000E+00
  0.000000000000E+00
  0.000000000000E+00
  0.000000000000E+00