# vtk DataFile Version 3.0
MachLine results file. Generated by MachLine, USU AeroLab (c) 2022.
ASCII
DATASET POLYDATA
POINTS                 144 float
  0.000000000000E+00  0.000000000000E+00  0.000000000000E+00
  0.113538098335E+01  0.000000000000E+00 -0.658124566078E+00
  0.113538098335E+01  0.000000000000E+00  0.658124566078E+00
  0.192375373840E+01  0.192375373840E+01  0.000000000000E+00
  0.305913543701E+01  0.192375373840E+01 -0.658124983311E+00
  0.305913543701E+01  0.192375373840E+01  0.658124983311E+00
  0.423028087616E+01  0.000000000000E+00 -0.108747220039E+01
  0.423028087616E+01  0.000000000000E+00  0.108747220039E+01
  0.547033166885E+01  0.547033166885E+01  0.000000000000E+00
  0.615403699875E+01  0.192375373840E+01 -0.108747279644E+01
  0.615403699875E+01  0.192375373840E+01  0.108747279644E+01
  0.660571479797E+01  0.547033166885E+01 -0.658125698566E+00
  0.660571479797E+01  0.547033166885E+01  0.658125698566E+00
  0.939508819580E+01  0.000000000000E+00 -0.980745851994E+00
  0.939508819580E+01  0.000000000000E+00  0.980745851994E+00
  0.970061969757E+01  0.547033166885E+01 -0.108747410774E+01
  0.970061969757E+01  0.547033166885E+01  0.108747410774E+01
  0.113188476562E+02  0.192375373840E+01 -0.980746448040E+00
  0.113188476562E+02  0.192375373840E+01  0.980746448040E+00
  0.113820018768E+02  0.113820018768E+02  0.000000000000E+00
  0.125173873901E+02  0.113820018768E+02 -0.658127009869E+00
  0.125173873901E+02  0.113820018768E+02  0.658127009869E+00
  0.145402030945E+02  0.000000000000E+00 -0.479613035917E+00
  0.145402030945E+02  0.000000000000E+00  0.479613035917E+00
  0.148654365540E+02  0.547033166885E+01 -0.980747580528E+00
  0.148654365540E+02  0.547033166885E+01  0.980747580528E+00
  0.156122989655E+02  0.113820018768E+02 -0.108747613430E+01
  0.156122989655E+02  0.113820018768E+02  0.108747613430E+01
  0.164639663696E+02  0.192375373840E+01 -0.479613333941E+00
  0.164639663696E+02  0.192375373840E+01  0.479613333941E+00
  0.176505107880E+02  0.000000000000E+00 -0.144198849797E+00
  0.176505107880E+02  0.000000000000E+00  0.144198849797E+00
  0.190000000000E+02  0.000000000000E+00  0.000000000000E+00
  0.195742740631E+02  0.192375373840E+01 -0.144198939204E+00
  0.195742740631E+02  0.192375373840E+01  0.144198939204E+00
  0.197561950684E+02  0.197561950684E+02  0.000000000000E+00
  0.200105609894E+02  0.547033166885E+01 -0.479613870382E+00
  0.200105609894E+02  0.547033166885E+01  0.479613870382E+00
  0.207771244049E+02  0.113820018768E+02 -0.980749428272E+00
  0.207771244049E+02  0.113820018768E+02  0.980749428272E+00
  0.208915824890E+02  0.197561950684E+02 -0.658128738403E+00
  0.208915824890E+02  0.197561950684E+02  0.658128738403E+00
  0.209237651825E+02  0.192375373840E+01  0.000000000000E+00
  0.231208724976E+02  0.547033166885E+01 -0.144199103117E+00
  0.231208724976E+02  0.547033166885E+01  0.144199103117E+00
  0.239865016937E+02  0.197561950684E+02 -0.108747911453E+01
  0.239865016937E+02  0.197561950684E+02  0.108747911453E+01
  0.244703655243E+02  0.547033166885E+01  0.000000000000E+00
  0.259222583771E+02  0.113820018768E+02 -0.479614794254E+00
  0.259222583771E+02  0.113820018768E+02  0.479614794254E+00
  0.290325775146E+02  0.113820018768E+02 -0.144199386239E+00
  0.290325775146E+02  0.113820018768E+02  0.144199386239E+00
  0.291513423920E+02  0.197561950684E+02 -0.980752110481E+00
  0.291513423920E+02  0.197561950684E+02  0.980752110481E+00
  0.292438049316E+02  0.292438049316E+02  0.000000000000E+00
  0.303791980743E+02  0.292438049316E+02 -0.658130764961E+00
  0.303791980743E+02  0.292438049316E+02  0.658130764961E+00
  0.303820724487E+02  0.113820018768E+02  0.000000000000E+00
  0.334741249084E+02  0.292438049316E+02 -0.108748245239E+01
  0.334741249084E+02  0.292438049316E+02  0.108748245239E+01
  0.342964897156E+02  0.197561950684E+02 -0.479616105556E+00
  0.342964897156E+02  0.197561950684E+02  0.479616105556E+00
  0.374068183899E+02  0.197561950684E+02 -0.144199773669E+00
  0.374068183899E+02  0.197561950684E+02  0.144199773669E+00
  0.376179962158E+02  0.376179962158E+02  0.000000000000E+00
  0.386389808655E+02  0.292438049316E+02 -0.980755090714E+00
  0.386389808655E+02  0.292438049316E+02  0.980755090714E+00
  0.387533912659E+02  0.376179962158E+02 -0.658132553101E+00
  0.387533912659E+02  0.376179962158E+02  0.658132553101E+00
  0.387563171387E+02  0.197561950684E+02  0.000000000000E+00
  0.418483314514E+02  0.376179962158E+02 -0.108748543262E+01
  0.418483314514E+02  0.376179962158E+02  0.108748543262E+01
  0.435296669006E+02  0.435296669006E+02  0.000000000000E+00
  0.437841453552E+02  0.292438049316E+02 -0.479617565870E+00
  0.437841453552E+02  0.292438049316E+02  0.479617565870E+00
  0.446650657654E+02  0.435296669006E+02 -0.658133804798E+00
  0.446650657654E+02  0.435296669006E+02  0.658133804798E+00
  0.468944816589E+02  0.292438049316E+02 -0.144200220704E+00
  0.468944816589E+02  0.292438049316E+02  0.144200220704E+00
  0.470131988525E+02  0.376179962158E+02 -0.980757772923E+00
  0.470131988525E+02  0.376179962158E+02  0.980757772923E+00
  0.470762481689E+02  0.470762481689E+02  0.000000000000E+00
  0.477600097656E+02  0.435296669006E+02 -0.108748745918E+01
  0.477600097656E+02  0.435296669006E+02  0.108748745918E+01
  0.482116432190E+02  0.470762481689E+02 -0.658134579659E+00
  0.482116432190E+02  0.470762481689E+02  0.658134579659E+00
  0.482439842224E+02  0.292438049316E+02  0.000000000000E+00
  0.490000000000E+02  0.490000000000E+02  0.000000000000E+00
  0.501353988647E+02  0.490000000000E+02 -0.658134996891E+00
  0.501353988647E+02  0.490000000000E+02  0.658134996891E+00
  0.506007728577E+02  0.494653701782E+02 -0.465371757746E+00
  0.506007728577E+02  0.494653701782E+02  0.465371757746E+00
  0.507935333252E+02  0.496581344604E+02 -0.771266485397E-15
  0.513065910339E+02  0.470762481689E+02 -0.108748877048E+01
  0.513065910339E+02  0.470762481689E+02  0.108748877048E+01
  0.521583786011E+02  0.376179962158E+02 -0.479618877172E+00
  0.521583786011E+02  0.376179962158E+02  0.479618877172E+00
  0.529248886108E+02  0.435296669006E+02 -0.980759620667E+00
  0.529248886108E+02  0.435296669006E+02  0.980759620667E+00
  0.532303466797E+02  0.490000000000E+02 -0.108748936653E+01
  0.532303466797E+02  0.490000000000E+02  0.108748936653E+01
  0.539993209839E+02  0.497689704895E+02 -0.768971264362E+00
  0.539993209839E+02  0.497689704895E+02  0.768971264362E+00
  0.543178405762E+02  0.500874900818E+02 -0.157378642191E-15
  0.552687225342E+02  0.376179962158E+02 -0.144200608134E+00
  0.552687225342E+02  0.376179962158E+02  0.144200608134E+00
  0.564714775085E+02  0.470762481689E+02 -0.980760753155E+00
  0.564714775085E+02  0.470762481689E+02  0.980760753155E+00
  0.566182289124E+02  0.376179962158E+02  0.000000000000E+00
  0.580700759888E+02  0.435296669006E+02 -0.479619771242E+00
  0.580700759888E+02  0.435296669006E+02  0.479619771242E+00
  0.583952369690E+02  0.490000000000E+02 -0.980761349201E+00
  0.583952369690E+02  0.490000000000E+02  0.980761349201E+00
  0.590887413025E+02  0.496935043335E+02 -0.693503141403E+00
  0.590887413025E+02  0.496935043335E+02  0.693503141403E+00
  0.593759994507E+02  0.499807624817E+02  0.000000000000E+00
  0.611804275513E+02  0.435296669006E+02 -0.144200876355E+00
  0.611804275513E+02  0.435296669006E+02  0.144200876355E+00
  0.616166725159E+02  0.470762481689E+02 -0.479620337486E+00
  0.616166725159E+02  0.470762481689E+02  0.479620337486E+00
  0.625299339294E+02  0.435296669006E+02  0.000000000000E+00
  0.635404319763E+02  0.490000000000E+02 -0.479620635509E+00
  0.635404319763E+02  0.490000000000E+02  0.479620635509E+00
  0.638795776367E+02  0.493391418457E+02 -0.339143037796E+00
  0.638795776367E+02  0.493391418457E+02  0.339143037796E+00
  0.640200576782E+02  0.494796218872E+02  0.296956834055E-15
  0.647270278931E+02  0.470762481689E+02 -0.144201040268E+00
  0.647270278931E+02  0.470762481689E+02  0.144201040268E+00
  0.660765380859E+02  0.470762481689E+02  0.000000000000E+00
  0.666507873535E+02  0.490000000000E+02 -0.144201144576E+00
  0.666507873535E+02  0.490000000000E+02  0.144201144576E+00
  0.667527542114E+02  0.491019668579E+02 -0.101965606213E+00
  0.667527542114E+02  0.491019668579E+02  0.101965606213E+00
  0.667949905396E+02  0.491441993713E+02 -0.260488604752E-16
  0.680002975464E+02  0.490000000000E+02  0.000000000000E+00
  0.190000000000E+02  0.000000000000E+00  0.000000000000E+00
  0.209237651825E+02  0.192375373840E+01  0.000000000000E+00
  0.244703655243E+02  0.547033166885E+01  0.000000000000E+00
  0.303820724487E+02  0.113820018768E+02  0.000000000000E+00
  0.387563171387E+02  0.197561950684E+02  0.000000000000E+00
  0.482439842224E+02  0.292438049316E+02  0.000000000000E+00
  0.566182289124E+02  0.376179962158E+02  0.000000000000E+00
  0.625299339294E+02  0.435296669006E+02  0.000000000000E+00
  0.660765380859E+02  0.470762481689E+02  0.000000000000E+00
POLYGONS                 256                1024
3                  32                  33                  42
3                  32                  30                  33
3                  30                  28                  33
3                  30                  22                  28
3                  22                  17                  28
3                  22                  13                  17
3                  13                   6                  17
3                  17                   6                   9
3                   6                   1                   9
3                   9                   1                   4
3                   1                   0                   4
3                   4                   0                   3
3                   0                   5                   3
3                   0                   2                   5
3                   2                  10                   5
3                   2                   7                  10
[...]
CELL_DATA                 256
SCALARS C_p_inc float 1
LOOKUP_TABLE default
  0.104659839802E+00
  0.573110116710E-01
  0.159218085410E-02
 -0.392853830484E-01
 -0.106085773600E+00
 -0.136666179712E+00
 -0.155858030588E+00
 -0.168971878584E+00
 -0.636348291172E-02
 -0.115991518264E+00
  0.436911759698E+00
  0.368488111477E+00
  0.844849506990E-01
  0.291222882045E+00
 -0.326665180728E+00
 -0.184374178954E+00
 -0.293249380336E+00
 -0.288573541389E+00
 -0.223559333872E+00
 -0.180904615893E+00
 -0.913007821350E-01
 -0.353251194771E-01
  0.319109378966E-01
  0.958867250546E-01
  0.108848020503E+00
  0.102716681390E+00
  0.211291158066E-01
  0.159467780712E-02
 -0.810473784244E-01
 -0.106055473465E+00
 -0.171361955186E+00
 -0.173421038734E+00
 -0.109824818223E+00
 -0.143738219276E+00
  0.317394129908E+00
  0.309177108270E+00
 -0.247594963178E-01
  0.579869626298E-01
 -0.388310642570E+00
 -0.317875647981E+00
 -0.299905180734E+00
 -0.300251785519E+00
 -0.181077551565E+00
 -0.144367043983E+00
 -0.352290613473E-01
 -0.469183744117E-02
  0.934887328430E-01
  0.104584245812E+00
  0.111220744646E+00
  0.108255408341E+00
  0.263118314498E-01
  0.210041847266E-01
 -0.695831670824E-01
 -0.809497565624E-01
 -0.175537607311E+00
 -0.163478807122E+00
 -0.143473680217E+00
 -0.141236565283E+00
  0.305717119227E+00
  0.312801701122E+00
 -0.657651771669E-01
 -0.275904805069E-01
 -0.410639174280E+00
 -0.388763696759E+00
 -0.293097014535E+00
 -0.306048502251E+00
 -0.144655289166E+00
 -0.127251062602E+00
 -0.474715218563E-02
  0.478838182141E-02
  0.104202888233E+00
  0.109089565912E+00
  0.111667049226E+00
  0.110900183631E+00
  0.274492074155E-01
  0.262295702397E-01
 -0.666625839052E-01
 -0.694723732669E-01
 -0.164531202094E+00
 -0.158580420679E+00
 -0.141878038988E+00
 -0.132444759464E+00
  0.316228640433E+00
  0.324643870447E+00
 -0.779520507453E-01
 -0.650270004901E-01
 -0.415497884415E+00
 -0.413188783264E+00
 -0.290988744991E+00
 -0.296375690216E+00
 -0.127486992824E+00
 -0.122335127350E+00
  0.481935612024E-02
  0.869783338532E-02
  0.109277756850E+00
  0.112015849538E+00
  0.109783390758E+00
  0.111249798887E+00
  0.254063702049E-01
  0.273377049617E-01
 -0.679321509492E-01
 -0.665411665966E-01
 -0.158599037073E+00
 -0.158871401719E+00
 -0.132618486474E+00
 -0.130533741057E+00
  0.326177177746E+00
  0.328780743841E+00
 -0.801529164063E-01
 -0.775638998232E-01
 -0.415311096132E+00
 -0.416612678262E+00
 -0.288437095191E+00
 -0.292128183336E+00
 -0.122518532418E+00
 -0.118236753254E+00
  0.874618373144E-02
  0.135327747628E-01
  0.112369087787E+00
  0.116594949524E+00
  0.107855956160E+00
  0.109003074763E+00
  0.216739975394E-01
  0.251692757576E-01
 -0.728056762564E-01
 -0.677379824478E-01
 -0.158250155772E+00
 -0.165162672093E+00
 -0.130309344988E+00
 -0.136536110258E+00
  0.328273688535E+00
  0.324885646630E+00
 -0.738586615100E-01
 -0.801264255591E-01
 -0.408881995284E+00
 -0.415720145923E+00
 -0.281071989817E+00
 -0.289197877527E+00
 -0.118354502482E+00
 -0.107941120719E+00
  0.136002165415E-01
  0.264807042596E-01
  0.117284308747E+00
  0.129572370177E+00
  0.108978611778E+00
  0.106844860643E+00
  0.242215732902E-01
  0.212359199799E-01
 -0.706947554438E-01
 -0.724620930617E-01
 -0.163501723030E+00
 -0.175639615929E+00
 -0.135691725172E+00
 -0.153177666297E+00
  0.321805187492E+00
  0.312666417001E+00
 -0.617904317955E-01
 -0.742010804453E-01
 -0.397979356530E+00
 -0.408741033781E+00
 -0.263437708888E+00
 -0.282269042354E+00
 -0.107927201335E+00
 -0.789041537756E-01
  0.266279816410E-01
  0.565066853734E-01
  0.131487830878E+00
  0.157756973926E+00
  0.942664323521E-01
  0.108237411624E+00
  0.232658855352E-01
  0.239418711465E-01
 -0.544738470787E-01
 -0.704944643317E-01
 -0.173426075669E+00
 -0.161531787715E+00
 -0.150874498941E+00
 -0.185457896867E+00
  0.302431079086E+00
  0.285730907000E+00
 -0.526582486192E-01
 -0.636064809529E-01
 -0.384356217719E+00
 -0.395822593598E+00
 -0.210438751392E+00
 -0.268914198407E+00
 -0.792523552900E-01
 -0.349356088128E-01
  0.563085793351E-01
  0.910839406976E-01
  0.161085867246E+00
  0.193521421317E+00
  0.340017628563E-01
  0.942080718933E-01
  0.126317827778E-01
  0.236395306639E-01
 -0.389259277947E-01
 -0.546045495127E-01
 -0.161810427306E+00
 -0.120202462443E+00
 -0.182753040718E+00
 -0.153824417597E+00
  0.230735621545E+00
  0.191870282590E+00
 -0.760150114959E-01
 -0.675007965157E-01
 -0.272953863393E+00
 -0.386409635096E+00
 -0.136386013939E+00
 -0.234096441351E+00
 -0.390813711284E-01
 -0.362933794940E-02
  0.842020215689E-01
  0.109998611541E+00
  0.191817121698E+00
  0.220966732443E+00
  0.265168902405E-01
 -0.475789472362E-02
  0.108885935893E-01
 -0.383952921081E-01
 -0.402820482023E-01
 -0.120106442891E+00
 -0.110770590698E+00
 -0.168638032281E+00
 -0.156017012576E+00
  0.633399680879E-02
 -0.137805381039E+00
 -0.202468672633E+00
 -0.281186741048E+00
 -0.114292591417E+00
 -0.185454868228E+00
 -0.247228382244E-01
 -0.423805007567E-01
  0.492278359537E-01
  0.224843697529E-02
  0.109817592487E+00
 -0.964709133995E-02
 -0.630998640596E-01
 -0.937233261715E-03
 -0.643704577900E-01
 -0.397191063741E-01
 -0.117790586768E+00
 -0.117728584888E+00
 -0.173262151779E+00
 -0.170279463362E+00
 -0.846991554424E-01
 -0.134532881575E+00
 -0.185406075754E+00
 -0.208393046433E+00
 -0.113783691728E+00
 -0.147239515595E+00
 -0.400736138497E-01
 -0.572297042640E-01
  0.404334622643E-02
 -0.526144833501E-01
  0.143033237254E-01
SCALARS sigma float 1
LOOKUP_TABLE default
  0.000000000000E+00
  0.000000000000E+00
  0.000000000000E+00
  0.000000000000E+00
  0.000000000000E+00
  0.000000000000E+00
  0.000000000000E+00
  0.000000000000E+00
  0.000000000000E+00
  0.000000000000E+00
  0.000000000000E+00
  0.000000000000E+00
  0.000000000000E+00
  0.000000000000E+00
  0.000000000000E+00
  0.000000000000E+00
  0.000000000000E+00
  0.000000000000E+00
  0.000000000000E+00
  0.000000000000E+00
  0.000000000000E+00
  0.000000000000E+00
  0.000000000000E+00
  0.000000000000E+00
  0.000000000000E+00
  0.000000000000E+00
  0.000000000000E+00
  0.000000000000E+00
  0.000000000000E+00
  0.000000000000E+00
  0.000000000000E+00
  0.000000000000E+00
  0.000000000000E+00
  0.000000000000E+00
  0.000000000000E+00
  0.000000000000E+00
  0.000000000000E+00
  0.000000000000E+00
  0.000000000000E+00
  0.000000000000E+00
  0.000000000000E+00
  0.000000000000E+00
  0.000000000000E+00
  0.000000000000E+00
  0.000000000000E+00
  0.000000000000E+00
  0.000000000000E+00
  0.000000000000E+00
  0.000000000000E+00
  0.000000000000E+00
  0.000000000000E+00
  0.000000000000E+00
  0.000000000000E+00
  0.000000000000E+00
  0.000000000000E+00
  0.000000000000E+00
  0.000000000000E+00
  0.000000000000E+00
  0.000000000000E+00
  0.000000000000E+00
  0.000000000000E+00
  0.000000000000E+00
  0.000000000000E+00
  0.000000000000E+00
  0.000000000000E+00
  0.000000000000E+00
  0.000000000000E+00
  0.000000000000E+00
  0.000000000000E+00
  0.000000000000E+00
  0.000000000000E+00
  0.000000000000E+00
  0.000000000000E+00
  0.000000000000E+00
  0.000000000000E+00
  0.000000000000E+00
  0.000000000000E+00
  0.000000000000E+00
  0.000000000000E+00
  0.000000000000E+00
  0.000000000000E+00
  0.000000000000E+00
  0.000000000000E+00
  0.000000000000E+00
  0.000000000000E+00
  0.000000000000E+00
  0.000000000000E+00
  0.000000000000E+00
  0.000000000000E+00
  0.000000000000E+00
  0.000000000000E+00
  0.000000000000E+00
  0.000000000000E+00
  0.000000000000E+00
  0.000000000000E+00
  0.000000000000E+00
  0.000000000000E+00
  0.000000000000E+00
  0.000000000000E+00
  0.000000000000E+00
  0.000000000000E+00
  0.000000000000E+00
  0.000000000000E+00
  0.000000000000E+00
  0.000000000000E+00
  0.000000000000E+00
  0.000000000000E+00
  0.000000000000E+00
  0.000000000000E+00
  0.000000000000E+00
  0.000000000000E+00
  0.000000000000E+00
  0.000000000000E+00
  0.000000000000E+00
  0.000000000000E+00
  0.000000000000E+00
  0.000000000000E+00
  0.000000000000E+00
  0.000000000000E+00
  0.000000000000E+00
  0.000000000000E+00
  0.000000000000E+00
  0.000000000000E+00
  0.000000000000E+00
  0.000000000000E+00
  0.000000000000E+00
  0.000000000000E+00
  0.000000000000E+00
  0.000000000000E+00
  0.000000000000E+00
  0.000000000000E+00
  0.000000000000E+00
  0.000000000000E+00
  0.000000000000E+00
  0.000000000000E+00
  0.000000000000E+00
  0.000000000000E+00
  0.000000000000E+00
  0.000000000000E+00
  0.000000000000E+00
  0.000000000000E+00
  0.000000000000E+00
  0.000000000000E+00
  0.000000000000E+00
  0.000000000000E+00
  0.000000000000E+00
  0.000000000000E+00
  0.000000000000E+00
  0.000000000000E+00
  0.000000000000E+00
  0.000000000000E+00
  0.000000000000E+00
  0.000000000000E+00
  0.000000000000E+00
  0.000000000000E+00
  0.000000000000E+00
  0.000000000000E+00
  0.000000000000E+00
  0.000000000000E+00
  0.000000000000E+00
  0.000000000000E+00
  0.000000000000E+00
  0.000000000000E+00
  0.000000000000E+00
  0.000000000000E+00
  0.000000000000E+00
  0.000000000000E+00
  0.000000000000E+00
  0.000000000000E+00
  0.000000000000E+00
  0.000000000000E+00
  0.000000000000E+00
  0.000000000000E+00
  0.000000000000E+00
  0.000000000000E+00
  0.000000000000E+00
  0.000000000000E+00
  0.000000000000E+00
  0.000000000000E+00
  0.000000000000E+00
  0.000000000000E+00
  0.000000000000E+00
  0.000000000000E+00
  0.000000000000E+00
  0.000000000000E+00
  0.000000000000E+00
  0.000000000000E+00
  0.000000000000E+00
  0.000000000000E+00
  0.000000000000E+00
  0.000000000000E+00
  0.000000000000E+00
  0.000000000000E+00
  0.000000000000E+00
  0.000000000000E+00
  0.000000000000E+00
  0.000000000000E+00
  0.000000000000E+00
  0.000000000000E+00
  0.000000000000E+00
  0.000000000000E+00
  0.000000000000E+00
  0.000000000000E+00
  0.000000000000E+00
  0.000000000000E+00
  0.000000000000E+00
  0.000000000000E+00
  0.000000000000E+00
  0.000000000000E+00
  0.000000000000E+00
  0.000000000000E+00
  0.000000000000E+00
  0.000000000000E+00
  0.000000000000E+00
  0.000000000000E+00
  0.000000000000E+00
  0.000000000000E+00
  0.000000000000E+00
  0.000000000000E+00
  0.000000000000E+00
  0.000000000000E+00
  0.000000000000E+00
  0.000000000000E+00
  0.000000000000E+00
  0.000000000000E+00
  0.000000000000E+00
  0.000000000000E+00
  0.000000000000E+00
  0.000000000000E+00
  0.000000000000E+00
  0.000000000000E+00
  0.000000000000E+00
  0.000000000000E+00
  0.000000000000E+00
  0.000000000000E+00
  0.000000000000E+00
  0.000000000000E+00
  0.000000000000E+00
  0.000000000000E+00
  0.000000000000E+00
  0.000000000000E+00
  0.000000000000E+00
  0.000000000000E+00
  0.000000000000E+00
  0.000000000000E+00
  0.000000000000E+00
  0.000000000000E+00
  0.000000000000E+00
  0.000000000000E+00
  0.000000000000E+00
  0.000000000000E+00
  0.000000000000E+00
  0.000000000000E+00
  0.000000000000E+00
  0.000000000000E+00
  0.000000000000E+00
SCALARS inclination float 1
LOOKUP_TABLE default
  0.100000000000E+01
  0.100000000000E+01
  0.100000000000E+01
  0.100000000000E+01
  0.100000000000E+01
  0.100000000000E+01
  0.100000000000E+01
  0.100000000000E+01
  0.100000000000E+01
  0.100000000000E+01
  0.100000000000E+01
  0.100000000000E+01
  0.100000000000E+01
  0.100000000000E+01
  0.100000000000E+01
  0.100000000000E+01
  0.100000000000E+01
  0.100000000000E+01
  0.100000000000E+01
  0.100000000000E+01
  0.100000000000E+01
  0.100000000000E+01
  0.100000000000E+01
  0.100000000000E+01
  0.100000000000E+01
  0.100000000000E+01
  0.100000000000E+01
  0.100000000000E+01
  0.100000000000E+01
  0.100000000000E+01
  0.100000000000E+01
  0.100000000000E+01
  0.100000000000E+01
  0.100000000000E+01
  0.100000000000E+01
  0.100000000000E+01
  0.100000000000E+01
  0.100000000000E+01
  0.100000000000E+01
  0.100000000000E+01
  0.100000000000E+01
  0.100000000000E+01
  0.100000000000E+01
  0.100000000000E+01
  0.100000000000E+01
  0.100000000000E+01
  0.100000000000E+01
  0.100000000000E+01
  0.100000000000E+01
  0.100000000000E+01
  0.100000000000E+01
  0.100000000000E+01
  0.100000000000E+01
  0.100000000000E+01
  0.100000000000E+01
  0.100000000000E+01
  0.100000000000E+01
  0.100000000000E+01
  0.100000000000E+01
  0.100000000000E+01
  0.100000000000E+01
  0.100000000000E+01
  0.100000000000E+01
  0.100000000000E+01
  0.100000000000E+01
  0.100000000000E+01
  0.100000000000E+01
  0.100000000000E+01
  0.100000000000E+01
  0.100000000000E+01
  0.100000000000E+01
  0.100000000000E+01
  0.100000000000E+01
  0.100000000000E+01
  0.100000000000E+01
  0.100000000000E+01
  0.100000000000E+01
  0.100000000000E+01
  0.100000000000E+01
  0.100000000000E+01
  0.100000000000E+01
  0.100000000000E+01
  0.100000000000E+01
  0.100000000000E+01
  0.100000000000E+01
  0.100000000000E+01
  0.100000000000E+01
  0.100000000000E+01
  0.100000000000E+01
  0.100000000000E+01
  0.100000000000E+01
  0.100000000000E+01
  0.100000000000E+01
  0.100000000000E+01
  0.100000000000E+01
  0.100000000000E+01
  0.100000000000E+01
  0.100000000000E+01
  0.100000000000E+01
  0.100000000000E+01
  0.100000000000E+01
  0.100000000000E+01
  0.100000000000E+01
  0.100000000000E+01
  0.100000000000E+01
  0.100000000000E+01
  0.100000000000E+01
  0.100000000000E+01
  0.100000000000E+01
  0.100000000000E+01
  0.100000000000E+01
  0.100000000000E+01
  0.100000000000E+01
  0.100000000000E+01
  0.100000000000E+01
  0.100000000000E+01
  0.100000000000E+01
  0.100000000000E+01
  0.100000000000E+01
  0.100000000000E+01
  0.100000000000E+01
  0.100000000000E+01
  0.100000000000E+01
  0.100000000000E+01
  0.100000000000E+01
  0.100000000000E+01
  0.100000000000E+01
  0.100000000000E+01
  0.100000000000E+01
  0.100000000000E+01
  0.100000000000E+01
  0.100000000000E+01
  0.100000000000E+01
  0.100000000000E+01
  0.100000000000E+01
  0.100000000000E+01
  0.100000000000E+01
  0.100000000000E+01
  0.100000000000E+01
  0.100000000000E+01
  0.100000000000E+01
  0.100000000000E+01
  0.100000000000E+01
  0.100000000000E+01
  0.100000000000E+01
  0.100000000000E+01
  0.100000000000E+01
  0.100000000000E+01
  0.100000000000E+01
  0.100000000000E+01
  0.100000000000E+01
  0.100000000000E+01
  0.100000000000E+01
  0.100000000000E+01
  0.100000000000E+01
  0.100000000000E+01
  0.100000000000E+01
  0.100000000000E+01
  0.100000000000E+01
  0.100000000000E+01
  0.100000000000E+01
  0.100000000000E+01
  0.100000000000E+01
  0.100000000000E+01
  0.100000000000E+01
  0.100000000000E+01
  0.100000000000E+01
  0.100000000000E+01
  0.100000000000E+01
  0.100000000000E+01
  0.100000000000E+01
  0.100000000000E+01
  0.100000000000E+01
  0.100000000000E+01
  0.100000000000E+01
  0.100000000000E+01
  0.100000000000E+01
  0.100000000000E+01
  0.100000000000E+01
  0.100000000000E+01
  0.100000000000E+01
  0.100000000000E+01
  0.100000000000E+01
  0.100000000000E+01
  0.100000000000E+01
  0.100000000000E+01
  0.100000000000E+01
  0.100000000000E+01
  0.100000000000E+01
  0.100000000000E+01
  0.100000000000E+01
  0.100000000000E+01
  0.100000000000E+01
  0.100000000000E+01
  0.100000000000E+01
  0.100000000000E+01
  0.100000000000E+01
  0.100000000000E+01
  0.100000000000E+01
  0.100000000000E+01
  0.100000000000E+01
  0.100000000000E+01
  0.100000000000E+01
  0.100000000000E+01
  0.100000000000E+01
  0.100000000000E+01
  0.100000000000E+01
  0.100000000000E+01
  0.100000000000E+01
  0.100000000000E+01
  0.100000000000E+01
  0.100000000000E+01
  0.100000000000E+01
  0.100000000000E+01
  0.100000000000E+01
  0.100000000000E+01
  0.100000000000E+01
  0.100000000000E+01
  0.100000000000E+01
  0.100000000000E+01
  0.100000000000E+01
  0.100000000000E+01
  0.100000000000E+01
  0.100000000000E+01
  0.100000000000E+01
  0.100000000000E+01
  0.100000000000E+01
  0.100000000000E+01
  0.100000000000E+01
  0.100000000000E+01
  0.100000000000E+01
  0.100000000000E+01
  0.100000000000E+01
  0.100000000000E+01
  0.100000000000E+01
  0.100000000000E+01
  0.100000000000E+01
  0.100000000000E+01
  0.100000000000E+01
  0.100000000000E+01
  0.100000000000E+01
  0.100000000000E+01
  0.100000000000E+01
  0.100000000000E+01
  0.100000000000E+01
  0.100000000000E+01
  0.100000000000E+01
  0.100000000000E+01
  0.100000000000E+01
  0.100000000000E+01
  0.100000000000E+01
  0.100000000000E+01
  0.100000000000E+01
  0.100000000000E+01
  0.100000000000E+01
  0.100000000000E+01
VECTORS v float
  0.153347816195E+03  0.441294682128E+01  0.159143295424E+02
  0.157367495299E+03  0.325447781150E+01  0.164676509692E+02
  0.161911370602E+03 -0.128941996418E+01  0.175995117245E+02
  0.165220121409E+03  0.774769737082E+00  0.177337124060E+02
  0.170518220897E+03 -0.452335612167E+01  0.170490032042E+02
  0.172958064837E+03 -0.478522130095E+00  0.168926775057E+02
  0.175183246409E+03 -0.270371441556E+01  0.367588368083E+01
  0.176089900065E+03 -0.604938843938E+01  0.376375300707E+01
  0.161916268647E+03  0.812425276768E+01 -0.213351785028E+02
  0.169788358866E+03 -0.133200001655E+02 -0.254021541987E+02
  0.106751845493E+03  0.497165349835E+02 -0.330605669886E+02
  0.115787210181E+03  0.295597406561E+02 -0.499818272671E+02
  0.136824005667E+03  0.852294517076E+01  0.743698206523E+02
  0.122192501883E+03  0.411640418787E+02  0.469682167716E+02
  0.184375840893E+03 -0.210193162445E+02  0.284939436785E+02
  0.175737950784E+03  0.251104160354E+01  0.240313313204E+02
  0.185192772734E+03 -0.694378338863E+01 -0.397033820200E+01
  0.184895605610E+03 -0.584719681268E+01 -0.394153987528E+01
  0.179448421786E+03 -0.399992580075E+00 -0.175171877337E+02
  0.176143634475E+03 -0.587875101634E+01 -0.177289328485E+02
  0.169305258179E+03  0.959659245801E+00 -0.181543131932E+02
  0.164867233828E+03 -0.180903706327E+01 -0.179743064985E+02
  0.159470495601E+03  0.358772785622E+01 -0.166567563656E+02
  0.154083319237E+03  0.514030904621E+01 -0.159151989614E+02
  0.152851734324E+03  0.872935091230E+01  0.154000873377E+02
  0.153392802971E+03  0.839794921607E+01  0.154933191305E+02
  0.160349247879E+03  0.144146416643E+01  0.171365518044E+02
  0.161940721017E+03  0.126373108530E+01  0.173273444456E+02
  0.168543778019E+03 -0.533935704846E+01  0.169361729632E+02
  0.170519057624E+03 -0.443432085990E+01  0.170404125585E+02
  0.176088212318E+03 -0.100034969900E+02  0.384542817128E+01
  0.176224007709E+03 -0.103373410198E+02  0.385513497169E+01
  0.169962898705E+03 -0.407623394950E+01 -0.241440049714E+02
  0.172294259604E+03 -0.855644400543E+01 -0.250889641371E+02
  0.119482953999E+03  0.442548791665E+02 -0.436060172010E+02
  0.120415025063E+03  0.427637751339E+02 -0.450106063700E+02
  0.146092603052E+03  0.170861971444E+02  0.747786617839E+02
  0.141018928975E+03  0.252029390309E+02  0.671328379022E+02
  0.188505573451E+03 -0.222837169569E+02  0.292422673374E+02
  0.184497405468E+03 -0.145811629014E+02  0.276176602057E+02
  0.185168559976E+03 -0.152523065698E+02 -0.414153201878E+01
  0.185189204719E+03 -0.153030602356E+02 -0.414300523852E+01
  0.176140108681E+03 -0.625393186426E+01 -0.177651320775E+02
  0.173312939626E+03 -0.754928794506E+01 -0.176159360077E+02
  0.164897982070E+03  0.865709220656E+00 -0.176891771371E+02
  0.162449230229E+03  0.113918186426E+01 -0.173956112801E+02
  0.154132043863E+03  0.945641622537E+01 -0.154592077419E+02
  0.153151447335E+03  0.100570265771E+02 -0.152902442339E+02
  0.152595501156E+03  0.978364078255E+01  0.152600601387E+02
  0.152861334083E+03  0.957971378346E+01  0.153102476105E+02
  0.159923253440E+03  0.251775292467E+01  0.169745362124E+02
  0.160359290243E+03  0.231503530122E+01  0.170434286578E+02
  0.167660728392E+03 -0.498643645283E+01  0.168157893914E+02
  0.168546092713E+03 -0.509305079715E+01  0.169124080698E+02
  0.176222969396E+03 -0.127699544563E+02  0.390538206353E+01
  0.175416237024E+03 -0.112575410034E+02  0.385745838610E+01
  0.172302059244E+03 -0.814336835400E+01 -0.250327413972E+02
  0.172148474487E+03 -0.790543230481E+01 -0.249784141776E+02
  0.120628893453E+03  0.436141651457E+02 -0.446416456040E+02
  0.119850240605E+03  0.446601075082E+02 -0.435840134359E+02