# vtk DataFile Version 3.0
MachLine results file. Generated by MachLine, USU AeroLab (c) 2022.
ASCII
DATASET POLYDATA
POINTS                  36 float
  0.209237651825E+02  0.192375373840E+01  0.000000000000E+00
  0.190000000000E+02  0.000000000000E+00  0.000000000000E+00
  0.147394040415E+05  0.192375373840E+01  0.272790907726E+04
  0.147402700924E+05  0.000000000000E+00  0.272842613910E+04
  0.244703655243E+02  0.547033166885E+01  0.000000000000E+00
  0.209237651825E+02  0.192375373840E+01  0.000000000000E+00
  0.147378074141E+05  0.547033166885E+01  0.272695583634E+04
  0.147394040415E+05  0.192375373840E+01  0.272790907726E+04
  0.303820724487E+02  0.113820018768E+02  0.000000000000E+00
  0.244703655243E+02  0.547033166885E+01  0.000000000000E+00
  0.147351460505E+05  0.113820018768E+02  0.272536691163E+04
  0.147378074141E+05  0.547033166885E+01  0.272695583634E+04
  0.387563171387E+02  0.197561950684E+02  0.000000000000E+00
  0.303820724487E+02  0.113820018768E+02  0.000000000000E+00
  0.147313760884E+05  0.197561950684E+02  0.272311611595E+04
  0.147351460505E+05  0.113820018768E+02  0.272536691163E+04
  0.482439842224E+02  0.292438049316E+02  0.000000000000E+00
  0.387563171387E+02  0.197561950684E+02  0.000000000000E+00
  0.147271048800E+05  0.292438049316E+02  0.272056605910E+04
  0.147313760884E+05  0.197561950684E+02  0.272311611595E+04
  0.566182289124E+02  0.376179962158E+02  0.000000000000E+00
  0.482439842224E+02  0.292438049316E+02  0.000000000000E+00
  0.147233349180E+05  0.376179962158E+02  0.271831526343E+04
  0.147271048800E+05  0.292438049316E+02  0.272056605910E+04
  0.625299339294E+02  0.435296669006E+02  0.000000000000E+00
  0.566182289124E+02  0.376179962158E+02  0.000000000000E+00
  0.147206735552E+05  0.435296669006E+02  0.271672633923E+04
  0.147233349180E+05  0.376179962158E+02  0.271831526343E+04
  0.660765380859E+02  0.470762481689E+02  0.000000000000E+00
  0.625299339294E+02  0.435296669006E+02  0.000000000000E+00
  0.147190769260E+05  0.470762481689E+02  0.271577309728E+04
  0.147206735552E+05  0.435296669006E+02  0.271672633923E+04
  0.680002975464E+02  0.490000000000E+02  0.000000000000E+00
  0.660765380859E+02  0.470762481689E+02  0.000000000000E+00
  0.147182108778E+05  0.490000000000E+02  0.271525603698E+04
  0.147190769260E+05  0.470762481689E+02  0.271577309728E+04
POLYGONS                  18                  72
3                   0                   3                   1
3                   0                   2                   3
3                   4                   7                   5
3                   4                   6                   7
3                   8                  11                   9
3                   8                  10                  11
3                  12                  15                  13
3                  12                  14                  15
3                  16                  19                  17
3                  16                  18                  19
3                  20                  23                  21
3                  20                  22                  23
3                  24                  27                  25
3                  24                  26                  27
3                  28                  31                  29
3                  28                  30                  31
3                  32                  35                  33
3                  32                  34                  35
POINT_DATA                  36
SCALARS mu float 1
LOOKUP_TABLE default
  0.461982110327E+01
 -0.214784085985E+00
  0.461982110327E+01
 -0.214784085985E+00
 -0.563196291190E+00
  0.461982110327E+01
 -0.563196291190E+00
  0.461982110327E+01
  0.145169045054E+01
 -0.563196291190E+00
  0.145169045054E+01
 -0.563196291190E+00
  0.138130919931E+01
  0.145169045054E+01
  0.138130919931E+01
  0.145169045054E+01
  0.148457242725E+01
  0.138130919931E+01
  0.148457242725E+01
  0.138130919931E+01
  0.866576858397E+00
  0.148457242725E+01
  0.866576858397E+00
  0.148457242725E+01
  0.143277234138E+01
  0.866576858397E+00
  0.143277234138E+01
  0.866576858397E+00
 -0.261206665896E+01
  0.143277234138E+01
 -0.261206665896E+01
  0.143277234138E+01
  0.000000000000E+00
 -0.261206665896E+01
  0.000000000000E+00
 -0.261206665896E+01
