# vtk DataFile Version 3.0
TriPan results file. Generated by TriPan, USU AeroLab (c) 2021.
ASCII
DATASET POLYDATA
POINTS                  20 float
  0.190000000000E+02  0.000000000000E+00  0.000000000000E+00
  0.999583518442E+02  0.000000000000E+00  0.296860799794E+01
  0.209237651825E+02  0.192375373840E+01  0.000000000000E+00
  0.999609350018E+02  0.192375373840E+01  0.289816145111E+01
  0.244703655243E+02  0.547033166885E+01  0.000000000000E+00
  0.999656972398E+02  0.547033166885E+01  0.276828814363E+01
  0.303820724487E+02  0.113820018768E+02  0.000000000000E+00
  0.999736352516E+02  0.113820018768E+02  0.255180676508E+01
  0.387563171387E+02  0.197561950684E+02  0.000000000000E+00
  0.999848798641E+02  0.197561950684E+02  0.224514947338E+01
  0.482439842224E+02  0.292438049316E+02  0.000000000000E+00
  0.999976195371E+02  0.292438049316E+02  0.189771965730E+01
  0.566182289124E+02  0.376179962158E+02  0.000000000000E+00
  0.100008864149E+03  0.376179962158E+02  0.159106236560E+01
  0.625299339294E+02  0.435296669006E+02  0.000000000000E+00
  0.100016802159E+03  0.435296669006E+02  0.137458105691E+01
  0.660765380859E+02  0.470762481689E+02  0.000000000000E+00
  0.100021564402E+03  0.470762481689E+02  0.124470760973E+01
  0.680002975464E+02  0.490000000000E+02  0.000000000000E+00
  0.100024147552E+03  0.490000000000E+02  0.117426127244E+01
POLYGONS                  18                  72
3                   0                   1                   3
3                   0                   3                   2
3                   2                   3                   5
3                   2                   5                   4
3                   4                   5                   7
3                   4                   7                   6
3                   6                   7                   9
3                   6                   9                   8
3                   8                   9                  11
3                   8                  11                  10
3                  10                  11                  13
3                  10                  13                  12
3                  12                  13                  15
3                  12                  15                  14
3                  14                  15                  17
3                  14                  17                  16
3                  16                  17                  19
3                  16                  19                  18
POINT_DATA                  20
SCALARS mu float 1
LOOKUP_TABLE default
 -0.132824102128E-03
 -0.132824102128E-03
 -0.249701162716E-04
 -0.249701162716E-04
 -0.352312433201E-04
 -0.352312433201E-04
 -0.462054472123E-04
 -0.462054472123E-04
 -0.539197789990E-04
 -0.539197789990E-04
 -0.505883513000E-04
 -0.505883513000E-04
 -0.355987131613E-04
 -0.355987131613E-04
  0.288990687380E-05
  0.288990687380E-05
  0.520426765675E-03
  0.520426765675E-03
  0.000000000000E+00
  0.000000000000E+00
