# vtk DataFile Version 3.0
TriPan results file. Generated by TriPan, USU AeroLab (c) 2021.
ASCII
DATASET POLYDATA
POINTS                  20 float
  0.190000000000E+02  0.000000000000E+00  0.000000000000E+00
  0.999330945025E+04  0.000000000000E+00  0.365741324193E+03
  0.209237651825E+02  0.192375373840E+01  0.000000000000E+00
  0.999331203341E+04  0.192375373840E+01  0.365670877646E+03
  0.244703655243E+02  0.547033166885E+01  0.000000000000E+00
  0.999331679565E+04  0.547033166885E+01  0.365541004339E+03
  0.303820724487E+02  0.113820018768E+02  0.000000000000E+00
  0.999332473366E+04  0.113820018768E+02  0.365324522960E+03
  0.387563171387E+02  0.197561950684E+02  0.000000000000E+00
  0.999333597827E+04  0.197561950684E+02  0.365017865668E+03
  0.482439842224E+02  0.292438049316E+02  0.000000000000E+00
  0.999334871795E+04  0.292438049316E+02  0.364670435852E+03
  0.566182289124E+02  0.376179962158E+02  0.000000000000E+00
  0.999335996256E+04  0.376179962158E+02  0.364363778561E+03
  0.625299339294E+02  0.435296669006E+02  0.000000000000E+00
  0.999336790057E+04  0.435296669006E+02  0.364147297252E+03
  0.660765380859E+02  0.470762481689E+02  0.000000000000E+00
  0.999337266281E+04  0.470762481689E+02  0.364017423805E+03
  0.680002975464E+02  0.490000000000E+02  0.000000000000E+00
  0.999337524596E+04  0.490000000000E+02  0.363946977467E+03
POLYGONS                  18                  72
3                   0                   1                   3
3                   0                   3                   2
3                   2                   3                   5
3                   2                   5                   4
3                   4                   5                   7
3                   4                   7                   6
3                   6                   7                   9
3                   6                   9                   8
3                   8                   9                  11
3                   8                  11                  10
3                  10                  11                  13
3                  10                  13                  12
3                  12                  13                  15
3                  12                  15                  14
3                  14                  15                  17
3                  14                  17                  16
3                  16                  17                  19
3                  16                  19                  18
POINT_DATA                  20
SCALARS mu float 1
LOOKUP_TABLE default
 -0.118678446400E-03
 -0.118678446400E-03
 -0.249818258624E-04
 -0.249818258624E-04
 -0.352799123722E-04
 -0.352799123722E-04
 -0.473766480704E-04
 -0.473766480704E-04
 -0.541757068090E-04
 -0.541757068090E-04
 -0.496519202857E-04
 -0.496519202857E-04
 -0.348851098598E-04
 -0.348851098598E-04
 -0.174412711510E-04
 -0.174412711510E-04
 -0.298507642893E-05
 -0.298507642893E-05
  0.000000000000E+00
  0.000000000000E+00
