# vtk DataFile Version 3.0
TriPan results file. Generated by TriPan, USU AeroLab (c) 2021.
ASCII
DATASET POLYDATA
POINTS                  50 float
     19.580198288000      0.579897820950      0.000000000000
     99.620082201201      0.579897820950      8.977911463734
     19.000301361100      0.000000000000      0.000000000000
     99.612876794666      0.000000000000      9.042149110198
     20.321611404400      1.321311235430      0.000000000000
     99.629294498535      1.321311235430      8.895781982707
     21.262266159100      2.261965751650      0.000000000000
     99.640982437550      2.261965751650      8.791581658866
     22.444129943800      3.443829536440      0.000000000000
     99.655667476636      3.443829536440      8.660661585920
     23.911006927500      4.910706520080      0.000000000000
     99.673893896736      4.910706520080      8.498169389954
     25.704246521000      6.703944683070      0.000000000000
     99.696175477628      6.703944683070      8.299524621049
     27.856279373200      8.855978012080      0.000000000000
     99.722915180594      8.855978012080      8.061134798432
     30.382303237900     11.382001876800      0.000000000000
     99.754301842633     11.382001876800      7.781316402345
     33.271335601800     14.271034240700      0.000000000000
     99.790199002470     14.271034240700      7.461286012447
     36.479064941400     17.478763580300      0.000000000000
     99.830056075121     17.478763580300      7.105952204467
     39.925552368200     20.925249099700      0.000000000000
     99.872879794088     20.925249099700      6.724170148732
     43.500301361100     24.500000000000      0.000000000000
     99.917297204423     24.500000000000      6.328180014360
     47.075050354000     28.074750900300      0.000000000000
     99.961714614757     28.074750900300      5.932189879988
     50.521537780800     31.521236419700      0.000000000000
    100.004538333724     31.521236419700      5.550407824252
     53.729267120400     34.728965759300      0.000000000000
    100.044395406375     34.728965759300      5.195074016273
     56.618297576900     37.617996215800      0.000000000000
    100.080292542512     37.617996215800      4.875043837665
     59.144321441700     40.144020080600      0.000000000000
    100.111679204552     40.144020080600      4.595225441567
     61.296356201200     42.296054840100      0.000000000000
    100.138418931218     42.296054840100      4.356835407671
     63.089595794700     44.089294433600      0.000000000000
    100.160700512109     44.089294433600      4.158190638765
     64.556472778300     45.556171417200      0.000000000000
    100.178926932208     45.556171417200      3.995698442810
     65.738334655800     46.738033294700      0.000000000000
    100.193611947596     46.738033294700      3.864778581133
     66.678993225100     47.678688049300      0.000000000000
    100.205299934009     47.678688049300      3.760577834733
     67.420402526900     48.420101165800      0.000000000000
    100.214512183946     48.420101165800      3.678448776265
     68.000297546400     49.000000000000      0.000000000000
    100.221717566781     49.000000000000      3.614211341092
POLYGONS                  48                 192
3                   0                   1                   3
3                   0                   3                   2
3                   4                   5                   1
3                   4                   1                   0
3                   6                   7                   5
3                   6                   5                   4
3                   8                   9                   7
3                   8                   7                   6
3                  10                  11                   9
3                  10                   9                   8
3                  12                  13                  11
3                  12                  11                  10
3                  14                  15                  13
3                  14                  13                  12
3                  16                  17                  15
3                  16                  15                  14
3                  18                  19                  17
3                  18                  17                  16
3                  20                  21                  19
3                  20                  19                  18
3                  22                  23                  21
3                  22                  21                  20
3                  24                  25                  23
3                  24                  23                  22
3                  26                  27                  25
3                  26                  25                  24
3                  28                  29                  27
3                  28                  27                  26
3                  30                  31                  29
3                  30                  29                  28
3                  32                  33                  31
3                  32                  31                  30
3                  34                  35                  33
3                  34                  33                  32
3                  36                  37                  35
3                  36                  35                  34
3                  38                  39                  37
3                  38                  37                  36
3                  40                  41                  39
3                  40                  39                  38
3                  42                  43                  41
3                  42                  41                  40
3                  44                  45                  43
3                  44                  43                  42
3                  46                  47                  45
3                  46                  45                  44
3                  48                  49                  47
3                  48                  47                  46
POINT_DATA                  50
SCALARS mu float 1
LOOKUP_TABLE default
     -3.501183277371
     -3.501183277371
     -3.485436641983
     -3.485436641983
     -3.526615996811
     -3.526615996811
     -3.562604992413
     -3.562604992413
     -3.607031005373
     -3.607031005373
     -3.660202982980
     -3.660202982980
     -3.721649696739
     -3.721649696739
     -3.786313619517
     -3.786313619517
     -3.850133558966
     -3.850133558966
     -3.907585338965
     -3.907585338965
     -3.952948005114
     -3.952948005114
     -3.985554390801
     -3.985554390801
     -3.994089806613
     -3.994089806613
     -3.972330110067
     -3.972330110067
     -3.909800101000
     -3.909800101000
     -3.801278898636
     -3.801278898636
     -3.637561596988
     -3.637561596988
     -3.420188236235
     -3.420188236235
     -3.146179159174
     -3.146179159174
     -2.819122284751
     -2.819122284751
     -2.439285478616
     -2.439285478616
     -2.007596698694
     -2.007596698694
     -1.514201402717
     -1.514201402717
     -0.899512529679
     -0.899512529679
      0.000000000000
      0.000000000000
