# vtk DataFile Version 3.0
TriPan results file. Generated by TriPan, USU AeroLab (c) 2021.
ASCII
DATASET POLYDATA
POINTS                  20 float
     20.924055099500      1.923753738400      0.000000000000
     99.636780055944      1.923753738400      8.829046734932
     19.000301361100      0.000000000000      0.000000000000
     99.612876794666      0.000000000000      9.042149110198
     24.470632553100      5.470331668850      0.000000000000
     99.680847425808      5.470331668850      8.436177281664
     30.382303237900     11.382001876800      0.000000000000
     99.754301842633     11.382001876800      7.781316402345
     38.756496429400     19.756195068400      0.000000000000
     99.858353896622     19.756195068400      6.853671442169
     48.244106292700     29.243804931600      0.000000000000
     99.976240512222     29.243804931600      5.802688586562
     56.618297576900     37.617996215800      0.000000000000
    100.080292542512     37.617996215800      4.875043837665
     62.529968261700     43.529666900600      0.000000000000
    100.153746959338     43.529666900600      4.220182958346
     66.076545715300     47.076248168900      0.000000000000
    100.197814329201     47.076248168900      3.827313505078
     68.000297546400     49.000000000000      0.000000000000
    100.221717566781     49.000000000000      3.614211341092
POLYGONS                  18                  72
3                   0                   1                   3
3                   0                   3                   2
3                   4                   5                   1
3                   4                   1                   0
3                   6                   7                   5
3                   6                   5                   4
3                   8                   9                   7
3                   8                   7                   6
3                  10                  11                   9
3                  10                   9                   8
3                  12                  13                  11
3                  12                  11                  10
3                  14                  15                  13
3                  14                  13                  12
3                  16                  17                  15
3                  16                  15                  14
3                  18                  19                  17
3                  18                  17                  16
POINT_DATA                  20
SCALARS mu float 1
LOOKUP_TABLE default
     -3.780519261658
     -3.780519261658
     -4.016842312049
     -4.016842312049
     -3.682158274841
     -3.682158274841
     -3.680131873006
     -3.680131873006
     -3.649055105083
     -3.649055105083
     -3.477829273072
     -3.477829273072
     -3.028168797113
     -3.028168797113
     -2.256714574388
     -2.256714574388
     -1.229272640739
     -1.229272640739
      0.000000000000
      0.000000000000
