# vtk DataFile Version 3.0
TriPan results file. Generated by TriPan, USU AeroLab (c) 2021.
ASCII
DATASET POLYDATA
POINTS                 144 float
      0.000000000000      0.000000000000      0.000000000000
      0.750993072987      0.000000000000     -0.543790996075
      0.750993072987      0.000000000000      0.543790996075
      1.923753738400      1.923753738400      0.000000000000
      2.674746751790      1.923753738400     -0.543790996075
      2.674746751790      1.923753738400      0.543790996075
      3.592464447020      0.000000000000     -1.038844943050
      3.592464447020      0.000000000000      1.038844943050
      5.470331668850      5.470331668850      0.000000000000
      5.516218185420      1.923753738400     -1.038844943050
      5.516218185420      1.923753738400      1.038844943050
      6.221324920650      5.470331668850     -0.543790996075
      6.221324920650      5.470331668850      0.543790996075
      9.062796592710      5.470331668850     -1.038844943050
      9.062796592710      5.470331668850      1.038844943050
      9.395236968990      0.000000000000     -0.980761349201
      9.395236968990      0.000000000000      0.980761349201
     11.318990707400      1.923753738400     -0.980761349201
     11.318990707400      1.923753738400      0.980761349201
     11.382001876800     11.382001876800      0.000000000000
     12.132995605500     11.382001876800     -0.543790996075
     12.132995605500     11.382001876800      0.543790996075
     14.865568161000      5.470331668850     -0.980761349201
     14.865568161000      5.470331668850      0.980761349201
     14.974466323900     11.382001876800     -1.038844943050
     14.974466323900     11.382001876800      1.038844943050
     15.176529884300      0.000000000000     -0.411069482565
     15.176529884300      0.000000000000      0.411069482565
     17.100284576400      1.923753738400     -0.411069482565
     17.100284576400      1.923753738400      0.411069482565
     18.049325943000      0.000000000000     -0.101516798139
     18.049325943000      0.000000000000      0.101516798139
     19.000301361100      0.000000000000      0.000000000000
     19.756195068400     19.756195068400      0.000000000000
     19.973079681400      1.923753738400     -0.101516798139
     19.973079681400      1.923753738400      0.101516798139
     20.507186889600     19.756195068400     -0.543790996075
     20.507186889600     19.756195068400      0.543790996075
     20.646862030000      5.470331668850     -0.411069482565
     20.646862030000      5.470331668850      0.411069482565
     20.777238845800     11.382001876800     -0.980761349201
     20.777238845800     11.382001876800      0.980761349201
     20.924055099500      1.923753738400      0.000000000000
     23.348659515400     19.756195068400     -1.038844943050
     23.348659515400     19.756195068400      1.038844943050
     23.519659042400      5.470331668850     -0.101516798139
     23.519659042400      5.470331668850      0.101516798139
     24.470632553100      5.470331668850      0.000000000000
     26.558532714800     11.382001876800     -0.411069482565
     26.558532714800     11.382001876800      0.411069482565
     29.151432037400     19.756195068400     -0.980761349201
     29.151432037400     19.756195068400      0.980761349201
     29.243804931600     29.243804931600      0.000000000000
     29.431327819800     11.382001876800     -0.101516798139
     29.431327819800     11.382001876800      0.101516798139
     29.994798660300     29.243804931600     -0.543790996075
     29.994798660300     29.243804931600      0.543790996075
     30.382303237900     11.382001876800      0.000000000000
     32.836269378700     29.243804931600     -1.038844943050
     32.836269378700     29.243804931600      1.038844943050
     34.932723999000     19.756195068400     -0.411069482565
     34.932723999000     19.756195068400      0.411069482565
     37.617996215800     37.617996215800      0.000000000000
     37.805519104000     19.756195068400     -0.101516798139
     37.805519104000     19.756195068400      0.101516798139
     38.368991851800     37.617996215800     -0.543790996075
     38.368991851800     37.617996215800      0.543790996075
     38.639041900600     29.243804931600     -0.980761349201
     38.639041900600     29.243804931600      0.980761349201
     38.756496429400     19.756195068400      0.000000000000
     41.210460662800     37.617996215800     -1.038844943050
     41.210460662800     37.617996215800      1.038844943050
     43.529666900600     43.529666900600      0.000000000000
     44.280662536600     43.529666900600     -0.543790996075
     44.280662536600     43.529666900600      0.543790996075
     44.420333862300     29.243804931600     -0.411069482565
     44.420333862300     29.243804931600      0.411069482565
     47.013233184800     37.617996215800     -0.980761349201
     47.013233184800     37.617996215800      0.980761349201
     47.076248168900     47.076248168900      0.000000000000
     47.122131347700     43.529666900600     -1.038844943050
     47.122131347700     43.529666900600      1.038844943050
     47.293132782000     29.243804931600     -0.101516798139
     47.293132782000     29.243804931600      0.101516798139
     47.827239990200     47.076248168900     -0.543790996075
     47.827239990200     47.076248168900      0.543790996075
     48.244106292700     29.243804931600      0.000000000000
     49.000000000000     49.000000000000      0.000000000000
     49.750991821300     49.000000000000     -0.543790996075
     49.750991821300     49.000000000000      0.543790996075
     50.135513305700     49.384517669700     -0.384518325329
     50.135513305700     49.384517669700      0.384518325329
     50.294784545900     49.543792724600     -0.000000000000
     50.668708801300     47.076248168900     -1.038844943050
     50.668708801300     47.076248168900      1.038844943050
     52.592464447000     49.000000000000     -1.038844943050
     52.592464447000     49.000000000000      1.038844943050
     52.794528961200     37.617996215800     -0.411069482565
     52.794528961200     37.617996215800      0.411069482565
     52.924903869600     43.529666900600     -0.980761349201
     52.924903869600     43.529666900600      0.980761349201
     53.327037811300     49.734573364300     -0.734574317932
     53.327037811300     49.734573364300      0.734574317932
     53.631309509300     50.038845062300     -0.000000000000
     55.667324066200     37.617996215800     -0.101516798139
     55.667324066200     37.617996215800      0.101516798139
     56.471481323200     47.076248168900     -0.980761349201
     56.471481323200     47.076248168900      0.980761349201
     56.618297576900     37.617996215800      0.000000000000
     58.395236969000     49.000000000000     -0.980761349201
     58.395236969000     49.000000000000      0.980761349201
     58.706199646000     43.529666900600     -0.411069482565
     58.706199646000     43.529666900600      0.411069482565
     59.088741302500     49.693504333500     -0.693503022194
     59.088741302500     49.693504333500      0.693503022194
     59.375999450700     49.980762481700      0.000000000000
     61.578994751000     43.529666900600     -0.101516798139
     61.578994751000     43.529666900600      0.101516798139
     62.252777099600     47.076248168900     -0.411069482565
     62.252777099600     47.076248168900      0.411069482565
     62.529968261700     43.529666900600      0.000000000000
     64.176528930700     49.000000000000     -0.411069482565
     64.176528930700     49.000000000000      0.411069482565
     64.467201232900     49.290668487500     -0.290670007467
     64.467201232900     49.290668487500      0.290670007467
     64.587600708000     49.411067962600      0.000000000000
     65.125572204600     47.076248168900     -0.101516798139
     65.125572204600     47.076248168900      0.101516798139
     66.076545715300     47.076248168900      0.000000000000
     67.049324035600     49.000000000000     -0.101516798139
     67.049324035600     49.000000000000      0.101516798139
     67.121109008800     49.071784973100     -0.071783214807
     67.121109008800     49.071784973100      0.071783214807
     67.150840759300     49.101516723600     -0.000000000000
     68.000297546400     49.000000000000      0.000000000000
     20.924055099500      1.923753738400      0.000000000000
     19.000301361100      0.000000000000      0.000000000000
     24.470632553100      5.470331668850      0.000000000000
     30.382303237900     11.382001876800      0.000000000000
     38.756496429400     19.756195068400      0.000000000000
     48.244106292700     29.243804931600      0.000000000000
     56.618297576900     37.617996215800      0.000000000000
     62.529968261700     43.529666900600      0.000000000000
     66.076545715300     47.076248168900      0.000000000000
POLYGONS                 256                1024
3                  32                  34                  42
3                  32                  30                  34
3                  30                  28                  34
3                  30                  26                  28
3                  26                  17                  28
3                  26                  15                  17
3                  15                   6                  17
3                  17                   6                   9
3                   6                   1                   9
3                   9                   1                   4
3                   1                   0                   4
3                   4                   0                   3
3                   0                   5                   3
3                   0                   2                   5
3                   2                  10                   5
3                   2                   7                  10
[...]
CELL_DATA                 256
SCALARS sigma float 1
LOOKUP_TABLE default
      0.000000000000
      0.000000000000
      0.000000000000
      0.000000000000
      0.000000000000
      0.000000000000
      0.000000000000
      0.000000000000
      0.000000000000
      0.000000000000
      0.000000000000
      0.000000000000
      0.000000000000
      0.000000000000
      0.000000000000
      0.000000000000
      0.000000000000
      0.000000000000
      0.000000000000
      0.000000000000
      0.000000000000
      0.000000000000
      0.000000000000
      0.000000000000
      0.000000000000
      0.000000000000
      0.000000000000
      0.000000000000
      0.000000000000
      0.000000000000
      0.000000000000
      0.000000000000
      0.000000000000
      0.000000000000
      0.000000000000
      0.000000000000
      0.000000000000
      0.000000000000
      0.000000000000
      0.000000000000
      0.000000000000
      0.000000000000
      0.000000000000
      0.000000000000
      0.000000000000
      0.000000000000
      0.000000000000
      0.000000000000
      0.000000000000
      0.000000000000
      0.000000000000
      0.000000000000
      0.000000000000
      0.000000000000
      0.000000000000
      0.000000000000
      0.000000000000
      0.000000000000
      0.000000000000
      0.000000000000
      0.000000000000
      0.000000000000
      0.000000000000
      0.000000000000
      0.000000000000
      0.000000000000
      0.000000000000
      0.000000000000
      0.000000000000
      0.000000000000
      0.000000000000
      0.000000000000
      0.000000000000
      0.000000000000
      0.000000000000
      0.000000000000
      0.000000000000
      0.000000000000
      0.000000000000
      0.000000000000
      0.000000000000
      0.000000000000
      0.000000000000
      0.000000000000
      0.000000000000
      0.000000000000
      0.000000000000
      0.000000000000
      0.000000000000
      0.000000000000
      0.000000000000
      0.000000000000
      0.000000000000
      0.000000000000
      0.000000000000
      0.000000000000
      0.000000000000
      0.000000000000
      0.000000000000
      0.000000000000
      0.000000000000
      0.000000000000
      0.000000000000
      0.000000000000
      0.000000000000
      0.000000000000
      0.000000000000
      0.000000000000
      0.000000000000
      0.000000000000
      0.000000000000
      0.000000000000
      0.000000000000
      0.000000000000
      0.000000000000
      0.000000000000
      0.000000000000
      0.000000000000
      0.000000000000
      0.000000000000
      0.000000000000
      0.000000000000
      0.000000000000
      0.000000000000
      0.000000000000
      0.000000000000
      0.000000000000
      0.000000000000
      0.000000000000
      0.000000000000
      0.000000000000
      0.000000000000
      0.000000000000
      0.000000000000
      0.000000000000
      0.000000000000
      0.000000000000
      0.000000000000
      0.000000000000
      0.000000000000
      0.000000000000
      0.000000000000
      0.000000000000
      0.000000000000
      0.000000000000
      0.000000000000
      0.000000000000
      0.000000000000
      0.000000000000
      0.000000000000
      0.000000000000
      0.000000000000
      0.000000000000
      0.000000000000
      0.000000000000
      0.000000000000
      0.000000000000
      0.000000000000
      0.000000000000
      0.000000000000
      0.000000000000
      0.000000000000
      0.000000000000
      0.000000000000
      0.000000000000
      0.000000000000
      0.000000000000
      0.000000000000
      0.000000000000
      0.000000000000
      0.000000000000
      0.000000000000
      0.000000000000
      0.000000000000
      0.000000000000
      0.000000000000
      0.000000000000
      0.000000000000
      0.000000000000
      0.000000000000
      0.000000000000
      0.000000000000
      0.000000000000
      0.000000000000
      0.000000000000
      0.000000000000
      0.000000000000
      0.000000000000
      0.000000000000
      0.000000000000
      0.000000000000
      0.000000000000
      0.000000000000
      0.000000000000
      0.000000000000
      0.000000000000
      0.000000000000
      0.000000000000
      0.000000000000
      0.000000000000
      0.000000000000
      0.000000000000
      0.000000000000
      0.000000000000
      0.000000000000
      0.000000000000
      0.000000000000
      0.000000000000
      0.000000000000
      0.000000000000
      0.000000000000
      0.000000000000
      0.000000000000
      0.000000000000
      0.000000000000
      0.000000000000
      0.000000000000
      0.000000000000
      0.000000000000
      0.000000000000
      0.000000000000
      0.000000000000
      0.000000000000
      0.000000000000
      0.000000000000
      0.000000000000
      0.000000000000
      0.000000000000
      0.000000000000
      0.000000000000
      0.000000000000
      0.000000000000
      0.000000000000
      0.000000000000
      0.000000000000
      0.000000000000
      0.000000000000
      0.000000000000
      0.000000000000
      0.000000000000
      0.000000000000
      0.000000000000
      0.000000000000
      0.000000000000
      0.000000000000
      0.000000000000
      0.000000000000
      0.000000000000
      0.000000000000
      0.000000000000
      0.000000000000
      0.000000000000
      0.000000000000
      0.000000000000
      0.000000000000
      0.000000000000
SCALARS C_p float 1
LOOKUP_TABLE default
      0.186989662335
      0.431601194656
      0.133402977086
      0.104724228043
      0.011857331882
     -0.015677427773
      0.008468856675
     -0.012995327363
      0.221646480957
      0.141536812378
      0.583651158606
      0.584992233111
     -0.302593292864
      0.167525644508
     -0.558886176913
     -0.333304134721
     -0.421158574449
     -0.413638748880
     -0.319973481072
     -0.270554204624
     -0.190209121789
     -0.115947727600
     -0.493990928112
      0.049341631349
      0.144199290169
      0.194597489557
      0.089118702881
      0.130900757410
      0.021035942217
      0.012428776448
     -0.012510534084
     -0.015523986431
      0.136890704612
      0.137383150820
      0.506646416085
      0.502577968861
     -0.556020617906
     -0.309049481160
     -0.684599856790
     -0.544004038245
     -0.443258601164
     -0.433752166258
     -0.271455300689
     -0.216915574816
     -0.115844030434
     -0.022369143886
      0.052927901787
      0.120390024499
      0.141343191627
      0.145868010320
      0.076598379657
      0.089602109419
      0.012489244456
      0.021068715745
     -0.015350681402
     -0.007915087671
      0.136344872849
      0.155637341587
      0.502443773370
      0.495250940422
     -0.713513823548
     -0.555883904018
     -0.755828796854
     -0.684714140058
     -0.440707828715
     -0.455898427668
     -0.217564188543
     -0.179350267561
     -0.022046998575
      0.004052713615
      0.118381794314
      0.126404923892
      0.135232017371
      0.141090905758
      0.069857419256
      0.076531135940
      0.006119864802
      0.012475610022
     -0.007849926121
     -0.007677016579
      0.156207346432
      0.169004937607
      0.503119138912
      0.497564783035
     -0.780200906407
     -0.713693416472
     -0.778761306145
     -0.761001301398
     -0.436266203824
     -0.448928885033
     -0.179537348179
     -0.164918356191
      0.004048989208
      0.015562068444
      0.126504176419
      0.135542780246
      0.128082292592
      0.134206517779
      0.060046517314
      0.069411551058
     -0.003488899276
      0.006080444477
     -0.007590273598
     -0.015132150159
      0.168840199594
      0.167083819042
      0.500066149998
      0.499542206747
     -0.783381876327
     -0.780449719850
     -0.774041683439
     -0.781793411166
     -0.425514583138
     -0.440103541311
     -0.165341749026
     -0.150692437288
      0.015612009996
      0.031149304603
      0.136442866643
      0.149164462657
      0.120517026185
      0.125418759096
      0.046079896623
      0.058773821715
     -0.023003396933
     -0.003647575175
     -0.015034675479
     -0.036111649525
      0.165677340183
      0.149161284965
      0.496440671455
      0.500444380549
     -0.739173918557
     -0.783469564542
     -0.744426515601
     -0.776340011376
     -0.399676668352
     -0.429408640400
     -0.151190370660
     -0.119998446624
      0.031209683796
      0.071128168487
      0.151304349887
      0.190487135234
      0.238250113087
      0.113779920888
      0.053009049034
      0.041419334638
     -0.053320480480
     -0.024034103989
     -0.036427965359
     -0.079901911030
      0.145076319574
      0.109501980799
      0.489266965810
      0.496538041371
     -0.663389587896
     -0.739067624208
     -0.697351962377
     -0.746809537549
     -0.358510521593
     -0.405745175305
     -0.119927039463
     -0.067057792098
      0.071200127068
      0.162158750585
      0.194704278213
      0.382970492538
    -21.884343066203
     -0.416378309253
      0.179771053228
     -0.065546446211
     -0.363803571334
     -0.059831112985
     -0.084392439256
     -0.135035508048
      0.097257340733
      0.033418280642
      0.466933545266
      0.478082828946
     -0.572463322948
     -0.663041453161
     -0.639767923840
     -0.699163983579
     -0.299508519151
     -0.370318293060
     -0.066059929703
     -0.247065239738
      0.126693286516
      0.199447822834
     -0.638962240630
    -21.508170219955
********************
 -30799.569982642708
 -18047.239174004651
      0.571796612198
     -0.787717884856
     -0.348210641077
     -0.175366469732
     -0.203995410320
     -0.006780656717
     -0.038552449440
      0.352442364093
      0.387931728646
     -0.463334720992
     -0.573651825871
     -0.455434577429
     -0.661415209941
     -0.278401214089
     -0.321456911575
     -0.279336668702
     -1.810646286242
      0.194813115791
 -17958.637115220885
 -30658.103388224168
********************
********************
-779886.086139211548
 -30925.073177779261
    -75.211212222878
     -0.318650027417
     -0.403981302967
     -0.312291128595
     -0.185974325426
     -0.216076173715
     -0.032436596931
     -0.486139252159
     -0.368810915029
     -0.515867337729
     -0.366788060193
     -0.342460537470
      0.701245924916
    -94.460322246761
 -31138.325036362410
-777205.388810659526
********************
********************
********************
 -32378.897729000302
    -95.356960175652
     -0.293915647183
     -0.568051578341
     -0.452353976964
     -0.337701196366
     -0.369361983453
     -0.251770112111
     -0.409002079334
     -0.418367647853
     -0.431973176326
     -0.475990475650
     -0.444533104440
      0.902563307276
   -125.689413539761
 -32577.734178344352
********************
********************
VECTORS v float
    144.608561140937     22.807365213078     13.002299728001
    117.020866325561     36.524864044824      8.592962824272
    150.872341604391      2.673388765993     15.968902063500
    153.336380568437      3.910244692004     16.101129331407
    161.164474442506     -3.917853062839     16.267303227037
    163.486016052196      0.671168753444     16.043866939876
    162.289632176221      1.867552629424      1.605765326407
    163.973815556505     -4.899322079903      1.690357273411
    141.052570692282     18.021922784320    -21.434953877181
    148.703522410713     -2.178534792848    -26.287351345108
     82.198655024667     64.326330532908    -12.941278116668
     84.095370118676     60.522350965053    -17.069127591720
    149.084763560805     -4.467042477076    111.186240172240
    128.101918247178     37.615356265520     65.520948295009
    197.100291475630    -31.383014825393     39.807390207126
    185.405428997584     -0.505604830301     32.390258062698
    194.088117463032     -9.188293295749     -2.034721236594
    193.648701764109     -7.422766444735     -2.012650582088
    186.366798891711     -0.140863572299    -18.378570317664
    182.617507303276     -7.552137164442    -18.739421368658
    176.776265984258     -1.710892949631    -19.232544990024
    171.086289291071     -4.567050681033    -18.927198400652
    195.629429976101    -29.110191366063    -23.990995286935
    157.585985843113    -10.193754021723    -17.910517621688
    149.410592916524     14.367517407605     14.415901892498
    144.553232937620     17.896805175839     13.520595835119
    154.561293216673      7.888740859928     15.804416787079
    150.939636838160      8.536632891713     15.344370512372
    160.486208953933     -1.009937940490     15.913918819242
    161.196784680020     -0.558105070673     15.939415488105
    163.973972245145     -3.335292262395      1.674703480789
    164.204379274583     -3.942819626786      1.683091178704
    149.096620519177     11.164941159870    -24.031077957852
    149.049931766084     11.252296461615    -24.007722314325
     88.109577946746     72.192654377519    -11.525376306878
     83.787933245425     78.623165722324     -3.739786035562
    164.098467914572     -1.687368946823    120.044814178962
    154.799990381931     12.148553522918    103.293326454314
    204.010890380381    -37.062349783614     42.000862250408
    197.302730810196    -24.511329863306     38.645444948982
    194.591846626014    -21.800445314643     -2.166006712390
    194.086987307188    -20.469253938704     -2.147628115221
    182.603718226917     -8.985986402399    -18.879354387341
    178.455272469583    -11.623853251781    -18.730501078839
    171.089831674260     -4.258413446768    -18.894323411681
    163.803896609134     -2.955007436365    -17.968783226025
    157.735915508273      3.112976112082    -16.506026654436
    151.915323194825      7.342136527170    -15.433244924629
    149.815803515804     12.396928245458     14.669489720004
    149.392377127439     12.750816151171     14.586540971103
    155.671162999059      6.472031798939     16.076674588260
    154.551529575119      7.038063942837     15.895028051972
    161.201448169395      0.388144812163     15.846631053109
    160.499738063380      0.396874031320     15.776623972539
    164.204442889442     -3.307831093573      1.676735812834
    163.621243934820     -2.152005191159      1.659328541114
    149.083327891857     12.385909679361    -23.816037860702
    147.219082284514     15.214683367765    -22.998406308046
     83.793737361965     78.640033406897     -3.731770359712
     79.482677859489     84.153103850740      3.381833302754
    170.383065299365     -6.747283589136    128.259245285479
    164.809623594415      0.380139686958    119.062684793965
    207.329964428865    -42.140204577648     43.463827623629
    204.009718923793    -37.102119658611     42.007586084710
    193.781073431502    -26.873474991232     -2.208669906888
    194.591177550997    -28.478997973869     -2.232849847001
    178.448421516916    -12.336240637674    -18.800025277741
    175.613092877207    -12.300969369858    -18.517154789169
    163.831847505102     -0.519723047449    -17.709385538746
    161.738442577433      0.538602218105    -17.369788491274
    151.948966501356     10.328075925251    -15.118086311379
    151.217163910660     10.939694610756    -14.974645163005
    150.366633194425     12.177142703408     14.751723554735
    149.818783810794     12.661442723857     14.641571313157
    156.245991808105      6.234236190479     16.164237402671
    155.672713025210      6.607081122833     16.062289613545
    161.721610224493      0.558185301315     15.881137479339
    161.204579603039      0.713764059748     15.814852930250
    163.621288922800     -1.702945260013      1.654834070340
    163.607494891697     -1.679590281236      1.654462222545
    147.204606071301     14.723298538964    -23.081495709134
    145.942669100391     16.444149115326    -22.561806409203
     79.163016640547     83.223786363891      2.940370364848
     76.760521935305     86.089446998651      6.755047537535
    172.570554200531     -9.720585266574    131.996484526380
    170.294267548224     -7.005442826056    128.381877978390
    208.108729701841    -44.819896366176     44.066343784878
    207.284147062024    -43.695450006252     43.726806450622
    193.092509809251    -29.503812753649     -2.228106365188
    193.780693186549    -30.668991231971     -2.246657827806
    175.611183820338    -12.499481865761    -18.536528102037
    174.539141554154    -12.176894419537    -18.399106322806
    161.739409355515      0.622834863692    -17.360816334091
    160.805347161984      1.230323516251    -17.194709409541
    151.215813614181     10.819854879833    -14.987294288874
    150.381424621439     11.557455609973    -14.819454115878
    150.951544915748     12.722991613159     14.755952699799
    150.378578054441     13.237285643704     14.639827876028
    157.059354798413      6.556506213509     16.217132239113
    156.256063922292      7.111789531393     16.070763426216
    162.503076012970      0.864777440649     15.927931791642
    161.727411686298      1.161444392235     15.822263645141
    163.607591152682     -0.718735074150      1.644845382974
    164.211525323733     -1.692141611968      1.660633976601
    145.946462817181     16.572920894777    -22.540031524922
    146.121331480335     16.341990470184    -22.610746245003
     76.661573492285     85.801762423236      6.618396743453
     76.460041078534     86.037388528596      6.934911851582
    172.584144131363    -10.086714524234    132.271102122458
    172.484630313301     -9.970385017590    132.115148014781
    207.722893600653    -45.208655389655     44.066885972466
    208.083256902800    -45.684545607780     44.212550600555
    192.291389920563    -29.892678625376     -2.223979855914
    193.092341520458    -31.183633105494     -2.244919057377
    174.534821453158    -12.626113038194    -18.442947154360
    173.461123952599    -12.215457870190    -18.296678180250
    160.796382794300      0.449283288243    -17.277902975270
    159.527572769263      1.326359785273    -17.046654277728
    150.369336628801     10.484599608100    -14.932690615860
    149.186611997051     11.546213076599    -14.693166987040
    151.442053949012     14.818062312105     14.584665107800
    150.979755219609     15.226735262703     14.491688536709
    158.172155551183      8.034334931127     16.177821149137
    157.084435919166      8.741757566149     15.984367284304
    164.076963526689      1.749226773315     15.995858797155
    162.516098480845      2.218905770963     15.795778441286
    164.211747268154      0.523256983654      1.638460882545
    165.892205502113     -2.321964239511      1.683761249967
    146.153007992632     17.417233269734    -22.428931954451
    147.788958611941     15.186356045933    -23.102643186869
     76.582357393892     86.392973481948      7.103834813557
     78.153022213217     84.519506183672      4.609929131185
    171.050048984828     -8.377520587938    129.922321920511
    172.554711060270    -10.172281629030    132.311750187557
    206.222323779036    -43.839902015908     43.567008841692
    207.703705363041    -45.859997274151     44.177021071169
    190.663573319485    -28.819865230799     -2.196947554464
    192.291221313862    -31.575672262391     -2.240824308319
    173.456074449639    -12.740525398168    -18.347921058355
    171.132805310499    -12.041433663864    -18.050084493482
    159.507572673401     -0.416195731116    -17.232264859316
    156.202277327577      1.733479814904    -16.644497495447
    149.155447869378      8.780309273103    -14.985101528351
    145.464982996850     12.042687195870    -14.242882811846
    138.400431678845     30.862085895059     11.479760916893
    151.499474368481     19.914285709540     14.046770898318
    157.231943915518     14.181816162503     15.414100008858
    158.236882007473     13.673767608269     15.577129066174
    166.445688885359      5.464960730383     15.863123953872