# vtk DataFile Version 3.0
MachLine results file. Generated by MachLine, USU AeroLab (c) 2023.
ASCII
DATASET POLYDATA
POINTS                   7 float
  0.567036768980E+00  0.000000000000E+00  0.000000000000E+00
  0.283518384490E+00  0.000000000000E+00 -0.291561459230E-01
  0.283518384490E+00  0.176355406690E+01  0.000000000000E+00
  0.000000000000E+00  0.000000000000E+00  0.000000000000E+00
  0.283518384490E+00  0.000000000000E+00  0.291561459230E-01
  0.283518384490E+00 -0.176355406690E+01  0.000000000000E+00
  0.567036768980E+00  0.000000000000E+00  0.000000000000E+00
POLYGONS                   8                  32
3                   0                   1                   2
3                   1                   3                   2
3                   3                   4                   2
3                   4                   6                   2
3                   0                   5                   1
3                   1                   5                   3
3                   3                   5                   4
3                   4                   5                   6
CELL_DATA                   8
NORMALS normals float
  0.102283551729E+00  0.164436508585E-01 -0.994619365080E+00
 -0.102283551729E+00  0.164436508585E-01 -0.994619365080E+00
 -0.102283551729E+00  0.164436508585E-01  0.994619365080E+00
  0.102283551729E+00  0.164436508585E-01  0.994619365080E+00
  0.102283551729E+00 -0.164436508585E-01 -0.994619365080E+00
 -0.102283551729E+00 -0.164436508585E-01 -0.994619365080E+00
 -0.102283551729E+00 -0.164436508585E-01  0.994619365080E+00
  0.102283551729E+00 -0.164436508585E-01  0.994619365080E+00
SCALARS inclination float 1
LOOKUP_TABLE default
  0.100000000000E+01
  0.100000000000E+01
  0.100000000000E+01
  0.100000000000E+01
  0.100000000000E+01
  0.100000000000E+01
  0.100000000000E+01
  0.100000000000E+01
SCALARS distribution_order float 1
LOOKUP_TABLE default
  0.100000000000E+01
  0.100000000000E+01
  0.100000000000E+01
  0.100000000000E+01
  0.100000000000E+01
  0.100000000000E+01
  0.100000000000E+01
  0.100000000000E+01
SCALARS N_discontinuous_edges float 1
LOOKUP_TABLE default
  0.200000000000E+01
  0.200000000000E+01
  0.200000000000E+01
  0.200000000000E+01
  0.200000000000E+01
  0.200000000000E+01
  0.200000000000E+01
  0.200000000000E+01
VECTORS centroid float
  0.378024512653E+00  0.587851355633E+00 -0.971871530767E-02
  0.189012256327E+00  0.587851355633E+00 -0.971871530767E-02
  0.189012256327E+00  0.587851355633E+00  0.971871530767E-02
  0.378024512653E+00  0.587851355633E+00  0.971871530767E-02
  0.378024512653E+00 -0.587851355633E+00 -0.971871530767E-02
  0.189012256327E+00 -0.587851355633E+00 -0.971871530767E-02
  0.189012256327E+00 -0.587851355633E+00  0.971871530767E-02
  0.378024512653E+00 -0.587851355633E+00  0.971871530767E-02
SCALARS C_p_ise float 1
LOOKUP_TABLE default
 -0.918979981607E-01
  0.977481914237E-01
 -0.240420081381E+00
 -0.426423975978E-01
 -0.918979981607E-01
  0.977481914239E-01
 -0.240420081381E+00
 -0.426423975980E-01
SCALARS sigma float 1
LOOKUP_TABLE default
  0.000000000000E+00
  0.000000000000E+00
  0.000000000000E+00
  0.000000000000E+00
  0.000000000000E+00
  0.000000000000E+00
  0.000000000000E+00
  0.000000000000E+00
VECTORS v float
  0.104481882444E+01  0.114163252140E-01  0.107602643555E+00
  0.949453456606E+00  0.148640745659E-01 -0.100939747722E+00
  0.111501188305E+01 -0.117519835892E-01  0.114776834781E+00
  0.102077649203E+01 -0.153805709372E-01 -0.104703819192E+00
  0.104481882444E+01 -0.114163252099E-01  0.107602643555E+00
  0.949453456606E+00 -0.148640745618E-01 -0.100939747722E+00
  0.111501188305E+01  0.117519835934E-01  0.114776834781E+00
  0.102077649203E+01  0.153805709413E-01 -0.104703819192E+00
VECTORS v_inner float
 -0.333333333333E+00  0.000000000000E+00 -0.333333333333E-01
 -0.333333333333E+00  0.000000000000E+00 -0.333333333333E-01
 -0.333333333333E+00  0.000000000000E+00 -0.333333333333E-01
 -0.333333333333E+00  0.000000000000E+00 -0.333333333333E-01
 -0.333333333333E+00  0.000000000000E+00 -0.333333333333E-01
 -0.333333333333E+00  0.000000000000E+00 -0.333333333333E-01
 -0.333333333333E+00  0.000000000000E+00 -0.333333333333E-01
 -0.333333333333E+00  0.000000000000E+00 -0.333333333333E-01
VECTORS dC_f float
  0.236262583930E-02  0.379828366867E-03 -0.229744995406E-01
  0.251302974411E-02 -0.404008103068E-03  0.244370478563E-01
 -0.618101273069E-02  0.993692666876E-03  0.601050203462E-01
  0.109630277515E-02  0.176247497911E-03  0.106605993996E-01
  0.236262583930E-02 -0.379828366867E-03 -0.229744995405E-01
  0.251302974412E-02  0.404008103069E-03  0.244370478564E-01
 -0.618101273069E-02 -0.993692666876E-03  0.601050203462E-01
  0.109630277515E-02 -0.176247497912E-03  0.106605993997E-01
POINT_DATA                   7
SCALARS mu float 1
LOOKUP_TABLE default
  0.744934584944E+00
  0.352053480592E+00
  0.376175626559E+00
 -0.117965754661E-01
  0.401094920161E+00
  0.376175626552E+00
  0.785175214248E+00
SCALARS Phi_u float 1
LOOKUP_TABLE default
  0.559637736129E+00
  0.260275112561E+00
  0.283545697698E+00
 -0.118554116189E-01
  0.307617406294E+00
  0.283545697691E+00
  0.600079068072E+00
SCALARS convex float 1
LOOKUP_TABLE default
  0.100000000000E+01
  0.100000000000E+01
  0.100000000000E+01
  0.100000000000E+01
  0.100000000000E+01
  0.100000000000E+01
  0.100000000000E+01
VECTORS CFx_sensitivity_adjoint float
  0.235174751506E-02 -0.258937875534E-05  0.156052749925E+00
 -0.656259313320E-03 -0.172143683600E-04 -0.383326494967E+00
  0.911179495170E-02 -0.247793289513E-03 -0.236541047678E-02
 -0.135272505106E-03 -0.862359480619E-11  0.637732151779E+00
 -0.197838817251E-01  0.186070184557E-04 -0.405726952362E+00
  0.911182821223E-02  0.248953715170E-03 -0.236604299344E-02
  0.235174751506E-02 -0.258937875534E-05  0.156052749925E+00
VECTORS CFy_sensitivity_adjoint float
 -0.120093852550E-09  0.220923683269E-03  0.134255334691E-08
  0.171600173274E-14 -0.137626247537E-03  0.949157760246E-13
  0.127239938366E-03 -0.334114149736E-05 -0.409564494591E-01
 -0.817684133156E-14  0.880070445508E-04  0.614138963826E-13
  0.132774441595E-14 -0.164622368240E-03  0.946247181264E-13
 -0.127239817119E-03 -0.334097054587E-05  0.409564481164E-01
 -0.120093852550E-09  0.220923683269E-03  0.134255334691E-08
VECTORS CFz_sensitivity_adjoint float
 -0.441583511326E-01  0.638764661172E-03 -0.309065201695E+01
 -0.132163956037E+01  0.771593165359E-02  0.185637387551E+00
 -0.546748752482E-02  0.676549847624E-01  0.853912016390E-01
 -0.120357433650E+00  0.417080880984E-11  0.170415243069E+01
  0.149723558523E+01 -0.834465026479E-02  0.102981530646E+01
 -0.557638517804E-02 -0.676487519398E-01  0.856569985177E-01
 -0.441583511326E-01  0.638764661172E-03 -0.309065201695E+01
