# vtk DataFile Version 3.0
TriPan results file. Generated by TriPan, USU AeroLab (c) 2021.
ASCII
DATASET POLYDATA
POINTS                  20 float
  0.190000000000E+02  0.000000000000E+00  0.000000000000E+00
  0.998333605593E+02  0.000000000000E+00  0.593603094142E+01
  0.209237651825E+02  0.192375373840E+01  0.000000000000E+00
  0.998436793155E+02  0.192375373840E+01  0.579551621937E+01
  0.244703655243E+02  0.547033166885E+01  0.000000000000E+00
  0.998627026893E+02  0.547033166885E+01  0.553646715985E+01
  0.303820724487E+02  0.113820018768E+02  0.000000000000E+00
  0.998944121010E+02  0.113820018768E+02  0.510466713411E+01
  0.387563171387E+02  0.197561950684E+02  0.000000000000E+00
  0.999393301554E+02  0.197561950684E+02  0.449299962099E+01
  0.482439842224E+02  0.292438049316E+02  0.000000000000E+00
  0.999902204221E+02  0.292438049316E+02  0.380000605020E+01
  0.566182289124E+02  0.376179962158E+02  0.000000000000E+00
  0.100035138476E+03  0.376179962158E+02  0.318833853708E+01
  0.625299339294E+02  0.435296669006E+02  0.000000000000E+00
  0.100066847878E+03  0.435296669006E+02  0.275653865066E+01
  0.660765380859E+02  0.470762481689E+02  0.000000000000E+00
  0.100085871272E+03  0.470762481689E+02  0.249748931251E+01
  0.680002975464E+02  0.490000000000E+02  0.000000000000E+00
  0.100096189998E+03  0.490000000000E+02  0.235697500840E+01
POLYGONS                  18                  72
3                   0                   1                   3
3                   0                   3                   2
3                   2                   3                   5
3                   2                   5                   4
3                   4                   5                   7
3                   4                   7                   6
3                   6                   7                   9
3                   6                   9                   8
3                   8                   9                  11
3                   8                  11                  10
3                  10                  11                  13
3                  10                  13                  12
3                  12                  13                  15
3                  12                  15                  14
3                  14                  15                  17
3                  14                  17                  16
3                  16                  17                  19
3                  16                  19                  18
POINT_DATA                  20
SCALARS mu float 1
LOOKUP_TABLE default
 -0.253863753770E-03
 -0.253863753770E-03
 -0.551031799034E-04
 -0.551031799034E-04
 -0.787023511997E-04
 -0.787023511997E-04
 -0.104956507680E-03
 -0.104956507680E-03
 -0.121274291146E-03
 -0.121274291146E-03
 -0.112643874658E-03
 -0.112643874658E-03
 -0.802608372936E-04
 -0.802608372936E-04
 -0.212681780738E-04
 -0.212681780738E-04
  0.510660891123E-03
  0.510660891123E-03
  0.000000000000E+00
  0.000000000000E+00
