# vtk DataFile Version 3.0
TriPan results file. Generated by TriPan, USU AeroLab (c) 2021.
ASCII
DATASET POLYDATA
POINTS                 144 float
  0.000000000000E+00  0.000000000000E+00  0.000000000000E+00
  0.113538098335E+01  0.000000000000E+00 -0.658124566078E+00
  0.113538098335E+01  0.000000000000E+00  0.658124566078E+00
  0.192375373840E+01  0.192375373840E+01  0.000000000000E+00
  0.305913543701E+01  0.192375373840E+01 -0.658124983311E+00
  0.305913543701E+01  0.192375373840E+01  0.658124983311E+00
  0.423028087616E+01  0.000000000000E+00 -0.108747220039E+01
  0.423028087616E+01  0.000000000000E+00  0.108747220039E+01
  0.547033166885E+01  0.547033166885E+01  0.000000000000E+00
  0.615403699875E+01  0.192375373840E+01 -0.108747279644E+01
  0.615403699875E+01  0.192375373840E+01  0.108747279644E+01
  0.660571479797E+01  0.547033166885E+01 -0.658125698566E+00
  0.660571479797E+01  0.547033166885E+01  0.658125698566E+00
  0.939508819580E+01  0.000000000000E+00 -0.980745851994E+00
  0.939508819580E+01  0.000000000000E+00  0.980745851994E+00
  0.970061969757E+01  0.547033166885E+01 -0.108747410774E+01
  0.970061969757E+01  0.547033166885E+01  0.108747410774E+01
  0.113188476562E+02  0.192375373840E+01 -0.980746448040E+00
  0.113188476562E+02  0.192375373840E+01  0.980746448040E+00
  0.113820018768E+02  0.113820018768E+02  0.000000000000E+00
  0.125173873901E+02  0.113820018768E+02 -0.658127009869E+00
  0.125173873901E+02  0.113820018768E+02  0.658127009869E+00
  0.145402030945E+02  0.000000000000E+00 -0.479613035917E+00
  0.145402030945E+02  0.000000000000E+00  0.479613035917E+00
  0.148654365540E+02  0.547033166885E+01 -0.980747580528E+00
  0.148654365540E+02  0.547033166885E+01  0.980747580528E+00
  0.156122989655E+02  0.113820018768E+02 -0.108747613430E+01
  0.156122989655E+02  0.113820018768E+02  0.108747613430E+01
  0.164639663696E+02  0.192375373840E+01 -0.479613333941E+00
  0.164639663696E+02  0.192375373840E+01  0.479613333941E+00
  0.176505107880E+02  0.000000000000E+00 -0.144198849797E+00
  0.176505107880E+02  0.000000000000E+00  0.144198849797E+00
  0.190000000000E+02  0.000000000000E+00  0.000000000000E+00
  0.195742740631E+02  0.192375373840E+01 -0.144198939204E+00
  0.195742740631E+02  0.192375373840E+01  0.144198939204E+00
  0.197561950684E+02  0.197561950684E+02  0.000000000000E+00
  0.200105609894E+02  0.547033166885E+01 -0.479613870382E+00
  0.200105609894E+02  0.547033166885E+01  0.479613870382E+00
  0.207771244049E+02  0.113820018768E+02 -0.980749428272E+00
  0.207771244049E+02  0.113820018768E+02  0.980749428272E+00
  0.208915824890E+02  0.197561950684E+02 -0.658128738403E+00
  0.208915824890E+02  0.197561950684E+02  0.658128738403E+00
  0.209237651825E+02  0.192375373840E+01  0.000000000000E+00
  0.231208724976E+02  0.547033166885E+01 -0.144199103117E+00
  0.231208724976E+02  0.547033166885E+01  0.144199103117E+00
  0.239865016937E+02  0.197561950684E+02 -0.108747911453E+01
  0.239865016937E+02  0.197561950684E+02  0.108747911453E+01
  0.244703655243E+02  0.547033166885E+01  0.000000000000E+00
  0.259222583771E+02  0.113820018768E+02 -0.479614794254E+00
  0.259222583771E+02  0.113820018768E+02  0.479614794254E+00
  0.290325775146E+02  0.113820018768E+02 -0.144199386239E+00
  0.290325775146E+02  0.113820018768E+02  0.144199386239E+00
  0.291513423920E+02  0.197561950684E+02 -0.980752110481E+00
  0.291513423920E+02  0.197561950684E+02  0.980752110481E+00
  0.292438049316E+02  0.292438049316E+02  0.000000000000E+00
  0.303791980743E+02  0.292438049316E+02 -0.658130764961E+00
  0.303791980743E+02  0.292438049316E+02  0.658130764961E+00
  0.303820724487E+02  0.113820018768E+02  0.000000000000E+00
  0.334741249084E+02  0.292438049316E+02 -0.108748245239E+01
  0.334741249084E+02  0.292438049316E+02  0.108748245239E+01
  0.342964897156E+02  0.197561950684E+02 -0.479616105556E+00
  0.342964897156E+02  0.197561950684E+02  0.479616105556E+00
  0.374068183899E+02  0.197561950684E+02 -0.144199773669E+00
  0.374068183899E+02  0.197561950684E+02  0.144199773669E+00
  0.376179962158E+02  0.376179962158E+02  0.000000000000E+00
  0.386389808655E+02  0.292438049316E+02 -0.980755090714E+00
  0.386389808655E+02  0.292438049316E+02  0.980755090714E+00
  0.387533912659E+02  0.376179962158E+02 -0.658132553101E+00
  0.387533912659E+02  0.376179962158E+02  0.658132553101E+00
  0.387563171387E+02  0.197561950684E+02  0.000000000000E+00
  0.418483314514E+02  0.376179962158E+02 -0.108748543262E+01
  0.418483314514E+02  0.376179962158E+02  0.108748543262E+01
  0.435296669006E+02  0.435296669006E+02  0.000000000000E+00
  0.437841453552E+02  0.292438049316E+02 -0.479617565870E+00
  0.437841453552E+02  0.292438049316E+02  0.479617565870E+00
  0.446650657654E+02  0.435296669006E+02 -0.658133804798E+00
  0.446650657654E+02  0.435296669006E+02  0.658133804798E+00
  0.468944816589E+02  0.292438049316E+02 -0.144200220704E+00
  0.468944816589E+02  0.292438049316E+02  0.144200220704E+00
  0.470131988525E+02  0.376179962158E+02 -0.980757772923E+00
  0.470131988525E+02  0.376179962158E+02  0.980757772923E+00
  0.470762481689E+02  0.470762481689E+02  0.000000000000E+00
  0.477600097656E+02  0.435296669006E+02 -0.108748745918E+01
  0.477600097656E+02  0.435296669006E+02  0.108748745918E+01
  0.482116432190E+02  0.470762481689E+02 -0.658134579659E+00
  0.482116432190E+02  0.470762481689E+02  0.658134579659E+00
  0.482439842224E+02  0.292438049316E+02  0.000000000000E+00
  0.490000000000E+02  0.490000000000E+02  0.000000000000E+00
  0.501353988647E+02  0.490000000000E+02 -0.658134996891E+00
  0.501353988647E+02  0.490000000000E+02  0.658134996891E+00
  0.506007728577E+02  0.494653701782E+02 -0.465371757746E+00
  0.506007728577E+02  0.494653701782E+02  0.465371757746E+00
  0.507935333252E+02  0.496581344604E+02 -0.771266485397E-15
  0.513065910339E+02  0.470762481689E+02 -0.108748877048E+01
  0.513065910339E+02  0.470762481689E+02  0.108748877048E+01
  0.521583786011E+02  0.376179962158E+02 -0.479618877172E+00
  0.521583786011E+02  0.376179962158E+02  0.479618877172E+00
  0.529248886108E+02  0.435296669006E+02 -0.980759620667E+00
  0.529248886108E+02  0.435296669006E+02  0.980759620667E+00
  0.532303466797E+02  0.490000000000E+02 -0.108748936653E+01
  0.532303466797E+02  0.490000000000E+02  0.108748936653E+01
  0.539993209839E+02  0.497689704895E+02 -0.768971264362E+00
  0.539993209839E+02  0.497689704895E+02  0.768971264362E+00
  0.543178405762E+02  0.500874900818E+02 -0.157378642191E-15
  0.552687225342E+02  0.376179962158E+02 -0.144200608134E+00
  0.552687225342E+02  0.376179962158E+02  0.144200608134E+00
  0.564714775085E+02  0.470762481689E+02 -0.980760753155E+00
  0.564714775085E+02  0.470762481689E+02  0.980760753155E+00
  0.566182289124E+02  0.376179962158E+02  0.000000000000E+00
  0.580700759888E+02  0.435296669006E+02 -0.479619771242E+00
  0.580700759888E+02  0.435296669006E+02  0.479619771242E+00
  0.583952369690E+02  0.490000000000E+02 -0.980761349201E+00
  0.583952369690E+02  0.490000000000E+02  0.980761349201E+00
  0.590887413025E+02  0.496935043335E+02 -0.693503141403E+00
  0.590887413025E+02  0.496935043335E+02  0.693503141403E+00
  0.593759994507E+02  0.499807624817E+02  0.000000000000E+00
  0.611804275513E+02  0.435296669006E+02 -0.144200876355E+00
  0.611804275513E+02  0.435296669006E+02  0.144200876355E+00
  0.616166725159E+02  0.470762481689E+02 -0.479620337486E+00
  0.616166725159E+02  0.470762481689E+02  0.479620337486E+00
  0.625299339294E+02  0.435296669006E+02  0.000000000000E+00
  0.635404319763E+02  0.490000000000E+02 -0.479620635509E+00
  0.635404319763E+02  0.490000000000E+02  0.479620635509E+00
  0.638795776367E+02  0.493391418457E+02 -0.339143037796E+00
  0.638795776367E+02  0.493391418457E+02  0.339143037796E+00
  0.640200576782E+02  0.494796218872E+02  0.296956834055E-15
  0.647270278931E+02  0.470762481689E+02 -0.144201040268E+00
  0.647270278931E+02  0.470762481689E+02  0.144201040268E+00
  0.660765380859E+02  0.470762481689E+02  0.000000000000E+00
  0.666507873535E+02  0.490000000000E+02 -0.144201144576E+00
  0.666507873535E+02  0.490000000000E+02  0.144201144576E+00
  0.667527542114E+02  0.491019668579E+02 -0.101965606213E+00
  0.667527542114E+02  0.491019668579E+02  0.101965606213E+00
  0.667949905396E+02  0.491441993713E+02 -0.260488604752E-16
  0.680002975464E+02  0.490000000000E+02  0.000000000000E+00
  0.190000000000E+02  0.000000000000E+00  0.000000000000E+00
  0.209237651825E+02  0.192375373840E+01  0.000000000000E+00
  0.244703655243E+02  0.547033166885E+01  0.000000000000E+00
  0.303820724487E+02  0.113820018768E+02  0.000000000000E+00
  0.387563171387E+02  0.197561950684E+02  0.000000000000E+00
  0.482439842224E+02  0.292438049316E+02  0.000000000000E+00
  0.566182289124E+02  0.376179962158E+02  0.000000000000E+00
  0.625299339294E+02  0.435296669006E+02  0.000000000000E+00
  0.660765380859E+02  0.470762481689E+02  0.000000000000E+00
POLYGONS                 256                1024
3                 135                  33                 136
3                  32                  30                  33
3                  30                  28                  33
3                  30                  22                  28
3                  22                  17                  28
3                  22                  13                  17
3                  13                   6                  17
3                  17                   6                   9
3                   6                   1                   9
3                   9                   1                   4
3                   1                   0                   4
3                   4                   0                   3
3                   0                   5                   3
3                   0                   2                   5
3                   2                  10                   5
3                   2                   7                  10
[...]
CELL_DATA                 256
SCALARS sigma float 1
LOOKUP_TABLE default
  0.000000000000E+00
  0.000000000000E+00
  0.000000000000E+00
  0.000000000000E+00
  0.000000000000E+00
  0.000000000000E+00
  0.000000000000E+00
  0.000000000000E+00
  0.000000000000E+00
  0.000000000000E+00
  0.000000000000E+00
  0.000000000000E+00
  0.000000000000E+00
  0.000000000000E+00
  0.000000000000E+00
  0.000000000000E+00
  0.000000000000E+00
  0.000000000000E+00
  0.000000000000E+00
  0.000000000000E+00
  0.000000000000E+00
  0.000000000000E+00
  0.000000000000E+00
  0.000000000000E+00
  0.000000000000E+00
  0.000000000000E+00
  0.000000000000E+00
  0.000000000000E+00
  0.000000000000E+00
  0.000000000000E+00
  0.000000000000E+00
  0.000000000000E+00
  0.000000000000E+00
  0.000000000000E+00
  0.000000000000E+00
  0.000000000000E+00
  0.000000000000E+00
  0.000000000000E+00
  0.000000000000E+00
  0.000000000000E+00
  0.000000000000E+00
  0.000000000000E+00
  0.000000000000E+00
  0.000000000000E+00
  0.000000000000E+00
  0.000000000000E+00
  0.000000000000E+00
  0.000000000000E+00
  0.000000000000E+00
  0.000000000000E+00
  0.000000000000E+00
  0.000000000000E+00
  0.000000000000E+00
  0.000000000000E+00
  0.000000000000E+00
  0.000000000000E+00
  0.000000000000E+00
  0.000000000000E+00
  0.000000000000E+00
  0.000000000000E+00
  0.000000000000E+00
  0.000000000000E+00
  0.000000000000E+00
  0.000000000000E+00
  0.000000000000E+00
  0.000000000000E+00
  0.000000000000E+00
  0.000000000000E+00
  0.000000000000E+00
  0.000000000000E+00
  0.000000000000E+00
  0.000000000000E+00
  0.000000000000E+00
  0.000000000000E+00
  0.000000000000E+00
  0.000000000000E+00
  0.000000000000E+00
  0.000000000000E+00
  0.000000000000E+00
  0.000000000000E+00
  0.000000000000E+00
  0.000000000000E+00
  0.000000000000E+00
  0.000000000000E+00
  0.000000000000E+00
  0.000000000000E+00
  0.000000000000E+00
  0.000000000000E+00
  0.000000000000E+00
  0.000000000000E+00
  0.000000000000E+00
  0.000000000000E+00
  0.000000000000E+00
  0.000000000000E+00
  0.000000000000E+00
  0.000000000000E+00
  0.000000000000E+00
  0.000000000000E+00
  0.000000000000E+00
  0.000000000000E+00
  0.000000000000E+00
  0.000000000000E+00
  0.000000000000E+00
  0.000000000000E+00
  0.000000000000E+00
  0.000000000000E+00
  0.000000000000E+00
  0.000000000000E+00
  0.000000000000E+00
  0.000000000000E+00
  0.000000000000E+00
  0.000000000000E+00
  0.000000000000E+00
  0.000000000000E+00
  0.000000000000E+00
  0.000000000000E+00
  0.000000000000E+00
  0.000000000000E+00
  0.000000000000E+00
  0.000000000000E+00
  0.000000000000E+00
  0.000000000000E+00
  0.000000000000E+00
  0.000000000000E+00
  0.000000000000E+00
  0.000000000000E+00
  0.000000000000E+00
  0.000000000000E+00
  0.000000000000E+00
  0.000000000000E+00
  0.000000000000E+00
  0.000000000000E+00
  0.000000000000E+00
  0.000000000000E+00
  0.000000000000E+00
  0.000000000000E+00
  0.000000000000E+00
  0.000000000000E+00
  0.000000000000E+00
  0.000000000000E+00
  0.000000000000E+00
  0.000000000000E+00
  0.000000000000E+00
  0.000000000000E+00
  0.000000000000E+00
  0.000000000000E+00
  0.000000000000E+00
  0.000000000000E+00
  0.000000000000E+00
  0.000000000000E+00
  0.000000000000E+00
  0.000000000000E+00
  0.000000000000E+00
  0.000000000000E+00
  0.000000000000E+00
  0.000000000000E+00
  0.000000000000E+00
  0.000000000000E+00
  0.000000000000E+00
  0.000000000000E+00
  0.000000000000E+00
  0.000000000000E+00
  0.000000000000E+00
  0.000000000000E+00
  0.000000000000E+00
  0.000000000000E+00
  0.000000000000E+00
  0.000000000000E+00
  0.000000000000E+00
  0.000000000000E+00
  0.000000000000E+00
  0.000000000000E+00
  0.000000000000E+00
  0.000000000000E+00
  0.000000000000E+00
  0.000000000000E+00
  0.000000000000E+00
  0.000000000000E+00
  0.000000000000E+00
  0.000000000000E+00
  0.000000000000E+00
  0.000000000000E+00
  0.000000000000E+00
  0.000000000000E+00
  0.000000000000E+00
  0.000000000000E+00
  0.000000000000E+00
  0.000000000000E+00
  0.000000000000E+00
  0.000000000000E+00
  0.000000000000E+00
  0.000000000000E+00
  0.000000000000E+00
  0.000000000000E+00
  0.000000000000E+00
  0.000000000000E+00
  0.000000000000E+00
  0.000000000000E+00
  0.000000000000E+00
  0.000000000000E+00
  0.000000000000E+00
  0.000000000000E+00
  0.000000000000E+00
  0.000000000000E+00
  0.000000000000E+00
  0.000000000000E+00
  0.000000000000E+00
  0.000000000000E+00
  0.000000000000E+00
  0.000000000000E+00
  0.000000000000E+00
  0.000000000000E+00
  0.000000000000E+00
  0.000000000000E+00
  0.000000000000E+00
  0.000000000000E+00
  0.000000000000E+00
  0.000000000000E+00
  0.000000000000E+00
  0.000000000000E+00
  0.000000000000E+00
  0.000000000000E+00
  0.000000000000E+00
  0.000000000000E+00
  0.000000000000E+00
  0.000000000000E+00
  0.000000000000E+00
  0.000000000000E+00
  0.000000000000E+00
  0.000000000000E+00
  0.000000000000E+00
  0.000000000000E+00
  0.000000000000E+00
  0.000000000000E+00
  0.000000000000E+00
  0.000000000000E+00
  0.000000000000E+00
  0.000000000000E+00
  0.000000000000E+00
  0.000000000000E+00
  0.000000000000E+00
  0.000000000000E+00
  0.000000000000E+00
  0.000000000000E+00
  0.000000000000E+00
  0.000000000000E+00
  0.000000000000E+00
  0.000000000000E+00
  0.000000000000E+00
  0.000000000000E+00
  0.000000000000E+00
  0.000000000000E+00
  0.000000000000E+00
  0.000000000000E+00
  0.000000000000E+00
  0.000000000000E+00
SCALARS C_p_inc float 1
LOOKUP_TABLE default
 -0.247632217025E+00
 -0.540672558519E+00
 -0.170617999244E+00
 -0.168581986549E+00
 -0.165860400802E+00
 -0.175158207117E+00
 -0.143959328417E+00
 -0.170270082791E+00
  0.388813620622E-01
 -0.705105770866E-01
  0.475775640422E+00
  0.433425056914E+00
 -0.165150553666E-01
  0.240701499001E+00
 -0.367072988711E+00
 -0.226797138279E+00
 -0.281237010805E+00
 -0.291403982844E+00
 -0.174274884946E+00
 -0.111116597707E+00
  0.411673273490E-01
  0.134459374934E+00
  0.437974659972E+00
  0.351016298320E+00
 -0.180378718910E+00
 -0.239785795008E+00
 -0.125090827494E+00
 -0.172900112606E+00
 -0.157431467794E+00
 -0.167372834572E+00
 -0.170759138333E+00
 -0.190681809741E+00
 -0.651030777503E-01
 -0.105685709601E+00
  0.374253884269E+00
  0.368848845636E+00
 -0.128356673005E+00
 -0.332924862361E-01
 -0.421984991941E+00
 -0.360340576557E+00
 -0.270718927124E+00
 -0.291014144593E+00
 -0.109691041622E+00
 -0.586792797122E-01
  0.130239886354E+00
  0.135517598929E+00
  0.343982005051E+00
  0.322393523009E+00
 -0.160071864526E+00
 -0.179346325347E+00
 -0.107592018370E+00
 -0.125085247145E+00
 -0.144212300101E+00
 -0.158862467778E+00
 -0.191974772144E+00
 -0.190818979538E+00
 -0.105122297405E+00
 -0.116352687696E+00
  0.363658517742E+00
  0.362497205693E+00
 -0.154066519558E+00
 -0.129885475894E+00
 -0.428993038411E+00
 -0.424235632703E+00
 -0.252956781419E+00
 -0.277909220168E+00
 -0.580179987605E-01
 -0.436964515090E-01
  0.134304135635E+00
  0.133608160337E+00
  0.321289884965E+00
  0.316137983082E+00
 -0.151792205812E+00
 -0.159730805220E+00
 -0.101439851095E+00
 -0.107566853910E+00
 -0.138915341775E+00
 -0.144503207454E+00
 -0.192264558441E+00
 -0.188392711137E+00
 -0.116763292552E+00
 -0.116088407097E+00
  0.365343233773E+00
  0.364685172727E+00
 -0.148195229312E+00
 -0.153423566581E+00
 -0.423126274337E+00
 -0.431985268069E+00
 -0.247552897531E+00
 -0.255554055499E+00
 -0.436060442163E-01
 -0.406746035963E-01
  0.133410534346E+00
  0.133580361878E+00
  0.315985233732E+00
  0.314327940619E+00
 -0.142121906125E+00
 -0.151436987904E+00
 -0.966389029953E-01
 -0.101329254925E+00
 -0.136706738542E+00
 -0.138824068935E+00
 -0.188697441105E+00
 -0.188167102767E+00
 -0.116242304029E+00
 -0.116832742966E+00
  0.365738527030E+00
  0.364630662915E+00
 -0.142931147094E+00
 -0.147918463194E+00
 -0.419634504972E+00
 -0.423913466321E+00
 -0.245343857611E+00
 -0.247942001000E+00
 -0.406405696202E-01
 -0.391836027898E-01
  0.133477364591E+00
  0.134047006280E+00
  0.314182976065E+00
  0.312513171403E+00
 -0.107689133159E+00
 -0.141514050314E+00
 -0.813978008196E-01
 -0.962213357738E-01
 -0.134987351882E+00
 -0.136128794502E+00
 -0.187418752194E+00
 -0.192791651334E+00
 -0.116557671126E+00
 -0.122591369189E+00
  0.363193178803E+00
  0.360133853898E+00
 -0.138897756020E+00
 -0.143117498368E+00
 -0.417332839837E+00
 -0.419109620417E+00
 -0.244092716337E+00
 -0.244927876214E+00
 -0.391031145856E-01
 -0.367470949876E-01
  0.133704141588E+00
  0.138544023034E+00
  0.312114704367E+00
  0.311982547354E+00
  0.101077199187E+00
 -0.106045995535E+00
 -0.525357728433E-01
 -0.804600938247E-01
 -0.141581585475E+00
 -0.133191218901E+00
 -0.189574972601E+00
 -0.214024033437E+00
 -0.121523184007E+00
 -0.144232794257E+00
  0.354488088391E+00
  0.346317763154E+00
 -0.135804552791E+00
 -0.139796099098E+00
 -0.420041062022E+00
 -0.414803205677E+00
 -0.249128977960E+00
 -0.241909379345E+00
 -0.365939703643E-01
 -0.417015995170E-01
  0.135980881530E+00
  0.139896125456E+00
  0.306467564683E+00
  0.386476852025E+00
 -0.235724242166E+02
 -0.499121221081E+00
  0.785546085574E+00
 -0.117536968552E+00
 -0.450309332946E+00
 -0.140799457553E+00
 -0.207668568227E+00
 -0.248120577290E+00
 -0.142080625203E+00
 -0.195653636869E+00
  0.329971299273E+00
  0.312697616221E+00
 -0.137564039997E+00
 -0.138605224209E+00
 -0.428942511901E+00
 -0.413321770307E+00
 -0.257417069877E+00
 -0.243951749728E+00
 -0.422507884016E-01
 -0.341847719267E+00
  0.488049153022E-01
  0.687704403704E+00
  0.102669938997E+00
 -0.216031009145E+02
 -0.410405591368E+08
 -0.213585930544E+05
 -0.120207760067E+05
  0.937030725427E+00
 -0.194982424336E+00
 -0.444072661599E+00
 -0.253538924320E+00
 -0.309221419304E+00
 -0.196093979599E+00
 -0.194036188062E+00
  0.240155891843E+00
  0.203249245509E+00
 -0.163705870474E+00
 -0.152275811644E+00
 -0.338547429476E+00
 -0.424594914892E+00
 -0.305309865925E+00
 -0.250437735381E+00
 -0.337216535813E+00
 -0.243205370898E+00
  0.892557551874E+00
 -0.120091499995E+05
 -0.213812633011E+05
 -0.410414490391E+08
 -0.854743072584E+08
 -0.484298454723E+06
 -0.182143354074E+05
 -0.301431552951E+02
  0.553521395925E-01
 -0.376250327970E+00
 -0.372199991955E+00
 -0.228371960492E+00
 -0.226171877568E+00
 -0.269117290413E-01
 -0.219187973937E+00
 -0.282261136614E+00
 -0.344552744357E+00
 -0.382896364309E+00
 -0.296252210678E+00
  0.377862600557E+00
 -0.330982328569E+02
 -0.182517217764E+05
 -0.483969947613E+06
 -0.854717935907E+08
 -0.584173821212E+08
 -0.579200439553E+06
 -0.217650783811E+05
 -0.460814384895E+02
  0.493362926720E+00
 -0.445210425668E+00
 -0.431945522222E+00
 -0.258746082102E+00
 -0.259662397552E+00
 -0.140326409962E+00
 -0.205135609810E+00
 -0.280754832283E+00
 -0.289395195421E+00
 -0.446431162696E+00
 -0.365621354440E+00
  0.886829781027E+00
 -0.518155699007E+02
 -0.218077023295E+05
 -0.578605516105E+06
 -0.584148979831E+08
SCALARS inclination float 1
LOOKUP_TABLE default
  0.100000000000E+01
  0.100000000000E+01
  0.100000000000E+01
  0.100000000000E+01
  0.100000000000E+01
  0.100000000000E+01
  0.100000000000E+01
  0.100000000000E+01
  0.100000000000E+01
  0.100000000000E+01
  0.100000000000E+01
  0.100000000000E+01
  0.100000000000E+01
  0.100000000000E+01
  0.100000000000E+01
  0.100000000000E+01
  0.100000000000E+01
  0.100000000000E+01
  0.100000000000E+01
  0.100000000000E+01
  0.100000000000E+01
  0.100000000000E+01
  0.100000000000E+01
  0.100000000000E+01
  0.100000000000E+01
  0.100000000000E+01
  0.100000000000E+01
  0.100000000000E+01
  0.100000000000E+01
  0.100000000000E+01
  0.100000000000E+01
  0.100000000000E+01
  0.100000000000E+01
  0.100000000000E+01
  0.100000000000E+01
  0.100000000000E+01
  0.100000000000E+01
  0.100000000000E+01
  0.100000000000E+01
  0.100000000000E+01
  0.100000000000E+01
  0.100000000000E+01
  0.100000000000E+01
  0.100000000000E+01
  0.100000000000E+01
  0.100000000000E+01
  0.100000000000E+01
  0.100000000000E+01
  0.100000000000E+01
  0.100000000000E+01
  0.100000000000E+01
  0.100000000000E+01
  0.100000000000E+01
  0.100000000000E+01
  0.100000000000E+01
  0.100000000000E+01
  0.100000000000E+01
  0.100000000000E+01
  0.100000000000E+01
  0.100000000000E+01
  0.100000000000E+01
  0.100000000000E+01
  0.100000000000E+01
  0.100000000000E+01
  0.100000000000E+01
  0.100000000000E+01
  0.100000000000E+01
  0.100000000000E+01
  0.100000000000E+01
  0.100000000000E+01
  0.100000000000E+01
  0.100000000000E+01
  0.100000000000E+01
  0.100000000000E+01
  0.100000000000E+01
  0.100000000000E+01
  0.100000000000E+01
  0.100000000000E+01
  0.100000000000E+01
  0.100000000000E+01
  0.100000000000E+01
  0.100000000000E+01
  0.100000000000E+01
  0.100000000000E+01
  0.100000000000E+01
  0.100000000000E+01
  0.100000000000E+01
  0.100000000000E+01
  0.100000000000E+01
  0.100000000000E+01
  0.100000000000E+01
  0.100000000000E+01
  0.100000000000E+01
  0.100000000000E+01
  0.100000000000E+01
  0.100000000000E+01
  0.100000000000E+01
  0.100000000000E+01
  0.100000000000E+01
  0.100000000000E+01
  0.100000000000E+01
  0.100000000000E+01
  0.100000000000E+01
  0.100000000000E+01
  0.100000000000E+01
  0.100000000000E+01
  0.100000000000E+01
  0.100000000000E+01
  0.100000000000E+01
  0.100000000000E+01
  0.100000000000E+01
  0.100000000000E+01
  0.100000000000E+01
  0.100000000000E+01
  0.100000000000E+01
  0.100000000000E+01
  0.100000000000E+01
  0.100000000000E+01
  0.100000000000E+01
  0.100000000000E+01
  0.100000000000E+01
  0.100000000000E+01
  0.100000000000E+01
  0.100000000000E+01
  0.100000000000E+01
  0.100000000000E+01
  0.100000000000E+01
  0.100000000000E+01
  0.100000000000E+01
  0.100000000000E+01
  0.100000000000E+01
  0.100000000000E+01
  0.100000000000E+01
  0.100000000000E+01
  0.100000000000E+01
  0.100000000000E+01
  0.100000000000E+01
  0.100000000000E+01
  0.100000000000E+01
  0.100000000000E+01
  0.100000000000E+01
  0.100000000000E+01
  0.100000000000E+01
  0.100000000000E+01
  0.100000000000E+01
  0.100000000000E+01
  0.100000000000E+01
  0.100000000000E+01
  0.100000000000E+01
  0.100000000000E+01
  0.100000000000E+01
  0.100000000000E+01
  0.100000000000E+01
  0.100000000000E+01
  0.100000000000E+01
  0.100000000000E+01
  0.100000000000E+01
  0.100000000000E+01
  0.100000000000E+01
  0.100000000000E+01
  0.100000000000E+01
  0.100000000000E+01
  0.100000000000E+01
  0.100000000000E+01
  0.100000000000E+01
  0.100000000000E+01
  0.100000000000E+01
  0.100000000000E+01
  0.100000000000E+01
  0.100000000000E+01
  0.100000000000E+01
  0.100000000000E+01
  0.100000000000E+01
  0.100000000000E+01
  0.100000000000E+01
  0.100000000000E+01
  0.100000000000E+01
  0.100000000000E+01
  0.100000000000E+01
  0.100000000000E+01
  0.100000000000E+01
  0.100000000000E+01
  0.100000000000E+01
  0.100000000000E+01
  0.100000000000E+01
  0.100000000000E+01
  0.100000000000E+01
  0.100000000000E+01
  0.100000000000E+01
  0.100000000000E+01
  0.100000000000E+01
  0.100000000000E+01
  0.100000000000E+01
  0.100000000000E+01
  0.100000000000E+01
  0.100000000000E+01
  0.100000000000E+01
  0.100000000000E+01
  0.100000000000E+01
  0.100000000000E+01
  0.100000000000E+01
  0.100000000000E+01
  0.100000000000E+01
  0.100000000000E+01
  0.100000000000E+01
  0.100000000000E+01
  0.100000000000E+01
  0.100000000000E+01
  0.100000000000E+01
  0.100000000000E+01
  0.100000000000E+01
  0.100000000000E+01
  0.100000000000E+01
  0.100000000000E+01
  0.100000000000E+01
  0.100000000000E+01
  0.100000000000E+01
  0.100000000000E+01
  0.100000000000E+01
  0.100000000000E+01
  0.100000000000E+01
  0.100000000000E+01
  0.100000000000E+01
  0.100000000000E+01
  0.100000000000E+01
  0.100000000000E+01
  0.100000000000E+01
  0.100000000000E+01
  0.100000000000E+01
  0.100000000000E+01
  0.100000000000E+01
  0.100000000000E+01
  0.100000000000E+01
  0.100000000000E+01
  0.100000000000E+01
  0.100000000000E+01
  0.100000000000E+01
  0.100000000000E+01
  0.100000000000E+01
  0.100000000000E+01
  0.100000000000E+01
  0.100000000000E+01
  0.100000000000E+01
  0.100000000000E+01
  0.100000000000E+01
  0.100000000000E+01
  0.100000000000E+01
  0.100000000000E+01
  0.100000000000E+01
  0.100000000000E+01
  0.100000000000E+01
  0.100000000000E+01
  0.100000000000E+01
  0.100000000000E+01
  0.100000000000E+01
  0.100000000000E+01
VECTORS v float
  0.179525000820E+03 -0.214043418744E+02  0.214701794002E+02
  0.199050455914E+03 -0.270102303281E+02  0.241555928367E+02
  0.175274404660E+03 -0.323406143593E+01  0.192502867421E+02
  0.175118897993E+03 -0.333107754484E+01  0.192439675911E+02
  0.175107683947E+03 -0.331986373169E+01  0.173787950256E+02
  0.175834873660E+03 -0.211431009154E+01  0.173322042073E+02
  0.174299915929E+03 -0.579352044966E+00  0.361373147862E+01
  0.176137340891E+03 -0.735969761368E+01  0.379181017690E+01
  0.158126363016E+03  0.106512950699E+02 -0.204588446417E+02
  0.166400956194E+03 -0.118894107206E+02 -0.247337666569E+02
  0.101657820866E+03  0.528537479082E+02 -0.282893230477E+02
  0.109345508757E+03  0.357034558097E+02 -0.426866796655E+02
  0.142743474137E+03  0.230549042912E+01  0.814049986866E+02
  0.126814892553E+03  0.378402091888E+02  0.515742519899E+02
  0.187023079008E+03 -0.223679947657E+02  0.290482867956E+02
  0.178826855260E+03 -0.407742624502E-01  0.248138538347E+02
  0.184376053050E+03 -0.558997002510E+01 -0.392548555839E+01
  0.185018947839E+03 -0.796233858218E+01 -0.398779702766E+01
  0.175808641708E+03  0.124799897608E+01 -0.170021592017E+02
  0.170796039368E+03 -0.706201726854E+01 -0.173233291451E+02
  0.158666879893E+03  0.506720221739E+01 -0.165641168288E+02
  0.150773546867E+03  0.142882872263E+00 -0.162439532398E+02
  0.117084053442E+03  0.338325429665E+02 -0.889577007422E+01
  0.127205394578E+03  0.309155756086E+02 -0.102889622852E+02
  0.175426835972E+03 -0.134076323201E+02  0.201777798357E+02
  0.179580006685E+03 -0.159489070627E+02  0.208931172882E+02
  0.171620369025E+03 -0.798922345506E+01  0.193690330188E+02
  0.175215125353E+03 -0.839068010238E+01  0.197999855213E+02
  0.174305289531E+03 -0.748084031555E+01  0.177059237945E+02
  0.175071881503E+03 -0.712960231674E+01  0.177463776500E+02
  0.176136984473E+03 -0.819471303105E+01  0.380905835532E+01
  0.177452459435E+03 -0.114287211191E+02  0.390307274801E+01
  0.166614299970E+03 -0.590557101249E+00 -0.231959039605E+02
  0.169540212677E+03 -0.621332569712E+01 -0.243818475052E+02
  0.113018556856E+03  0.503083505073E+02 -0.363500237166E+02
  0.113819492526E+03  0.490270334842E+02 -0.375569984044E+02
  0.152133756643E+03  0.107127693673E+02  0.819747833621E+02
  0.146945337052E+03  0.190130781268E+02  0.741560438920E+02
  0.190496015879E+03 -0.245376093279E+02  0.298310729507E+02
  0.187105152179E+03 -0.180213375689E+02  0.284566723084E+02
  0.183158469005E+03 -0.140746370607E+02 -0.407565920413E+01
  0.184371158993E+03 -0.170559549739E+02 -0.416232375713E+01
  0.170829381042E+03 -0.351413105345E+01 -0.169810111730E+02
  0.166787587870E+03 -0.536600531171E+01 -0.167677160736E+02
  0.150892939985E+03  0.105287171221E+02 -0.151368172934E+02
  0.150429525561E+03  0.105804703568E+02 -0.150812599130E+02
  0.127237646354E+03  0.337724834094E+02 -0.998713284881E+01
  0.129842418491E+03  0.321770732156E+02 -0.104359382342E+02
  0.174063446248E+03 -0.114431896245E+02  0.198221961481E+02
  0.175427822587E+03 -0.124876711980E+02  0.200795828800E+02
  0.170311818613E+03 -0.737163714395E+01  0.191613084807E+02
  0.171620474557E+03 -0.798004463755E+01  0.193680544128E+02
  0.173184116921E+03 -0.954369443597E+01  0.177976443426E+02
  0.174284658206E+03 -0.967622009480E+01  0.179177449748E+02
  0.177451855597E+03 -0.128434313089E+02  0.393229431071E+01
  0.177375691035E+03 -0.127006425583E+02  0.392776983087E+01
  0.169565196825E+03 -0.489014602173E+01 -0.242017523584E+02
  0.170362557620E+03 -0.612542489517E+01 -0.244837229675E+02
  0.114098946317E+03  0.501382063066E+02 -0.370748912324E+02
  0.114257217189E+03  0.499256060238E+02 -0.372898635749E+02