# vtk DataFile Version 3.0
TriPan results file. Generated by TriPan, USU AeroLab (c) 2021.
ASCII
DATASET POLYDATA
POINTS                 309 float
  0.000000000000E+00  0.000000000000E+00  0.000000000000E+00
  0.420131176710E+00  0.000000000000E+00 -0.412075400352E+00
  0.420131176710E+00  0.000000000000E+00  0.412075400352E+00
  0.928174138069E+00  0.928174138069E+00  0.000000000000E+00
  0.134830534458E+01  0.928174138069E+00 -0.412075400352E+00
  0.134830534458E+01  0.928174138069E+00  0.412075400352E+00
  0.181353092194E+01  0.000000000000E+00 -0.806821227074E+00
  0.181353092194E+01  0.000000000000E+00  0.806821227074E+00
  0.226196575165E+01  0.226196575165E+01  0.000000000000E+00
  0.268209695816E+01  0.226196575165E+01 -0.412075400352E+00
  0.268209695816E+01  0.226196575165E+01  0.412075400352E+00
  0.274170517921E+01  0.928174138069E+00 -0.806821227074E+00
  0.274170517921E+01  0.928174138069E+00  0.806821227074E+00
  0.407549667358E+01  0.226196575165E+01 -0.806821227074E+00
  0.407549667358E+01  0.226196575165E+01  0.806821227074E+00
  0.413893461227E+01  0.413893461227E+01  0.000000000000E+00
  0.455906581879E+01  0.413893461227E+01 -0.412075400352E+00
  0.455906581879E+01  0.413893461227E+01  0.412075400352E+00
  0.479629611969E+01  0.000000000000E+00 -0.111707651615E+01
  0.479629611969E+01  0.000000000000E+00  0.111707651615E+01
  0.572447013855E+01  0.928174138069E+00 -0.111707651615E+01
  0.572447013855E+01  0.928174138069E+00  0.111707651615E+01
  0.595246553421E+01  0.413893461227E+01 -0.806821227074E+00
  0.595246553421E+01  0.413893461227E+01  0.806821227074E+00
  0.670394468307E+01  0.670394468307E+01  0.000000000000E+00
  0.705826187134E+01  0.226196575165E+01 -0.111707651615E+01
  0.705826187134E+01  0.226196575165E+01  0.111707651615E+01
  0.712407588959E+01  0.670394468307E+01 -0.412075400352E+00
  0.712407588959E+01  0.670394468307E+01  0.412075400352E+00
  0.851747608185E+01  0.670394468307E+01 -0.806821227074E+00
  0.851747608185E+01  0.670394468307E+01  0.806821227074E+00
  0.893523120880E+01  0.413893461227E+01 -0.111707651615E+01
  0.893523120880E+01  0.413893461227E+01  0.111707651615E+01
  0.939523696899E+01  0.000000000000E+00 -0.980761349201E+00
  0.939523696899E+01  0.000000000000E+00  0.980761349201E+00
  0.100722141266E+02  0.100722141266E+02  0.000000000000E+00
  0.103234109879E+02  0.928174138069E+00 -0.980761349201E+00
  0.103234109879E+02  0.928174138069E+00  0.980761349201E+00
  0.104923458099E+02  0.100722141266E+02 -0.412075400352E+00
  0.104923458099E+02  0.100722141266E+02  0.412075400352E+00
  0.115002412796E+02  0.670394468307E+01 -0.111707651615E+01
  0.115002412796E+02  0.670394468307E+01  0.111707651615E+01
  0.116572027206E+02  0.226196575165E+01 -0.980761349201E+00
  0.116572027206E+02  0.226196575165E+01  0.980761349201E+00
  0.118857450485E+02  0.100722141266E+02 -0.806821227074E+00
  0.118857450485E+02  0.100722141266E+02  0.806821227074E+00
  0.135341711044E+02  0.413893461227E+01 -0.980761349201E+00
  0.135341711044E+02  0.413893461227E+01  0.980761349201E+00
  0.139772081375E+02  0.000000000000E+00 -0.540150463581E+00
  0.139772081375E+02  0.000000000000E+00  0.540150463581E+00
  0.142710342407E+02  0.142710342407E+02  0.000000000000E+00
  0.146911659241E+02  0.142710342407E+02 -0.412075400352E+00
  0.146911659241E+02  0.142710342407E+02  0.412075400352E+00
  0.148685102463E+02  0.100722141266E+02 -0.111707651615E+01
  0.148685102463E+02  0.100722141266E+02  0.111707651615E+01
  0.149053821564E+02  0.928174138069E+00 -0.540150463581E+00
  0.149053821564E+02  0.928174138069E+00  0.540150463581E+00
  0.160845661163E+02  0.142710342407E+02 -0.806821227074E+00
  0.160845661163E+02  0.142710342407E+02  0.806821227074E+00
  0.160991821289E+02  0.670394468307E+01 -0.980761349201E+00
  0.160991821289E+02  0.670394468307E+01  0.980761349201E+00
  0.162391738892E+02  0.226196575165E+01 -0.540150463581E+00
  0.162391738892E+02  0.226196575165E+01  0.540150463581E+00
  0.169605827332E+02  0.000000000000E+00 -0.218344569206E+00
  0.169605827332E+02  0.000000000000E+00  0.218344569206E+00
  0.178887577057E+02  0.928174138069E+00 -0.218344569206E+00
  0.178887577057E+02  0.928174138069E+00  0.218344569206E+00
  0.181161422729E+02  0.413893461227E+01 -0.540150463581E+00
  0.181161422729E+02  0.413893461227E+01  0.540150463581E+00
  0.184032192230E+02  0.000000000000E+00 -0.636830478907E-01
  0.184032192230E+02  0.000000000000E+00  0.636830478907E-01
  0.190003013611E+02  0.000000000000E+00  0.000000000000E+00
  0.190673313141E+02  0.142710342407E+02 -0.111707651615E+01
  0.190673313141E+02  0.142710342407E+02  0.111707651615E+01
  0.191784667969E+02  0.191784667969E+02  0.000000000000E+00
  0.192225494385E+02  0.226196575165E+01 -0.218344569206E+00
  0.192225494385E+02  0.226196575165E+01  0.218344569206E+00
  0.193313941956E+02  0.928174138069E+00 -0.636830478907E-01
  0.193313941956E+02  0.928174138069E+00  0.636830478907E-01
  0.194674510956E+02  0.100722141266E+02 -0.980761349201E+00
  0.194674510956E+02  0.100722141266E+02  0.980761349201E+00
  0.195985984802E+02  0.191784667969E+02 -0.412075400352E+00
  0.195985984802E+02  0.191784667969E+02  0.412075400352E+00
  0.199284744263E+02  0.928174138069E+00  0.000000000000E+00
  0.206651840210E+02  0.226196575165E+01 -0.636830478907E-01
  0.206651840210E+02  0.226196575165E+01  0.636830478907E-01
  0.206811523438E+02  0.670394468307E+01 -0.540150463581E+00
  0.206811523438E+02  0.670394468307E+01  0.540150463581E+00
  0.209919986725E+02  0.191784667969E+02 -0.806821227074E+00
  0.209919986725E+02  0.191784667969E+02  0.806821227074E+00
  0.210995178223E+02  0.413893461227E+01 -0.218344569206E+00
  0.210995178223E+02  0.413893461227E+01  0.218344569206E+00
  0.212622661591E+02  0.226196575165E+01  0.000000000000E+00
  0.225421543121E+02  0.413893461227E+01 -0.636830478907E-01
  0.225421543121E+02  0.413893461227E+01  0.636830478907E-01
  0.231392364502E+02  0.413893461227E+01  0.000000000000E+00
  0.236645278931E+02  0.670394468307E+01 -0.218344569206E+00
  0.236645278931E+02  0.670394468307E+01  0.218344569206E+00
  0.236662712097E+02  0.142710342407E+02 -0.980761349201E+00
  0.236662712097E+02  0.142710342407E+02  0.980761349201E+00
  0.239747638702E+02  0.191784667969E+02 -0.111707651615E+01
  0.239747638702E+02  0.191784667969E+02  0.111707651615E+01
  0.240494232178E+02  0.100722141266E+02 -0.540150463581E+00
  0.240494232178E+02  0.100722141266E+02  0.540150463581E+00
  0.245000000000E+02  0.245000000000E+02  0.000000000000E+00
  0.249201316833E+02  0.245000000000E+02 -0.412075400352E+00
  0.249201316833E+02  0.245000000000E+02  0.412075400352E+00
  0.251071643829E+02  0.670394468307E+01 -0.636830478907E-01
  0.251071643829E+02  0.670394468307E+01  0.636830478907E-01
  0.257042465210E+02  0.670394468307E+01  0.000000000000E+00
  0.263135318756E+02  0.245000000000E+02 -0.806821227074E+00
  0.263135318756E+02  0.245000000000E+02  0.806821227074E+00
  0.270327968597E+02  0.100722141266E+02 -0.218344569206E+00
  0.270327968597E+02  0.100722141266E+02  0.218344569206E+00
  0.282482414246E+02  0.142710342407E+02 -0.540150463581E+00
  0.282482414246E+02  0.142710342407E+02  0.540150463581E+00
  0.284754333496E+02  0.100722141266E+02 -0.636830478907E-01
  0.284754333496E+02  0.100722141266E+02  0.636830478907E-01
  0.285737037659E+02  0.191784667969E+02 -0.980761349201E+00
  0.285737037659E+02  0.191784667969E+02  0.980761349201E+00
  0.290725154877E+02  0.100722141266E+02  0.000000000000E+00
  0.292962951660E+02  0.245000000000E+02 -0.111707651615E+01
  0.292962951660E+02  0.245000000000E+02  0.111707651615E+01
  0.298215332031E+02  0.298215332031E+02  0.000000000000E+00
  0.302416648865E+02  0.298215332031E+02 -0.412075400352E+00
  0.302416648865E+02  0.298215332031E+02  0.412075400352E+00
  0.312316169739E+02  0.142710342407E+02 -0.218344569206E+00
  0.312316169739E+02  0.142710342407E+02  0.218344569206E+00
  0.316350631714E+02  0.298215332031E+02 -0.806821227074E+00
  0.316350631714E+02  0.298215332031E+02  0.806821227074E+00
  0.326742553711E+02  0.142710342407E+02 -0.636830478907E-01
  0.326742553711E+02  0.142710342407E+02  0.636830478907E-01
  0.331556739807E+02  0.191784667969E+02 -0.540150463581E+00
  0.331556739807E+02  0.191784667969E+02  0.540150463581E+00
  0.332713356018E+02  0.142710342407E+02  0.000000000000E+00
  0.338952369690E+02  0.245000000000E+02 -0.980761349201E+00
  0.338952369690E+02  0.245000000000E+02  0.980761349201E+00
  0.346178283691E+02  0.298215332031E+02 -0.111707651615E+01
  0.346178283691E+02  0.298215332031E+02  0.111707651615E+01
  0.347289657593E+02  0.347289657593E+02  0.000000000000E+00
  0.351490974426E+02  0.347289657593E+02 -0.412075400352E+00
  0.351490974426E+02  0.347289657593E+02  0.412075400352E+00
  0.361390495300E+02  0.191784667969E+02 -0.218344569206E+00
  0.361390495300E+02  0.191784667969E+02  0.218344569206E+00
  0.365424957275E+02  0.347289657593E+02 -0.806821227074E+00
  0.365424957275E+02  0.347289657593E+02  0.806821227074E+00
  0.375816879272E+02  0.191784667969E+02 -0.636830478907E-01
  0.375816879272E+02  0.191784667969E+02  0.636830478907E-01
  0.381787681580E+02  0.191784667969E+02  0.000000000000E+00
  0.384772071838E+02  0.245000000000E+02 -0.540150463581E+00
  0.384772071838E+02  0.245000000000E+02  0.540150463581E+00
  0.389277839661E+02  0.389277839661E+02  0.000000000000E+00
  0.392167701721E+02  0.298215332031E+02 -0.980761349201E+00
  0.392167701721E+02  0.298215332031E+02  0.980761349201E+00
  0.393479156494E+02  0.389277839661E+02 -0.412075400352E+00
  0.393479156494E+02  0.389277839661E+02  0.412075400352E+00
  0.395252609253E+02  0.347289657593E+02 -0.111707651615E+01
  0.395252609253E+02  0.347289657593E+02  0.111707651615E+01
  0.407413177490E+02  0.389277839661E+02 -0.806821227074E+00
  0.407413177490E+02  0.389277839661E+02  0.806821227074E+00
  0.414605827332E+02  0.245000000000E+02 -0.218344569206E+00
[...]
CELL_DATA                 568
SCALARS sigma float 1
LOOKUP_TABLE default
  0.000000000000E+00
  0.000000000000E+00
  0.000000000000E+00
  0.000000000000E+00
  0.000000000000E+00
  0.000000000000E+00
  0.000000000000E+00
  0.000000000000E+00
  0.000000000000E+00
  0.000000000000E+00
  0.000000000000E+00
  0.000000000000E+00
  0.000000000000E+00
  0.000000000000E+00
  0.000000000000E+00
  0.000000000000E+00
  0.000000000000E+00
  0.000000000000E+00
  0.000000000000E+00
  0.000000000000E+00
  0.000000000000E+00
  0.000000000000E+00
  0.000000000000E+00
  0.000000000000E+00
  0.000000000000E+00
  0.000000000000E+00
  0.000000000000E+00
  0.000000000000E+00
  0.000000000000E+00
  0.000000000000E+00
  0.000000000000E+00
  0.000000000000E+00
  0.000000000000E+00
  0.000000000000E+00
  0.000000000000E+00
  0.000000000000E+00
  0.000000000000E+00
  0.000000000000E+00
  0.000000000000E+00
  0.000000000000E+00
  0.000000000000E+00
  0.000000000000E+00
  0.000000000000E+00
  0.000000000000E+00
  0.000000000000E+00
  0.000000000000E+00
  0.000000000000E+00
  0.000000000000E+00
  0.000000000000E+00
  0.000000000000E+00
  0.000000000000E+00
  0.000000000000E+00
  0.000000000000E+00
  0.000000000000E+00
  0.000000000000E+00
  0.000000000000E+00
  0.000000000000E+00
  0.000000000000E+00
  0.000000000000E+00
  0.000000000000E+00
  0.000000000000E+00
  0.000000000000E+00
  0.000000000000E+00
  0.000000000000E+00
  0.000000000000E+00
  0.000000000000E+00
  0.000000000000E+00
  0.000000000000E+00
  0.000000000000E+00
  0.000000000000E+00
  0.000000000000E+00
  0.000000000000E+00
  0.000000000000E+00
  0.000000000000E+00
  0.000000000000E+00
  0.000000000000E+00
  0.000000000000E+00
  0.000000000000E+00
  0.000000000000E+00
  0.000000000000E+00
  0.000000000000E+00
  0.000000000000E+00
  0.000000000000E+00
  0.000000000000E+00
  0.000000000000E+00
  0.000000000000E+00
  0.000000000000E+00
  0.000000000000E+00
  0.000000000000E+00
  0.000000000000E+00
  0.000000000000E+00
  0.000000000000E+00
  0.000000000000E+00
  0.000000000000E+00
  0.000000000000E+00
  0.000000000000E+00
  0.000000000000E+00
  0.000000000000E+00
  0.000000000000E+00
  0.000000000000E+00
  0.000000000000E+00
  0.000000000000E+00
  0.000000000000E+00
  0.000000000000E+00
  0.000000000000E+00
  0.000000000000E+00
  0.000000000000E+00
  0.000000000000E+00
  0.000000000000E+00
  0.000000000000E+00
  0.000000000000E+00
  0.000000000000E+00
  0.000000000000E+00
  0.000000000000E+00
  0.000000000000E+00
  0.000000000000E+00
  0.000000000000E+00
  0.000000000000E+00
  0.000000000000E+00
  0.000000000000E+00
  0.000000000000E+00
  0.000000000000E+00
  0.000000000000E+00
  0.000000000000E+00
  0.000000000000E+00
  0.000000000000E+00
  0.000000000000E+00
  0.000000000000E+00
  0.000000000000E+00
  0.000000000000E+00
  0.000000000000E+00
  0.000000000000E+00
  0.000000000000E+00
  0.000000000000E+00
  0.000000000000E+00
  0.000000000000E+00
  0.000000000000E+00
  0.000000000000E+00
  0.000000000000E+00
  0.000000000000E+00
  0.000000000000E+00
  0.000000000000E+00
  0.000000000000E+00
  0.000000000000E+00
  0.000000000000E+00
  0.000000000000E+00
  0.000000000000E+00
  0.000000000000E+00
  0.000000000000E+00
  0.000000000000E+00
  0.000000000000E+00
  0.000000000000E+00
  0.000000000000E+00
  0.000000000000E+00
  0.000000000000E+00
  0.000000000000E+00
  0.000000000000E+00
  0.000000000000E+00
  0.000000000000E+00
  0.000000000000E+00
  0.000000000000E+00
  0.000000000000E+00
  0.000000000000E+00
  0.000000000000E+00
  0.000000000000E+00
  0.000000000000E+00
  0.000000000000E+00
  0.000000000000E+00
  0.000000000000E+00
  0.000000000000E+00
  0.000000000000E+00
  0.000000000000E+00
  0.000000000000E+00
  0.000000000000E+00
  0.000000000000E+00
  0.000000000000E+00
  0.000000000000E+00
  0.000000000000E+00
  0.000000000000E+00
  0.000000000000E+00
  0.000000000000E+00
  0.000000000000E+00
  0.000000000000E+00
  0.000000000000E+00
  0.000000000000E+00
  0.000000000000E+00
  0.000000000000E+00
  0.000000000000E+00
  0.000000000000E+00
  0.000000000000E+00
  0.000000000000E+00
  0.000000000000E+00
  0.000000000000E+00
  0.000000000000E+00
  0.000000000000E+00
  0.000000000000E+00
  0.000000000000E+00
  0.000000000000E+00
  0.000000000000E+00
  0.000000000000E+00
  0.000000000000E+00
  0.000000000000E+00
  0.000000000000E+00
  0.000000000000E+00
  0.000000000000E+00
  0.000000000000E+00
  0.000000000000E+00
  0.000000000000E+00
  0.000000000000E+00
  0.000000000000E+00
  0.000000000000E+00
  0.000000000000E+00
  0.000000000000E+00
  0.000000000000E+00
  0.000000000000E+00
  0.000000000000E+00
  0.000000000000E+00
  0.000000000000E+00
  0.000000000000E+00
  0.000000000000E+00
  0.000000000000E+00
  0.000000000000E+00
  0.000000000000E+00
  0.000000000000E+00
  0.000000000000E+00
  0.000000000000E+00
  0.000000000000E+00
  0.000000000000E+00
  0.000000000000E+00
  0.000000000000E+00
  0.000000000000E+00
  0.000000000000E+00
  0.000000000000E+00
  0.000000000000E+00
  0.000000000000E+00
  0.000000000000E+00
  0.000000000000E+00
  0.000000000000E+00
  0.000000000000E+00
  0.000000000000E+00
  0.000000000000E+00
  0.000000000000E+00
  0.000000000000E+00
  0.000000000000E+00
  0.000000000000E+00
  0.000000000000E+00
  0.000000000000E+00
  0.000000000000E+00
  0.000000000000E+00
  0.000000000000E+00
  0.000000000000E+00
  0.000000000000E+00
  0.000000000000E+00
  0.000000000000E+00
  0.000000000000E+00
  0.000000000000E+00
  0.000000000000E+00
  0.000000000000E+00
  0.000000000000E+00
  0.000000000000E+00
  0.000000000000E+00
  0.000000000000E+00
  0.000000000000E+00
  0.000000000000E+00
  0.000000000000E+00
  0.000000000000E+00
  0.000000000000E+00
  0.000000000000E+00
  0.000000000000E+00
  0.000000000000E+00
  0.000000000000E+00
  0.000000000000E+00
  0.000000000000E+00
  0.000000000000E+00
  0.000000000000E+00
  0.000000000000E+00
  0.000000000000E+00
  0.000000000000E+00
  0.000000000000E+00
  0.000000000000E+00
  0.000000000000E+00
  0.000000000000E+00
  0.000000000000E+00
  0.000000000000E+00
  0.000000000000E+00
  0.000000000000E+00
  0.000000000000E+00
  0.000000000000E+00
  0.000000000000E+00
  0.000000000000E+00
  0.000000000000E+00
  0.000000000000E+00
  0.000000000000E+00
  0.000000000000E+00
  0.000000000000E+00
  0.000000000000E+00
  0.000000000000E+00
  0.000000000000E+00
  0.000000000000E+00
  0.000000000000E+00
  0.000000000000E+00
  0.000000000000E+00
  0.000000000000E+00
  0.000000000000E+00
  0.000000000000E+00
  0.000000000000E+00
  0.000000000000E+00
  0.000000000000E+00
  0.000000000000E+00
  0.000000000000E+00
  0.000000000000E+00
  0.000000000000E+00
  0.000000000000E+00
  0.000000000000E+00
  0.000000000000E+00
  0.000000000000E+00
  0.000000000000E+00
  0.000000000000E+00
  0.000000000000E+00
  0.000000000000E+00
  0.000000000000E+00
  0.000000000000E+00
  0.000000000000E+00
  0.000000000000E+00
  0.000000000000E+00
  0.000000000000E+00
  0.000000000000E+00
  0.000000000000E+00
  0.000000000000E+00
  0.000000000000E+00
  0.000000000000E+00
  0.000000000000E+00
  0.000000000000E+00
  0.000000000000E+00
  0.000000000000E+00
  0.000000000000E+00
  0.000000000000E+00
  0.000000000000E+00
  0.000000000000E+00
  0.000000000000E+00
  0.000000000000E+00
  0.000000000000E+00
  0.000000000000E+00
  0.000000000000E+00
  0.000000000000E+00
  0.000000000000E+00
  0.000000000000E+00
  0.000000000000E+00
  0.000000000000E+00
  0.000000000000E+00
  0.000000000000E+00
  0.000000000000E+00
  0.000000000000E+00
  0.000000000000E+00
  0.000000000000E+00
  0.000000000000E+00
  0.000000000000E+00
  0.000000000000E+00
  0.000000000000E+00
  0.000000000000E+00
  0.000000000000E+00
  0.000000000000E+00
  0.000000000000E+00
  0.000000000000E+00
  0.000000000000E+00
  0.000000000000E+00
  0.000000000000E+00
  0.000000000000E+00
  0.000000000000E+00
  0.000000000000E+00
  0.000000000000E+00
  0.000000000000E+00
  0.000000000000E+00
  0.000000000000E+00
  0.000000000000E+00
  0.000000000000E+00
  0.000000000000E+00
  0.000000000000E+00
  0.000000000000E+00
  0.000000000000E+00
  0.000000000000E+00
  0.000000000000E+00
  0.000000000000E+00
  0.000000000000E+00
  0.000000000000E+00
  0.000000000000E+00
  0.000000000000E+00
  0.000000000000E+00
  0.000000000000E+00
  0.000000000000E+00
  0.000000000000E+00
  0.000000000000E+00
  0.000000000000E+00
  0.000000000000E+00
  0.000000000000E+00
  0.000000000000E+00
  0.000000000000E+00
  0.000000000000E+00
  0.000000000000E+00
  0.000000000000E+00
  0.000000000000E+00
  0.000000000000E+00
  0.000000000000E+00
  0.000000000000E+00
  0.000000000000E+00
  0.000000000000E+00
  0.000000000000E+00
  0.000000000000E+00
  0.000000000000E+00
  0.000000000000E+00
  0.000000000000E+00
  0.000000000000E+00
  0.000000000000E+00
  0.000000000000E+00
  0.000000000000E+00
  0.000000000000E+00
  0.000000000000E+00
  0.000000000000E+00
  0.000000000000E+00
  0.000000000000E+00
  0.000000000000E+00
  0.000000000000E+00
  0.000000000000E+00
  0.000000000000E+00
  0.000000000000E+00
  0.000000000000E+00
  0.000000000000E+00
  0.000000000000E+00
  0.000000000000E+00
  0.000000000000E+00
  0.000000000000E+00
  0.000000000000E+00
  0.000000000000E+00
  0.000000000000E+00
  0.000000000000E+00
  0.000000000000E+00
  0.000000000000E+00
  0.000000000000E+00
  0.000000000000E+00
  0.000000000000E+00
  0.000000000000E+00
  0.000000000000E+00
  0.000000000000E+00
  0.000000000000E+00
  0.000000000000E+00
  0.000000000000E+00
  0.000000000000E+00
  0.000000000000E+00
  0.000000000000E+00
  0.000000000000E+00
  0.000000000000E+00
  0.000000000000E+00
  0.000000000000E+00
  0.000000000000E+00
  0.000000000000E+00
  0.000000000000E+00
  0.000000000000E+00
  0.000000000000E+00
  0.000000000000E+00
  0.000000000000E+00
  0.000000000000E+00
  0.000000000000E+00
  0.000000000000E+00
  0.000000000000E+00
  0.000000000000E+00
  0.000000000000E+00
  0.000000000000E+00
  0.000000000000E+00
  0.000000000000E+00
  0.000000000000E+00
  0.000000000000E+00
  0.000000000000E+00
  0.000000000000E+00
  0.000000000000E+00
  0.000000000000E+00
  0.000000000000E+00
  0.000000000000E+00
  0.000000000000E+00
  0.000000000000E+00
  0.000000000000E+00
  0.000000000000E+00
  0.000000000000E+00
  0.000000000000E+00
  0.000000000000E+00
  0.000000000000E+00
  0.000000000000E+00
  0.000000000000E+00
  0.000000000000E+00
  0.000000000000E+00
  0.000000000000E+00
  0.000000000000E+00
  0.000000000000E+00
  0.000000000000E+00
  0.000000000000E+00
  0.000000000000E+00
  0.000000000000E+00
  0.000000000000E+00
  0.000000000000E+00
  0.000000000000E+00
  0.000000000000E+00
  0.000000000000E+00
  0.000000000000E+00
  0.000000000000E+00
  0.000000000000E+00
  0.000000000000E+00
  0.000000000000E+00
  0.000000000000E+00
  0.000000000000E+00
  0.000000000000E+00
  0.000000000000E+00
  0.000000000000E+00
  0.000000000000E+00
  0.000000000000E+00
  0.000000000000E+00
  0.000000000000E+00
  0.000000000000E+00
  0.000000000000E+00
  0.000000000000E+00
  0.000000000000E+00
  0.000000000000E+00
  0.000000000000E+00
  0.000000000000E+00
  0.000000000000E+00
  0.000000000000E+00
  0.000000000000E+00
  0.000000000000E+00
  0.000000000000E+00
  0.000000000000E+00
  0.000000000000E+00
  0.000000000000E+00
  0.000000000000E+00
  0.000000000000E+00
  0.000000000000E+00
  0.000000000000E+00
  0.000000000000E+00
  0.000000000000E+00
  0.000000000000E+00
  0.000000000000E+00
  0.000000000000E+00
  0.000000000000E+00
  0.000000000000E+00
  0.000000000000E+00
  0.000000000000E+00
  0.000000000000E+00
  0.000000000000E+00
  0.000000000000E+00
  0.000000000000E+00
  0.000000000000E+00
  0.000000000000E+00
  0.000000000000E+00
  0.000000000000E+00
  0.000000000000E+00
  0.000000000000E+00
  0.000000000000E+00
  0.000000000000E+00
  0.000000000000E+00
  0.000000000000E+00
  0.000000000000E+00
  0.000000000000E+00
  0.000000000000E+00
  0.000000000000E+00
  0.000000000000E+00
  0.000000000000E+00
  0.000000000000E+00
  0.000000000000E+00
  0.000000000000E+00
  0.000000000000E+00
  0.000000000000E+00
SCALARS C_p_inc float 1
LOOKUP_TABLE default
 -0.496206982953E+00
 -0.107634516002E+01
 -0.259373104572E+00
 -0.230219945125E+00
 -0.163535775898E+00
 -0.158179953293E+00
 -0.167504652628E+00
 -0.174841582194E+00
 -0.151976718511E+00
 -0.163738723941E+00
 -0.504053054916E-02
 -0.666111815755E-01
  0.245068559066E+00
  0.146098184872E+00
  0.608712559160E+00
  0.605411936316E+00
  0.195599743259E+00
  0.386222941379E+00
 -0.262179740117E+00
 -0.796962662028E-01
 -0.313796556632E+00
 -0.253894810133E+00
 -0.283388451251E+00
 -0.293766971301E+00
 -0.184513948003E+00
 -0.150127849982E+00
 -0.572467216874E-02
  0.464293409353E-01
  0.201133235311E+00
  0.295906094340E+00
  0.622852857156E+00
  0.479096680311E+00
 -0.363662548570E+00
 -0.475297986670E+00
 -0.193997397195E+00
 -0.264432794809E+00
 -0.156453154172E+00
 -0.164123417162E+00
 -0.167043635076E+00
 -0.167972946676E+00
 -0.163916191009E+00
 -0.180666426481E+00
 -0.620312201307E-01
 -0.103949320696E+00
  0.138337502115E+00
  0.106764597187E+00
  0.499691038585E+00
  0.499963674885E+00
  0.528820208320E-01
  0.131092154300E+00
 -0.341922671829E+00
 -0.245012404040E+00
 -0.360186364456E+00
 -0.311043903713E+00
 -0.280778730174E+00
 -0.288524943967E+00
 -0.148408928963E+00
 -0.115626047925E+00
  0.462934968971E-01
  0.903957585497E-01
  0.282206227564E+00
  0.259980029026E+00
  0.471585516783E+00
  0.432707871391E+00
 -0.313927974268E+00
 -0.359038084850E+00
 -0.158396447516E+00
 -0.193004375226E+00
 -0.133675397011E+00
 -0.157148732301E+00
 -0.164201413120E+00
 -0.167987270119E+00
 -0.179892018263E+00
 -0.192452328563E+00
 -0.101034419375E+00
 -0.127193184599E+00
  0.101067532152E+00
  0.821924720882E-01
  0.475086837319E+00
  0.475858577695E+00
 -0.193889644709E-01
  0.347099815174E-01
 -0.401829005429E+00
 -0.335129138804E+00
 -0.386767011447E+00
 -0.357580166983E+00
 -0.272168433948E+00
 -0.287016594266E+00
 -0.113870876209E+00
 -0.831526905790E-01
  0.884435256689E-01
  0.101160203446E+00
  0.256235034726E+00
  0.243130463173E+00
  0.430509424786E+00
  0.415837349528E+00
 -0.289062767271E+00
 -0.312215570813E+00
 -0.140984669841E+00
 -0.157861287788E+00
 -0.116706677215E+00
 -0.133563693966E+00
 -0.155819754129E+00
 -0.165035038139E+00
 -0.192638879517E+00
 -0.197453787408E+00
 -0.126011522348E+00
 -0.141269332869E+00
  0.799058396134E-01
  0.695208794930E-01
  0.467779922089E+00
  0.468525425580E+00
 -0.583471655235E-01
 -0.255483410741E-01
 -0.435380445012E+00
 -0.399351329329E+00
 -0.398154224916E+00
 -0.387895349726E+00
 -0.258747241337E+00
 -0.278481658176E+00
 -0.819801020370E-01
 -0.635705486170E-01
  0.100057926134E+00
  0.101968443621E+00
  0.241887741708E+00
  0.236804328781E+00
  0.414830254620E+00
  0.408286039296E+00
 -0.275637449175E+00
 -0.288262266949E+00
 -0.131862765522E+00
 -0.140787174106E+00
 -0.107583996644E+00
 -0.116607444223E+00
 -0.147960938878E+00
 -0.156155863012E+00
 -0.198636483541E+00
 -0.196613953873E+00
 -0.141151208093E+00
 -0.146934605140E+00
  0.691433091742E-01
  0.639853177596E-01
  0.468394057808E+00
  0.468672174176E+00
 -0.716039496636E-01
 -0.590208951548E-01
 -0.446766348660E+00
 -0.435698742520E+00
 -0.397524612917E+00
 -0.401125280087E+00
 -0.248248788904E+00
 -0.263216712998E+00
 -0.631563929340E-01
 -0.557036567264E-01
  0.101572293217E+00
  0.102134233585E+00
  0.236361047528E+00
  0.234415234503E+00
  0.407941161456E+00
  0.404829312292E+00
 -0.268008266040E+00
 -0.275112475446E+00
 -0.126842228381E+00
 -0.131792646681E+00
 -0.102846888871E+00
 -0.107544488713E+00
 -0.143252929875E+00
 -0.148065719441E+00
 -0.197827260714E+00
 -0.194270582101E+00
 -0.147333956831E+00
 -0.147697143819E+00
  0.643280431174E-01
  0.624877538885E-01
  0.471267096830E+00
  0.471072963614E+00
 -0.701639236930E-01
 -0.704163006917E-01
 -0.445812358604E+00
 -0.448018793183E+00
 -0.393482762646E+00
 -0.400062366732E+00
 -0.243002818599E+00
 -0.250394266463E+00
 -0.555856077188E-01
 -0.527284972359E-01
  0.101999611805E+00
  0.102417648827E+00
  0.234277572414E+00
  0.233500655939E+00
  0.404769816550E+00
  0.403171541225E+00
 -0.262998417405E+00
 -0.267539820614E+00
 -0.123761760623E+00
 -0.126805767797E+00
 -0.100236934442E+00
 -0.102821337007E+00
 -0.140741098349E+00
 -0.143274187054E+00
 -0.194992719325E+00
 -0.192632637544E+00
 -0.148081528916E+00
 -0.147248661235E+00
  0.628500053201E-01
  0.623071014916E-01
  0.473340748358E+00
  0.472999068711E+00
 -0.653140898051E-01
 -0.690173173293E-01
 -0.442262136358E+00
 -0.446760976527E+00
 -0.390354446857E+00
 -0.394810845912E+00
 -0.240517884018E+00
 -0.243805337098E+00
 -0.526901102396E-01
 -0.513799743178E-01
  0.102370195091E+00
  0.102682339492E+00
  0.233462596183E+00
  0.233055149825E+00
  0.403183042508E+00
  0.402147537278E+00
 -0.258166094505E+00
 -0.262504247120E+00
 -0.121172447558E+00
 -0.123716527268E+00
 -0.984789367095E-01
 -0.100197258817E+00
 -0.139383042725E+00
 -0.140709266768E+00
 -0.192934308310E+00
 -0.191830138615E+00
 -0.147442137836E+00
 -0.147040117135E+00
  0.624913431297E-01
  0.620741928958E-01
  0.474115867334E+00
  0.473798165840E+00
 -0.615283503890E-01
 -0.646993955652E-01
 -0.439407418371E+00
 -0.442724166676E+00
 -0.388330007345E+00
 -0.390903673096E+00
 -0.239110258426E+00
 -0.240804507888E+00
 -0.513605007798E-01
 -0.505764739094E-01
  0.102657075623E+00
  0.102895284314E+00
  0.233036418288E+00
  0.232634997035E+00
  0.402143650903E+00
  0.401065556553E+00
 -0.250471219996E+00
 -0.257622746781E+00
 -0.117485465536E+00
 -0.121090024415E+00
 -0.965748810071E-01
 -0.983995758041E-01
 -0.138546291936E+00
 -0.139285840497E+00
 -0.191849486283E+00
 -0.191773197588E+00
 -0.147062768266E+00
 -0.147487618989E+00
  0.621031732835E-01
  0.612764988297E-01
  0.473988464458E+00
  0.473650772732E+00
 -0.587907759364E-01
 -0.613309102892E-01
 -0.437207133365E+00
 -0.439556856662E+00
 -0.386833940351E+00
 -0.388505490030E+00
 -0.238008835916E+00
 -0.239203799113E+00
 -0.505569953709E-01
 -0.498002986512E-01
  0.102870882467E+00
  0.103211931981E+00
  0.232625324623E+00
  0.232051278217E+00
  0.401060103629E+00
  0.399339838178E+00
 -0.234581068896E+00
 -0.249893540542E+00
 -0.109886861203E+00
 -0.117335811765E+00
 -0.930322980941E-01
 -0.964143525046E-01
 -0.137721911210E+00
 -0.138331385162E+00
 -0.191514157751E+00
 -0.192645834466E+00
 -0.147341403037E+00
 -0.149062442951E+00
  0.611645254569E-01
  0.594008586502E-01
  0.473051406663E+00
  0.472568380222E+00
 -0.562247707046E-01
 -0.589018333394E-01
 -0.435044130355E+00
 -0.437145059853E+00
 -0.385342530474E+00
 -0.386784877872E+00
 -0.236640974282E+00
 -0.238009051214E+00
 -0.497708323643E-01
 -0.484011975245E-01
  0.103189876590E+00
  0.104236042516E+00
  0.232121706972E+00
  0.231487013117E+00
  0.399527210420E+00
  0.396440627201E+00
 -0.202487377317E+00
 -0.234084758233E+00
 -0.935526011751E-01
 -0.109652021891E+00
 -0.849673427345E-01
 -0.927304630780E-01
 -0.135846463958E+00
 -0.137274127761E+00
 -0.191944416581E+00
 -0.194974318876E+00
 -0.148661307269E+00
 -0.152723944413E+00
  0.590922972943E-01
  0.555631368335E-01
  0.470958811628E+00
  0.470187106286E+00
 -0.531365444103E-01
 -0.566672422044E-01
 -0.432439131842E+00
 -0.434763301075E+00
 -0.383454423185E+00
 -0.385066656480E+00
 -0.234240412967E+00
 -0.236595810249E+00
 -0.483491032614E-01
 -0.450186868535E-01
  0.104249458773E+00
  0.107389320112E+00
  0.231877653154E+00
  0.231932973955E+00
  0.397445560432E+00
  0.392363897446E+00
 -0.145908276168E+00
 -0.202136868565E+00
 -0.637693128661E-01
 -0.932136523667E-01
 -0.701804767904E-01
 -0.845011260186E-01
 -0.130574029240E+00
 -0.135004186111E+00
 -0.193525927423E+00
 -0.198738686487E+00
 -0.151850548164E+00
 -0.160154067268E+00
  0.548944614209E-01
  0.482759917513E-01
  0.466908309299E+00
  0.465728247640E+00
 -0.492535196394E-01
 -0.540765527174E-01
 -0.429296932569E+00
 -0.431830988081E+00
 -0.380871696789E+00
 -0.382830034458E+00
 -0.229063335415E+00
 -0.234290672595E+00
 -0.449284762418E-01
 -0.377686483815E-01