# vtk DataFile Version 3.0
TriPan results file. Generated by TriPan, USU AeroLab (c) 2021.
ASCII
DATASET POLYDATA
POINTS                 144 float
  0.000000000000E+00  0.000000000000E+00  0.000000000000E+00
  0.113538098335E+01  0.000000000000E+00 -0.658124566078E+00
  0.113538098335E+01  0.000000000000E+00  0.658124566078E+00
  0.192375373840E+01  0.192375373840E+01  0.000000000000E+00
  0.305913543701E+01  0.192375373840E+01 -0.658124983311E+00
  0.305913543701E+01  0.192375373840E+01  0.658124983311E+00
  0.423028087616E+01  0.000000000000E+00 -0.108747220039E+01
  0.423028087616E+01  0.000000000000E+00  0.108747220039E+01
  0.547033166885E+01  0.547033166885E+01  0.000000000000E+00
  0.615403699875E+01  0.192375373840E+01 -0.108747279644E+01
  0.615403699875E+01  0.192375373840E+01  0.108747279644E+01
  0.660571479797E+01  0.547033166885E+01 -0.658125698566E+00
  0.660571479797E+01  0.547033166885E+01  0.658125698566E+00
  0.939508819580E+01  0.000000000000E+00 -0.980745851994E+00
  0.939508819580E+01  0.000000000000E+00  0.980745851994E+00
  0.970061969757E+01  0.547033166885E+01 -0.108747410774E+01
  0.970061969757E+01  0.547033166885E+01  0.108747410774E+01
  0.113188476562E+02  0.192375373840E+01 -0.980746448040E+00
  0.113188476562E+02  0.192375373840E+01  0.980746448040E+00
  0.113820018768E+02  0.113820018768E+02  0.000000000000E+00
  0.125173873901E+02  0.113820018768E+02 -0.658127009869E+00
  0.125173873901E+02  0.113820018768E+02  0.658127009869E+00
  0.145402030945E+02  0.000000000000E+00 -0.479613035917E+00
  0.145402030945E+02  0.000000000000E+00  0.479613035917E+00
  0.148654365540E+02  0.547033166885E+01 -0.980747580528E+00
  0.148654365540E+02  0.547033166885E+01  0.980747580528E+00
  0.156122989655E+02  0.113820018768E+02 -0.108747613430E+01
  0.156122989655E+02  0.113820018768E+02  0.108747613430E+01
  0.164639663696E+02  0.192375373840E+01 -0.479613333941E+00
  0.164639663696E+02  0.192375373840E+01  0.479613333941E+00
  0.176505107880E+02  0.000000000000E+00 -0.144198849797E+00
  0.176505107880E+02  0.000000000000E+00  0.144198849797E+00
  0.190000000000E+02  0.000000000000E+00  0.000000000000E+00
  0.195742740631E+02  0.192375373840E+01 -0.144198939204E+00
  0.195742740631E+02  0.192375373840E+01  0.144198939204E+00
  0.197561950684E+02  0.197561950684E+02  0.000000000000E+00
  0.200105609894E+02  0.547033166885E+01 -0.479613870382E+00
  0.200105609894E+02  0.547033166885E+01  0.479613870382E+00
  0.207771244049E+02  0.113820018768E+02 -0.980749428272E+00
  0.207771244049E+02  0.113820018768E+02  0.980749428272E+00
  0.208915824890E+02  0.197561950684E+02 -0.658128738403E+00
  0.208915824890E+02  0.197561950684E+02  0.658128738403E+00
  0.209237651825E+02  0.192375373840E+01  0.000000000000E+00
  0.231208724976E+02  0.547033166885E+01 -0.144199103117E+00
  0.231208724976E+02  0.547033166885E+01  0.144199103117E+00
  0.239865016937E+02  0.197561950684E+02 -0.108747911453E+01
  0.239865016937E+02  0.197561950684E+02  0.108747911453E+01
  0.244703655243E+02  0.547033166885E+01  0.000000000000E+00
  0.259222583771E+02  0.113820018768E+02 -0.479614794254E+00
  0.259222583771E+02  0.113820018768E+02  0.479614794254E+00
  0.290325775146E+02  0.113820018768E+02 -0.144199386239E+00
  0.290325775146E+02  0.113820018768E+02  0.144199386239E+00
  0.291513423920E+02  0.197561950684E+02 -0.980752110481E+00
  0.291513423920E+02  0.197561950684E+02  0.980752110481E+00
  0.292438049316E+02  0.292438049316E+02  0.000000000000E+00
  0.303791980743E+02  0.292438049316E+02 -0.658130764961E+00
  0.303791980743E+02  0.292438049316E+02  0.658130764961E+00
  0.303820724487E+02  0.113820018768E+02  0.000000000000E+00
  0.334741249084E+02  0.292438049316E+02 -0.108748245239E+01
  0.334741249084E+02  0.292438049316E+02  0.108748245239E+01
  0.342964897156E+02  0.197561950684E+02 -0.479616105556E+00
  0.342964897156E+02  0.197561950684E+02  0.479616105556E+00
  0.374068183899E+02  0.197561950684E+02 -0.144199773669E+00
  0.374068183899E+02  0.197561950684E+02  0.144199773669E+00
  0.376179962158E+02  0.376179962158E+02  0.000000000000E+00
  0.386389808655E+02  0.292438049316E+02 -0.980755090714E+00
  0.386389808655E+02  0.292438049316E+02  0.980755090714E+00
  0.387533912659E+02  0.376179962158E+02 -0.658132553101E+00
  0.387533912659E+02  0.376179962158E+02  0.658132553101E+00
  0.387563171387E+02  0.197561950684E+02  0.000000000000E+00
  0.418483314514E+02  0.376179962158E+02 -0.108748543262E+01
  0.418483314514E+02  0.376179962158E+02  0.108748543262E+01
  0.435296669006E+02  0.435296669006E+02  0.000000000000E+00
  0.437841453552E+02  0.292438049316E+02 -0.479617565870E+00
  0.437841453552E+02  0.292438049316E+02  0.479617565870E+00
  0.446650657654E+02  0.435296669006E+02 -0.658133804798E+00
  0.446650657654E+02  0.435296669006E+02  0.658133804798E+00
  0.468944816589E+02  0.292438049316E+02 -0.144200220704E+00
  0.468944816589E+02  0.292438049316E+02  0.144200220704E+00
  0.470131988525E+02  0.376179962158E+02 -0.980757772923E+00
  0.470131988525E+02  0.376179962158E+02  0.980757772923E+00
  0.470762481689E+02  0.470762481689E+02  0.000000000000E+00
  0.477600097656E+02  0.435296669006E+02 -0.108748745918E+01
  0.477600097656E+02  0.435296669006E+02  0.108748745918E+01
  0.482116432190E+02  0.470762481689E+02 -0.658134579659E+00
  0.482116432190E+02  0.470762481689E+02  0.658134579659E+00
  0.482439842224E+02  0.292438049316E+02  0.000000000000E+00
  0.490000000000E+02  0.490000000000E+02  0.000000000000E+00
  0.501353988647E+02  0.490000000000E+02 -0.658134996891E+00
  0.501353988647E+02  0.490000000000E+02  0.658134996891E+00
  0.506007728577E+02  0.494653701782E+02 -0.465371757746E+00
  0.506007728577E+02  0.494653701782E+02  0.465371757746E+00
  0.507935333252E+02  0.496581344604E+02 -0.771266485397E-15
  0.513065910339E+02  0.470762481689E+02 -0.108748877048E+01
  0.513065910339E+02  0.470762481689E+02  0.108748877048E+01
  0.521583786011E+02  0.376179962158E+02 -0.479618877172E+00
  0.521583786011E+02  0.376179962158E+02  0.479618877172E+00
  0.529248886108E+02  0.435296669006E+02 -0.980759620667E+00
  0.529248886108E+02  0.435296669006E+02  0.980759620667E+00
  0.532303466797E+02  0.490000000000E+02 -0.108748936653E+01
  0.532303466797E+02  0.490000000000E+02  0.108748936653E+01
  0.539993209839E+02  0.497689704895E+02 -0.768971264362E+00
  0.539993209839E+02  0.497689704895E+02  0.768971264362E+00
  0.543178405762E+02  0.500874900818E+02 -0.157378642191E-15
  0.552687225342E+02  0.376179962158E+02 -0.144200608134E+00
  0.552687225342E+02  0.376179962158E+02  0.144200608134E+00
  0.564714775085E+02  0.470762481689E+02 -0.980760753155E+00
  0.564714775085E+02  0.470762481689E+02  0.980760753155E+00
  0.566182289124E+02  0.376179962158E+02  0.000000000000E+00
  0.580700759888E+02  0.435296669006E+02 -0.479619771242E+00
  0.580700759888E+02  0.435296669006E+02  0.479619771242E+00
  0.583952369690E+02  0.490000000000E+02 -0.980761349201E+00
  0.583952369690E+02  0.490000000000E+02  0.980761349201E+00
  0.590887413025E+02  0.496935043335E+02 -0.693503141403E+00
  0.590887413025E+02  0.496935043335E+02  0.693503141403E+00
  0.593759994507E+02  0.499807624817E+02  0.000000000000E+00
  0.611804275513E+02  0.435296669006E+02 -0.144200876355E+00
  0.611804275513E+02  0.435296669006E+02  0.144200876355E+00
  0.616166725159E+02  0.470762481689E+02 -0.479620337486E+00
  0.616166725159E+02  0.470762481689E+02  0.479620337486E+00
  0.625299339294E+02  0.435296669006E+02  0.000000000000E+00
  0.635404319763E+02  0.490000000000E+02 -0.479620635509E+00
  0.635404319763E+02  0.490000000000E+02  0.479620635509E+00
  0.638795776367E+02  0.493391418457E+02 -0.339143037796E+00
  0.638795776367E+02  0.493391418457E+02  0.339143037796E+00
  0.640200576782E+02  0.494796218872E+02  0.296956834055E-15
  0.647270278931E+02  0.470762481689E+02 -0.144201040268E+00
  0.647270278931E+02  0.470762481689E+02  0.144201040268E+00
  0.660765380859E+02  0.470762481689E+02  0.000000000000E+00
  0.666507873535E+02  0.490000000000E+02 -0.144201144576E+00
  0.666507873535E+02  0.490000000000E+02  0.144201144576E+00
  0.667527542114E+02  0.491019668579E+02 -0.101965606213E+00
  0.667527542114E+02  0.491019668579E+02  0.101965606213E+00
  0.667949905396E+02  0.491441993713E+02 -0.260488604752E-16
  0.680002975464E+02  0.490000000000E+02  0.000000000000E+00
  0.190000000000E+02  0.000000000000E+00  0.000000000000E+00
  0.209237651825E+02  0.192375373840E+01  0.000000000000E+00
  0.244703655243E+02  0.547033166885E+01  0.000000000000E+00
  0.303820724487E+02  0.113820018768E+02  0.000000000000E+00
  0.387563171387E+02  0.197561950684E+02  0.000000000000E+00
  0.482439842224E+02  0.292438049316E+02  0.000000000000E+00
  0.566182289124E+02  0.376179962158E+02  0.000000000000E+00
  0.625299339294E+02  0.435296669006E+02  0.000000000000E+00
  0.660765380859E+02  0.470762481689E+02  0.000000000000E+00
POLYGONS                 256                1024
3                 135                  33                 136
3                  32                  30                  33
3                  30                  28                  33
3                  30                  22                  28
3                  22                  17                  28
3                  22                  13                  17
3                  13                   6                  17
3                  17                   6                   9
3                   6                   1                   9
3                   9                   1                   4
3                   1                   0                   4
3                   4                   0                   3
3                   0                   5                   3
3                   0                   2                   5
3                   2                  10                   5
3                   2                   7                  10
[...]
CELL_DATA                 256
SCALARS sigma float 1
LOOKUP_TABLE default
 -0.329549975551E-01
 -0.329550807772E-01
 -0.339196165809E-01
 -0.339195505447E-01
 -0.236763951477E-01
 -0.236764092888E-01
  0.526070828906E-01
  0.526070962707E-01
  0.207634848143E+00
  0.207634833180E+00
  0.503716072974E+00
  0.503716073713E+00
  0.390436717982E+00
  0.390436717007E+00
  0.638985658311E-01
  0.638985819740E-01
 -0.938067906304E-01
 -0.938068038213E-01
 -0.168782682704E+00
 -0.168782668430E+00
 -0.178721656496E+00
 -0.178721722140E+00
 -0.177787128423E+00
 -0.177787046867E+00
 -0.329549684734E-01
 -0.329549974576E-01
 -0.339196040394E-01
 -0.339196163033E-01
 -0.236764026136E-01
 -0.236763951867E-01
  0.526070962188E-01
  0.526070863931E-01
  0.207634833677E+00
  0.207634872308E+00
  0.503716068103E+00
  0.503716031361E+00
  0.390436667748E+00
  0.390436713634E+00
  0.638986069845E-01
  0.638985659840E-01
 -0.938068002610E-01
 -0.938067905379E-01
 -0.168782668708E+00
 -0.168782676077E+00
 -0.178721720677E+00
 -0.178721708627E+00
 -0.177787046341E+00
 -0.177787018081E+00
 -0.329550260615E-01
 -0.329549684670E-01
 -0.339195467228E-01
 -0.339196041022E-01
 -0.236764016685E-01
 -0.236764026280E-01
  0.526070864184E-01
  0.526070861364E-01
  0.207634871877E+00
  0.207634809969E+00
  0.503716029272E+00
  0.503716005085E+00
  0.390436636582E+00
  0.390436666129E+00
  0.638985416425E-01
  0.638986068520E-01
 -0.938068005856E-01
 -0.938068003061E-01
 -0.168782676180E+00
 -0.168782675236E+00
 -0.178721708958E+00
 -0.178721652895E+00
 -0.177787018047E+00
 -0.177787074066E+00
 -0.329550114356E-01
 -0.329550260923E-01
 -0.339195138964E-01
 -0.339195468480E-01
 -0.236764151497E-01
 -0.236764016581E-01
  0.526070861288E-01
  0.526070894758E-01
  0.207634810857E+00
  0.207634867877E+00
  0.503716018076E+00
  0.503716236643E+00
  0.390436911236E+00
  0.390436646652E+00
  0.638986017777E-01
  0.638985419159E-01
 -0.938067972516E-01
 -0.938068005721E-01
 -0.168782675161E+00
 -0.168782688390E+00
 -0.178721653555E+00
 -0.178721621439E+00
 -0.177787074232E+00
 -0.177787059991E+00
 -0.329550400818E-01
 -0.329550114649E-01
 -0.339195738742E-01
 -0.339195138467E-01
 -0.236763860323E-01
 -0.236764151326E-01
  0.526070894790E-01
  0.526070812886E-01
  0.207634867372E+00
  0.207634942068E+00
  0.503716212894E+00
  0.503715757051E+00
  0.390436342386E+00
  0.390436892828E+00
  0.638986799683E-01
  0.638986016221E-01
 -0.938068053848E-01
 -0.938067972574E-01
 -0.168782688268E+00
 -0.168782659765E+00
 -0.178721621177E+00
 -0.178721679641E+00
 -0.177787060150E+00
 -0.177787087945E+00
 -0.329550253060E-01
 -0.329550399627E-01
 -0.339196055850E-01
 -0.339195737211E-01
 -0.236763639455E-01
 -0.236763860164E-01
  0.526070812828E-01
  0.526070693708E-01
  0.207634941324E+00
  0.207634746605E+00
  0.503715771284E+00
  0.503716010742E+00
  0.390436643292E+00
  0.390436353418E+00
  0.638984753163E-01
  0.638986797393E-01
 -0.938068171923E-01
 -0.938068053745E-01
 -0.168782659652E+00
 -0.168782638012E+00
 -0.178721678835E+00
 -0.178721709891E+00
 -0.177787087303E+00
 -0.177787073062E+00
 -0.329552201508E-01
 -0.329550253595E-01
 -0.339195436710E-01
 -0.339196057514E-01
 -0.236764043157E-01
 -0.236763639859E-01
  0.526070693864E-01
  0.526070805517E-01
  0.207634746102E+00
  0.207634818226E+00
  0.503715982399E+00
  0.503715654099E+00
  0.390436220273E+00
  0.390436621323E+00
  0.638985511320E-01
  0.638984751612E-01
 -0.938068061517E-01
 -0.938068172200E-01
 -0.168782638299E+00
 -0.168782677988E+00
 -0.178721710767E+00
 -0.178721650111E+00
 -0.177787073351E+00
 -0.177787262814E+00
 -0.329550430756E-01
 -0.329552201497E-01
 -0.339195409875E-01
 -0.339195438427E-01
 -0.236763705392E-01
 -0.236764044568E-01
  0.526070805579E-01
  0.526070764589E-01
  0.207634825092E+00
  0.207634827193E+00
  0.503715801128E+00
  0.503716764012E+00
  0.390437536755E+00
  0.390436334237E+00
  0.638985554754E-01
  0.638985532448E-01
 -0.938068102189E-01
 -0.938068061627E-01
 -0.168782678994E+00
 -0.168782645338E+00
 -0.178721651015E+00
 -0.178721648210E+00
 -0.177787262808E+00
 -0.177787090159E+00
 -0.329551196711E-01
 -0.329550438042E-01
 -0.339196024614E-01
 -0.339195411433E-01
 -0.236764275905E-01
 -0.236763702735E-01
  0.526070764350E-01
  0.526070917266E-01
  0.207634817958E+00
  0.207634868715E+00
  0.503716601168E+00
  0.503716097220E+00
  0.390436745864E+00
  0.390437410532E+00
  0.638986073936E-01
  0.638985526334E-01
 -0.938067951007E-01
 -0.938068101761E-01
 -0.168782643444E+00
 -0.168782701303E+00
 -0.178721649031E+00
 -0.178721709985E+00
 -0.177787094089E+00
 -0.177787168438E+00
 -0.316935579333E-01
 -0.326331268065E-01
 -0.326336182753E-01
 -0.226864705583E-01
 -0.226863223739E-01
  0.489644513401E-01
  0.489645594138E-01
  0.183821064888E+00
  0.183821249877E+00
  0.427273335323E+00
  0.331184990034E+00
  0.565703238856E-01
  0.565700266463E-01
 -0.873112275464E-01
 -0.873113890796E-01
 -0.161724515164E+00
 -0.161724619544E+00
 -0.171945884914E+00
 -0.171945579028E+00
 -0.170981261149E+00
 -0.769793304014E-01
 -0.780351928931E-01
 -0.780305482749E-01
 -0.669436276770E-01
 -0.669448970212E-01
  0.914683499000E-02
  0.914668774611E-02
  0.138312804956E+00
  0.138312669944E+00
  0.351109702643E+00
  0.316096568384E+00
  0.885660355508E-01
  0.885663526076E-01
 -0.479016718461E-01
 -0.479012742386E-01
 -0.127746819538E+00
 -0.127746429613E+00
 -0.139346415721E+00
 -0.139347122756E+00
 -0.138242769986E+00
SCALARS C_p_inc float 1
LOOKUP_TABLE default
 -0.248113300254E+00
 -0.541170819325E+00
 -0.171046712497E+00
 -0.168965750825E+00
 -0.166188757235E+00
 -0.175442406272E+00
 -0.144117359061E+00
 -0.170477641027E+00
  0.388097551157E-01
 -0.706243706631E-01
  0.475754107272E+00
  0.433392895945E+00
 -0.165687509429E-01
  0.240674758838E+00
 -0.367204642103E+00
 -0.226876771019E+00
 -0.281452904495E+00
 -0.291569469846E+00
 -0.174557657986E+00
 -0.111436773066E+00
  0.408224788235E-01
  0.134090432094E+00
  0.437698394713E+00
  0.350681211428E+00
 -0.180956127245E+00
 -0.240271748315E+00
 -0.125613537883E+00
 -0.173334466378E+00
 -0.157852022988E+00
 -0.167707681044E+00
 -0.170963684563E+00
 -0.190976238985E+00
 -0.652119392988E-01
 -0.105863841463E+00
  0.374228169436E+00
  0.368809195193E+00
 -0.128447806986E+00
 -0.333418005552E-01
 -0.422202121893E+00
 -0.360467858908E+00
 -0.271025579383E+00
 -0.291229699944E+00
 -0.110014687784E+00
 -0.590806288334E-01
  0.129878397216E+00
  0.135073483936E+00
  0.343658675159E+00
  0.322000138124E+00
 -0.160835998933E+00
 -0.179932923530E+00
 -0.108295863626E+00
 -0.125616926141E+00
 -0.144795265040E+00
 -0.159297816356E+00
 -0.192271191856E+00
 -0.191249800738E+00
 -0.105300569192E+00
 -0.116635929605E+00
  0.363644581429E+00
  0.362461020190E+00
 -0.154210160656E+00
 -0.129969770113E+00
 -0.429351039422E+00
 -0.424461295712E+00
 -0.253407502573E+00
 -0.278223206524E+00
 -0.584227282346E-01
 -0.442414234580E-01
  0.133874547060E+00
  0.133030520904E+00
  0.320922974473E+00
  0.315661799331E+00
 -0.152990772040E+00
 -0.160515563968E+00
 -0.102518817011E+00
 -0.108289659149E+00
 -0.139763036413E+00
 -0.145115710118E+00
 -0.192720774426E+00
 -0.188995365441E+00
 -0.117060133324E+00
 -0.116485173426E+00
  0.365396352368E+00
  0.364721426105E+00
 -0.148360266876E+00
 -0.153550416399E+00
 -0.423657338989E+00
 -0.432393267239E+00
 -0.248189772090E+00
 -0.256038617667E+00
 -0.441585010922E-01
 -0.414497385711E-01
  0.132864764754E+00
  0.132739966528E+00
  0.315575086681E+00
  0.313678949025E+00
 -0.145029113448E+00
 -0.152694091090E+00
 -0.989659775186E-01
 -0.102459411437E+00
 -0.138034818553E+00
 -0.139749436118E+00
 -0.189396589802E+00
 -0.188790772589E+00
 -0.116686245434E+00
 -0.117113177313E+00
  0.366066419687E+00
  0.365029838441E+00
 -0.142861587637E+00
 -0.148026494686E+00
 -0.420129823857E+00
 -0.424619024690E+00
 -0.246023639677E+00
 -0.248703982027E+00
 -0.414365578189E-01
 -0.403588230186E-01
  0.132729376026E+00
  0.132316687455E+00
  0.313714723205E+00
  0.311091829868E+00
 -0.120863062129E+00
 -0.144658993785E+00
 -0.893284195831E-01
 -0.987523639785E-01
 -0.135865922174E+00
 -0.137727246126E+00
 -0.188438893860E+00
 -0.191402270529E+00
 -0.116991080963E+00
 -0.121090484927E+00
  0.364514659439E+00
  0.361997585959E+00
 -0.137316232676E+00
 -0.142856386033E+00
 -0.415986447294E+00
 -0.420212603292E+00
 -0.242752001895E+00
 -0.246142628553E+00
 -0.403481561149E-01
 -0.373101676069E-01
  0.132415786096E+00
  0.132762962567E+00
  0.311493645248E+00
  0.305338458075E+00
 -0.634217076566E-01
 -0.120763171391E+00
 -0.598309254494E-01
 -0.889669294300E-01
 -0.121015479503E+00
 -0.134885466791E+00
 -0.189840326817E+00
 -0.196496894217E+00
 -0.120422132324E+00
 -0.134150210290E+00
  0.358916490195E+00
  0.352734364921E+00
 -0.128701452792E+00
 -0.137633683330E+00
 -0.409226610837E+00
 -0.415418230376E+00
 -0.231390392237E+00
 -0.243109234836E+00
 -0.373066384404E-01
 -0.212131434422E-01
  0.133710685683E+00
  0.138363034099E+00
  0.308621441621E+00
  0.293961553216E+00
 -0.107123326886E-01
 -0.639625905673E-01
 -0.144630158269E-01
 -0.595997820227E-01
 -0.888134684906E-01
 -0.119562205093E+00
 -0.194120286780E+00
 -0.176748712119E+00
 -0.132197006790E+00
 -0.165615350030E+00
  0.341687091889E+00
  0.328021762660E+00
 -0.119458620787E+00
 -0.130086679883E+00
 -0.396362964186E+00
 -0.406972667220E+00
 -0.185343036306E+00
 -0.235665879171E+00
 -0.215210169575E-01
  0.614266735017E-02
  0.141333576208E+00
  0.145760776527E+00
  0.303894471787E+00
  0.249710440921E+00
 -0.323489916413E+03
 -0.173300794876E+00
 -0.622185080234E+00
 -0.143853001114E-01
 -0.534225896286E-01
 -0.876426994978E-01
 -0.177057488145E+00
 -0.129176500719E+00
 -0.163933131576E+00
 -0.139304470767E+00
  0.265681458014E+00
  0.232058688250E+00
 -0.129986202092E+00
 -0.130384799808E+00
 -0.280452880381E+00
 -0.400507086312E+00
 -0.119713312407E+00
 -0.206928083901E+00
  0.196670784080E-02
  0.269362795311E-01
  0.146156286707E+00
 -0.474878244149E+00
  0.285872719115E-01
 -0.326016589296E+03
 -0.711692820743E+03
 -0.520023608490E+01
 -0.674168697940E+00
 -0.322950791318E-01
 -0.538572229732E-01
 -0.129401682176E+00
 -0.119580672178E+00
 -0.161373459027E+00
 -0.155459622801E+00
  0.195283684719E-01
 -0.177114926865E+00
 -0.209824392230E+00
 -0.294211219241E+00
 -0.107890911141E+00
 -0.170454042472E+00
 -0.557457978664E-03
 -0.132915251115E-01
 -0.722558312131E+00
 -0.418633468103E+01
 -0.704216102597E+03
 -0.475254221136E+03
 -0.691806618114E+01
 -0.896079186343E+00
 -0.306717196699E-01
 -0.485512640209E-01
 -0.128384816875E+00
 -0.129266154104E+00
 -0.181172929494E+00
 -0.182295139379E+00
 -0.919001415132E-01
 -0.159691945329E+00
 -0.202851140421E+00
 -0.221070050234E+00
 -0.124157177292E+00
 -0.145772924061E+00
 -0.285102662928E-01
 -0.412273828085E-01
 -0.100250254086E+01
 -0.515444410426E+01
 -0.467902443748E+03
SCALARS inclination float 1
LOOKUP_TABLE default
  0.100000000000E+01
  0.100000000000E+01
  0.100000000000E+01
  0.100000000000E+01
  0.100000000000E+01
  0.100000000000E+01
  0.100000000000E+01
  0.100000000000E+01
  0.100000000000E+01
  0.100000000000E+01
  0.100000000000E+01
  0.100000000000E+01
  0.100000000000E+01
  0.100000000000E+01
  0.100000000000E+01
  0.100000000000E+01
  0.100000000000E+01
  0.100000000000E+01
  0.100000000000E+01
  0.100000000000E+01
  0.100000000000E+01
  0.100000000000E+01
  0.100000000000E+01
  0.100000000000E+01
  0.100000000000E+01
  0.100000000000E+01
  0.100000000000E+01
  0.100000000000E+01
  0.100000000000E+01
  0.100000000000E+01
  0.100000000000E+01
  0.100000000000E+01
  0.100000000000E+01
  0.100000000000E+01
  0.100000000000E+01
  0.100000000000E+01
  0.100000000000E+01
  0.100000000000E+01
  0.100000000000E+01
  0.100000000000E+01
  0.100000000000E+01
  0.100000000000E+01
  0.100000000000E+01
  0.100000000000E+01
  0.100000000000E+01
  0.100000000000E+01
  0.100000000000E+01
  0.100000000000E+01
  0.100000000000E+01
  0.100000000000E+01
  0.100000000000E+01
  0.100000000000E+01
  0.100000000000E+01
  0.100000000000E+01
  0.100000000000E+01
  0.100000000000E+01
  0.100000000000E+01
  0.100000000000E+01
  0.100000000000E+01
  0.100000000000E+01
  0.100000000000E+01
  0.100000000000E+01
  0.100000000000E+01
  0.100000000000E+01
  0.100000000000E+01
  0.100000000000E+01
  0.100000000000E+01
  0.100000000000E+01
  0.100000000000E+01
  0.100000000000E+01
  0.100000000000E+01
  0.100000000000E+01
  0.100000000000E+01
  0.100000000000E+01
  0.100000000000E+01
  0.100000000000E+01
  0.100000000000E+01
  0.100000000000E+01
  0.100000000000E+01
  0.100000000000E+01
  0.100000000000E+01
  0.100000000000E+01
  0.100000000000E+01
  0.100000000000E+01
  0.100000000000E+01
  0.100000000000E+01
  0.100000000000E+01
  0.100000000000E+01
  0.100000000000E+01
  0.100000000000E+01
  0.100000000000E+01
  0.100000000000E+01
  0.100000000000E+01
  0.100000000000E+01
  0.100000000000E+01
  0.100000000000E+01
  0.100000000000E+01
  0.100000000000E+01
  0.100000000000E+01
  0.100000000000E+01
  0.100000000000E+01
  0.100000000000E+01
  0.100000000000E+01
  0.100000000000E+01
  0.100000000000E+01
  0.100000000000E+01
  0.100000000000E+01
  0.100000000000E+01
  0.100000000000E+01
  0.100000000000E+01
  0.100000000000E+01
  0.100000000000E+01
  0.100000000000E+01
  0.100000000000E+01
  0.100000000000E+01
  0.100000000000E+01
  0.100000000000E+01
  0.100000000000E+01
  0.100000000000E+01
  0.100000000000E+01
  0.100000000000E+01
  0.100000000000E+01
  0.100000000000E+01
  0.100000000000E+01
  0.100000000000E+01
  0.100000000000E+01
  0.100000000000E+01
  0.100000000000E+01
  0.100000000000E+01
  0.100000000000E+01
  0.100000000000E+01
  0.100000000000E+01
  0.100000000000E+01
  0.100000000000E+01
  0.100000000000E+01
  0.100000000000E+01
  0.100000000000E+01
  0.100000000000E+01
  0.100000000000E+01
  0.100000000000E+01
  0.100000000000E+01
  0.100000000000E+01
  0.100000000000E+01
  0.100000000000E+01
  0.100000000000E+01
  0.100000000000E+01
  0.100000000000E+01
  0.100000000000E+01
  0.100000000000E+01
  0.100000000000E+01
  0.100000000000E+01
  0.100000000000E+01
  0.100000000000E+01
  0.100000000000E+01
  0.100000000000E+01
  0.100000000000E+01
  0.100000000000E+01
  0.100000000000E+01
  0.100000000000E+01
  0.100000000000E+01
  0.100000000000E+01
  0.100000000000E+01
  0.100000000000E+01
  0.100000000000E+01
  0.100000000000E+01
  0.100000000000E+01
  0.100000000000E+01
  0.100000000000E+01
  0.100000000000E+01
  0.100000000000E+01
  0.100000000000E+01
  0.100000000000E+01
  0.100000000000E+01
  0.100000000000E+01
  0.100000000000E+01
  0.100000000000E+01
  0.100000000000E+01
  0.100000000000E+01
  0.100000000000E+01
  0.100000000000E+01
  0.100000000000E+01
  0.100000000000E+01
  0.100000000000E+01
  0.100000000000E+01
  0.100000000000E+01
  0.100000000000E+01
  0.100000000000E+01
  0.100000000000E+01
  0.100000000000E+01
  0.100000000000E+01
  0.100000000000E+01
  0.100000000000E+01
  0.100000000000E+01
  0.100000000000E+01
  0.100000000000E+01
  0.100000000000E+01
  0.100000000000E+01
  0.100000000000E+01
  0.100000000000E+01
  0.100000000000E+01
  0.100000000000E+01
  0.100000000000E+01
  0.100000000000E+01
  0.100000000000E+01
  0.100000000000E+01
  0.100000000000E+01
  0.100000000000E+01
  0.100000000000E+01
  0.100000000000E+01
  0.100000000000E+01
  0.100000000000E+01
  0.100000000000E+01
  0.100000000000E+01
  0.100000000000E+01
  0.100000000000E+01
  0.100000000000E+01
  0.100000000000E+01
  0.100000000000E+01
  0.100000000000E+01
  0.100000000000E+01
  0.100000000000E+01
  0.100000000000E+01
  0.100000000000E+01
  0.100000000000E+01
  0.100000000000E+01
  0.100000000000E+01
  0.100000000000E+01
  0.100000000000E+01
  0.100000000000E+01
  0.100000000000E+01
  0.100000000000E+01
  0.100000000000E+01
  0.100000000000E+01
  0.100000000000E+01
  0.100000000000E+01
  0.100000000000E+01
  0.100000000000E+01
  0.100000000000E+01
  0.100000000000E+01
  0.100000000000E+01
  0.100000000000E+01
  0.100000000000E+01
  0.100000000000E+01
  0.100000000000E+01
  0.100000000000E+01
  0.100000000000E+01
  0.100000000000E+01
  0.100000000000E+01
  0.100000000000E+01
  0.100000000000E+01
  0.100000000000E+01
  0.100000000000E+01
  0.100000000000E+01
  0.100000000000E+01
  0.100000000000E+01
  0.100000000000E+01
VECTORS v float
  0.179559989391E+03 -0.214055544618E+02  0.214740476507E+02
  0.199083031091E+03 -0.270119342843E+02  0.241592557135E+02
  0.175306478648E+03 -0.323526420130E+01  0.192538752952E+02
  0.175147565428E+03 -0.333440551721E+01  0.192474179637E+02
  0.175132372834E+03 -0.331921313705E+01  0.173811363481E+02
  0.175856028078E+03 -0.211951902733E+01  0.173347719940E+02
  0.174311969424E+03 -0.575460032314E+00  0.361390012727E+01
  0.176152645301E+03 -0.736780191082E+01  0.379229390031E+01
  0.158132206832E+03  0.106526513773E+02 -0.204594671826E+02
  0.166409352153E+03 -0.118950066717E+02 -0.247357077181E+02
  0.101660075491E+03  0.528542932937E+02 -0.282903138099E+02
  0.109348848157E+03  0.357015811949E+02 -0.426897019738E+02
  0.142746791905E+03  0.230363744662E+01  0.814079959165E+02
  0.126817131225E+03  0.378407635373E+02  0.515752283095E+02
  0.187031460800E+03 -0.223735835405E+02  0.290502248960E+02
  0.178832685153E+03 -0.394114400642E-01  0.248144735402E+02
  0.184391351566E+03 -0.559807583780E+01 -0.392596919133E+01
  0.185030993590E+03 -0.795844125608E+01 -0.398796540650E+01
  0.175829795958E+03  0.124278777719E+01 -0.170047271925E+02
  0.170820730251E+03 -0.706136535088E+01 -0.173256705332E+02
  0.158695495457E+03  0.506392943458E+01 -0.165675556561E+02
  0.150805665799E+03  0.141795694292E+00 -0.162475341745E+02
  0.117115164294E+03  0.338324638730E+02 -0.889910285689E+01
  0.127240360760E+03  0.309143854102E+02 -0.102928257509E+02
  0.175469133028E+03 -0.134178088309E+02  0.201833868676E+02
  0.179614943554E+03 -0.159545749570E+02  0.208974560858E+02
  0.171659751969E+03 -0.799933745051E+01  0.193743707560E+02
  0.175247106403E+03 -0.839996746554E+01  0.198044358973E+02
  0.174336575349E+03 -0.748943244417E+01  0.177098079008E+02
  0.175096454626E+03 -0.714127007697E+01  0.177499075091E+02
  0.176152291316E+03 -0.819711448311E+01  0.380942428286E+01
  0.177473430621E+03 -0.114450479805E+02  0.390384348677E+01
  0.166622730109E+03 -0.594342899841E+00 -0.231975986456E+02
  0.169553200301E+03 -0.622586968151E+01 -0.243853894396E+02
  0.113021691053E+03  0.503056599551E+02 -0.363534000373E+02
  0.113824529880E+03  0.490212983062E+02 -0.375632427107E+02
  0.152138767918E+03  0.107070602677E+02  0.819809974357E+02
  0.146948449138E+03  0.190104073054E+02  0.741593959594E+02
  0.190508988618E+03 -0.245501408061E+02  0.298346110851E+02
  0.187113568223E+03 -0.180251123819E+02  0.284583635142E+02
  0.183179436839E+03 -0.140909636796E+02 -0.407642986862E+01
  0.184386459947E+03 -0.170583499433E+02 -0.416268942901E+01
  0.170853956137E+03 -0.352580019132E+01 -0.169845413583E+02
  0.166818884904E+03 -0.537459458160E+01 -0.167716009940E+02
  0.150924964313E+03  0.105194005556E+02 -0.151412754858E+02
  0.150468917613E+03  0.105703309742E+02 -0.150866013701E+02
  0.127272562042E+03  0.337668204158E+02 -0.999146885953E+01
  0.129884734988E+03  0.321668772630E+02 -0.104415494210E+02
  0.174118688073E+03 -0.114739031032E+02  0.198313808654E+02
  0.175469995682E+03 -0.125083581192E+02  0.200862997556E+02
  0.170364350333E+03 -0.740268275173E+01  0.191703214432E+02
  0.171659688056E+03 -0.800489846224E+01  0.193749634239E+02
  0.173226572538E+03 -0.957179039333E+01  0.178045160635E+02
  0.174315773568E+03 -0.970295047421E+01  0.179233791503E+02
  0.177472826672E+03 -0.128600173724E+02  0.393307040308E+01
  0.177405543004E+03 -0.127338779903E+02  0.392907349058E+01
  0.169578113527E+03 -0.490644616160E+01 -0.242058055355E+02
  0.170382702135E+03 -0.615292243921E+01 -0.244903322233E+02
  0.114102646274E+03  0.501271533260E+02 -0.370834427842E+02
  0.114263888065E+03  0.499105622940E+02 -0.373024504615E+02