# vtk DataFile Version 3.0
TriPan results file. Generated by TriPan, USU AeroLab (c) 2021.
ASCII
DATASET POLYDATA
POINTS                 144 float
  0.000000000000E+00  0.000000000000E+00  0.000000000000E+00
  0.750993072987E+00  0.000000000000E+00 -0.543790996075E+00
  0.750993072987E+00  0.000000000000E+00  0.543790996075E+00
  0.192375373840E+01  0.192375373840E+01  0.000000000000E+00
  0.267474675179E+01  0.192375373840E+01 -0.543790996075E+00
  0.267474675179E+01  0.192375373840E+01  0.543790996075E+00
  0.359246444702E+01  0.000000000000E+00 -0.103884494305E+01
  0.359246444702E+01  0.000000000000E+00  0.103884494305E+01
  0.547033166885E+01  0.547033166885E+01  0.000000000000E+00
  0.551621818542E+01  0.192375373840E+01 -0.103884494305E+01
  0.551621818542E+01  0.192375373840E+01  0.103884494305E+01
  0.622132492065E+01  0.547033166885E+01 -0.543790996075E+00
  0.622132492065E+01  0.547033166885E+01  0.543790996075E+00
  0.906279659271E+01  0.547033166885E+01 -0.103884494305E+01
  0.906279659271E+01  0.547033166885E+01  0.103884494305E+01
  0.939523696899E+01  0.000000000000E+00 -0.980761349201E+00
  0.939523696899E+01  0.000000000000E+00  0.980761349201E+00
  0.113189907074E+02  0.192375373840E+01 -0.980761349201E+00
  0.113189907074E+02  0.192375373840E+01  0.980761349201E+00
  0.113820018768E+02  0.113820018768E+02  0.000000000000E+00
  0.121329956055E+02  0.113820018768E+02 -0.543790996075E+00
  0.121329956055E+02  0.113820018768E+02  0.543790996075E+00
  0.148655681610E+02  0.547033166885E+01 -0.980761349201E+00
  0.148655681610E+02  0.547033166885E+01  0.980761349201E+00
  0.149744663239E+02  0.113820018768E+02 -0.103884494305E+01
  0.149744663239E+02  0.113820018768E+02  0.103884494305E+01
  0.151765298843E+02  0.000000000000E+00 -0.411069482565E+00
  0.151765298843E+02  0.000000000000E+00  0.411069482565E+00
  0.171002845764E+02  0.192375373840E+01 -0.411069482565E+00
  0.171002845764E+02  0.192375373840E+01  0.411069482565E+00
  0.180493259430E+02  0.000000000000E+00 -0.101516798139E+00
  0.180493259430E+02  0.000000000000E+00  0.101516798139E+00
  0.190003013611E+02  0.000000000000E+00  0.000000000000E+00
  0.197561950684E+02  0.197561950684E+02  0.000000000000E+00
  0.199730796814E+02  0.192375373840E+01 -0.101516798139E+00
  0.199730796814E+02  0.192375373840E+01  0.101516798139E+00
  0.205071868896E+02  0.197561950684E+02 -0.543790996075E+00
  0.205071868896E+02  0.197561950684E+02  0.543790996075E+00
  0.206468620300E+02  0.547033166885E+01 -0.411069482565E+00
  0.206468620300E+02  0.547033166885E+01  0.411069482565E+00
  0.207772388458E+02  0.113820018768E+02 -0.980761349201E+00
  0.207772388458E+02  0.113820018768E+02  0.980761349201E+00
  0.209240550995E+02  0.192375373840E+01  0.000000000000E+00
  0.233486595154E+02  0.197561950684E+02 -0.103884494305E+01
  0.233486595154E+02  0.197561950684E+02  0.103884494305E+01
  0.235196590424E+02  0.547033166885E+01 -0.101516798139E+00
  0.235196590424E+02  0.547033166885E+01  0.101516798139E+00
  0.244706325531E+02  0.547033166885E+01  0.000000000000E+00
  0.265585327148E+02  0.113820018768E+02 -0.411069482565E+00
  0.265585327148E+02  0.113820018768E+02  0.411069482565E+00
  0.291514320374E+02  0.197561950684E+02 -0.980761349201E+00
  0.291514320374E+02  0.197561950684E+02  0.980761349201E+00
  0.292438049316E+02  0.292438049316E+02  0.000000000000E+00
  0.294313278198E+02  0.113820018768E+02 -0.101516798139E+00
  0.294313278198E+02  0.113820018768E+02  0.101516798139E+00
  0.299947986603E+02  0.292438049316E+02 -0.543790996075E+00
  0.299947986603E+02  0.292438049316E+02  0.543790996075E+00
  0.303823032379E+02  0.113820018768E+02  0.000000000000E+00
  0.328362693787E+02  0.292438049316E+02 -0.103884494305E+01
  0.328362693787E+02  0.292438049316E+02  0.103884494305E+01
  0.349327239990E+02  0.197561950684E+02 -0.411069482565E+00
  0.349327239990E+02  0.197561950684E+02  0.411069482565E+00
  0.376179962158E+02  0.376179962158E+02  0.000000000000E+00
  0.378055191040E+02  0.197561950684E+02 -0.101516798139E+00
  0.378055191040E+02  0.197561950684E+02  0.101516798139E+00
  0.383689918518E+02  0.376179962158E+02 -0.543790996075E+00
  0.383689918518E+02  0.376179962158E+02  0.543790996075E+00
  0.386390419006E+02  0.292438049316E+02 -0.980761349201E+00
  0.386390419006E+02  0.292438049316E+02  0.980761349201E+00
  0.387564964294E+02  0.197561950684E+02  0.000000000000E+00
  0.412104606628E+02  0.376179962158E+02 -0.103884494305E+01
  0.412104606628E+02  0.376179962158E+02  0.103884494305E+01
  0.435296669006E+02  0.435296669006E+02  0.000000000000E+00
  0.442806625366E+02  0.435296669006E+02 -0.543790996075E+00
  0.442806625366E+02  0.435296669006E+02  0.543790996075E+00
  0.444203338623E+02  0.292438049316E+02 -0.411069482565E+00
  0.444203338623E+02  0.292438049316E+02  0.411069482565E+00
  0.470132331848E+02  0.376179962158E+02 -0.980761349201E+00
  0.470132331848E+02  0.376179962158E+02  0.980761349201E+00
  0.470762481689E+02  0.470762481689E+02  0.000000000000E+00
  0.471221313477E+02  0.435296669006E+02 -0.103884494305E+01
  0.471221313477E+02  0.435296669006E+02  0.103884494305E+01
  0.472931327820E+02  0.292438049316E+02 -0.101516798139E+00
  0.472931327820E+02  0.292438049316E+02  0.101516798139E+00
  0.478272399902E+02  0.470762481689E+02 -0.543790996075E+00
  0.478272399902E+02  0.470762481689E+02  0.543790996075E+00
  0.482441062927E+02  0.292438049316E+02  0.000000000000E+00
  0.490000000000E+02  0.490000000000E+02  0.000000000000E+00
  0.497509918213E+02  0.490000000000E+02 -0.543790996075E+00
  0.497509918213E+02  0.490000000000E+02  0.543790996075E+00
  0.501355133057E+02  0.493845176697E+02 -0.384518325329E+00
  0.501355133057E+02  0.493845176697E+02  0.384518325329E+00
  0.502947845459E+02  0.495437927246E+02 -0.938680429840E-15
  0.506687088013E+02  0.470762481689E+02 -0.103884494305E+01
  0.506687088013E+02  0.470762481689E+02  0.103884494305E+01
  0.525924644470E+02  0.490000000000E+02 -0.103884494305E+01
  0.525924644470E+02  0.490000000000E+02  0.103884494305E+01
  0.527945289612E+02  0.376179962158E+02 -0.411069482565E+00
  0.527945289612E+02  0.376179962158E+02  0.411069482565E+00
  0.529249038696E+02  0.435296669006E+02 -0.980761349201E+00
  0.529249038696E+02  0.435296669006E+02  0.980761349201E+00
  0.533270378113E+02  0.497345733643E+02 -0.734574317932E+00
  0.533270378113E+02  0.497345733643E+02  0.734574317932E+00
  0.536313095093E+02  0.500388450623E+02 -0.204183803501E-15
  0.556673240662E+02  0.376179962158E+02 -0.101516798139E+00
  0.556673240662E+02  0.376179962158E+02  0.101516798139E+00
  0.564714813232E+02  0.470762481689E+02 -0.980761349201E+00
  0.564714813232E+02  0.470762481689E+02  0.980761349201E+00
  0.566182975769E+02  0.376179962158E+02  0.000000000000E+00
  0.583952369690E+02  0.490000000000E+02 -0.980761349201E+00
  0.583952369690E+02  0.490000000000E+02  0.980761349201E+00
  0.587061996460E+02  0.435296669006E+02 -0.411069482565E+00
  0.587061996460E+02  0.435296669006E+02  0.411069482565E+00
  0.590887413025E+02  0.496935043335E+02 -0.693503022194E+00
  0.590887413025E+02  0.496935043335E+02  0.693503022194E+00
  0.593759994507E+02  0.499807624817E+02  0.000000000000E+00
  0.615789947510E+02  0.435296669006E+02 -0.101516798139E+00
  0.615789947510E+02  0.435296669006E+02  0.101516798139E+00
  0.622527770996E+02  0.470762481689E+02 -0.411069482565E+00
  0.622527770996E+02  0.470762481689E+02  0.411069482565E+00
  0.625299682617E+02  0.435296669006E+02  0.000000000000E+00
  0.641765289307E+02  0.490000000000E+02 -0.411069482565E+00
  0.641765289307E+02  0.490000000000E+02  0.411069482565E+00
  0.644672012329E+02  0.492906684875E+02 -0.290670007467E+00
  0.644672012329E+02  0.492906684875E+02  0.290670007467E+00
  0.645876007080E+02  0.494110679626E+02  0.400788329721E-15
  0.651255722046E+02  0.470762481689E+02 -0.101516798139E+00
  0.651255722046E+02  0.470762481689E+02  0.101516798139E+00
  0.660765457153E+02  0.470762481689E+02  0.000000000000E+00
  0.670493240356E+02  0.490000000000E+02 -0.101516798139E+00
  0.670493240356E+02  0.490000000000E+02  0.101516798139E+00
  0.671211090088E+02  0.490717849731E+02 -0.717832148075E-01
  0.671211090088E+02  0.490717849731E+02  0.717832148075E-01
  0.671508407593E+02  0.491015167236E+02 -0.511051538462E-16
  0.680002975464E+02  0.490000000000E+02  0.000000000000E+00
  0.190003013611E+02  0.000000000000E+00  0.000000000000E+00
  0.209240550995E+02  0.192375373840E+01  0.000000000000E+00
  0.244706325531E+02  0.547033166885E+01  0.000000000000E+00
  0.303823032379E+02  0.113820018768E+02  0.000000000000E+00
  0.387564964294E+02  0.197561950684E+02  0.000000000000E+00
  0.482441062927E+02  0.292438049316E+02  0.000000000000E+00
  0.566182975769E+02  0.376179962158E+02  0.000000000000E+00
  0.625299682617E+02  0.435296669006E+02  0.000000000000E+00
  0.660765457153E+02  0.470762481689E+02  0.000000000000E+00
POLYGONS                 256                1024
3                 135                  34                 136
3                  32                  30                  34
3                  30                  28                  34
3                  30                  26                  28
3                  26                  17                  28
3                  26                  15                  17
3                  15                   6                  17
3                  17                   6                   9
3                   6                   1                   9
3                   9                   1                   4
3                   1                   0                   4
3                   4                   0                   3
3                   0                   5                   3
3                   0                   2                   5
3                   2                  10                   5
3                   2                   7                  10
[...]
CELL_DATA                 256
SCALARS sigma float 1
LOOKUP_TABLE default
  0.000000000000E+00
  0.000000000000E+00
  0.000000000000E+00
  0.000000000000E+00
  0.000000000000E+00
  0.000000000000E+00
  0.000000000000E+00
  0.000000000000E+00
  0.000000000000E+00
  0.000000000000E+00
  0.000000000000E+00
  0.000000000000E+00
  0.000000000000E+00
  0.000000000000E+00
  0.000000000000E+00
  0.000000000000E+00
  0.000000000000E+00
  0.000000000000E+00
  0.000000000000E+00
  0.000000000000E+00
  0.000000000000E+00
  0.000000000000E+00
  0.000000000000E+00
  0.000000000000E+00
  0.000000000000E+00
  0.000000000000E+00
  0.000000000000E+00
  0.000000000000E+00
  0.000000000000E+00
  0.000000000000E+00
  0.000000000000E+00
  0.000000000000E+00
  0.000000000000E+00
  0.000000000000E+00
  0.000000000000E+00
  0.000000000000E+00
  0.000000000000E+00
  0.000000000000E+00
  0.000000000000E+00
  0.000000000000E+00
  0.000000000000E+00
  0.000000000000E+00
  0.000000000000E+00
  0.000000000000E+00
  0.000000000000E+00
  0.000000000000E+00
  0.000000000000E+00
  0.000000000000E+00
  0.000000000000E+00
  0.000000000000E+00
  0.000000000000E+00
  0.000000000000E+00
  0.000000000000E+00
  0.000000000000E+00
  0.000000000000E+00
  0.000000000000E+00
  0.000000000000E+00
  0.000000000000E+00
  0.000000000000E+00
  0.000000000000E+00
  0.000000000000E+00
  0.000000000000E+00
  0.000000000000E+00
  0.000000000000E+00
  0.000000000000E+00
  0.000000000000E+00
  0.000000000000E+00
  0.000000000000E+00
  0.000000000000E+00
  0.000000000000E+00
  0.000000000000E+00
  0.000000000000E+00
  0.000000000000E+00
  0.000000000000E+00
  0.000000000000E+00
  0.000000000000E+00
  0.000000000000E+00
  0.000000000000E+00
  0.000000000000E+00
  0.000000000000E+00
  0.000000000000E+00
  0.000000000000E+00
  0.000000000000E+00
  0.000000000000E+00
  0.000000000000E+00
  0.000000000000E+00
  0.000000000000E+00
  0.000000000000E+00
  0.000000000000E+00
  0.000000000000E+00
  0.000000000000E+00
  0.000000000000E+00
  0.000000000000E+00
  0.000000000000E+00
  0.000000000000E+00
  0.000000000000E+00
  0.000000000000E+00
  0.000000000000E+00
  0.000000000000E+00
  0.000000000000E+00
  0.000000000000E+00
  0.000000000000E+00
  0.000000000000E+00
  0.000000000000E+00
  0.000000000000E+00
  0.000000000000E+00
  0.000000000000E+00
  0.000000000000E+00
  0.000000000000E+00
  0.000000000000E+00
  0.000000000000E+00
  0.000000000000E+00
  0.000000000000E+00
  0.000000000000E+00
  0.000000000000E+00
  0.000000000000E+00
  0.000000000000E+00
  0.000000000000E+00
  0.000000000000E+00
  0.000000000000E+00
  0.000000000000E+00
  0.000000000000E+00
  0.000000000000E+00
  0.000000000000E+00
  0.000000000000E+00
  0.000000000000E+00
  0.000000000000E+00
  0.000000000000E+00
  0.000000000000E+00
  0.000000000000E+00
  0.000000000000E+00
  0.000000000000E+00
  0.000000000000E+00
  0.000000000000E+00
  0.000000000000E+00
  0.000000000000E+00
  0.000000000000E+00
  0.000000000000E+00
  0.000000000000E+00
  0.000000000000E+00
  0.000000000000E+00
  0.000000000000E+00
  0.000000000000E+00
  0.000000000000E+00
  0.000000000000E+00
  0.000000000000E+00
  0.000000000000E+00
  0.000000000000E+00
  0.000000000000E+00
  0.000000000000E+00
  0.000000000000E+00
  0.000000000000E+00
  0.000000000000E+00
  0.000000000000E+00
  0.000000000000E+00
  0.000000000000E+00
  0.000000000000E+00
  0.000000000000E+00
  0.000000000000E+00
  0.000000000000E+00
  0.000000000000E+00
  0.000000000000E+00
  0.000000000000E+00
  0.000000000000E+00
  0.000000000000E+00
  0.000000000000E+00
  0.000000000000E+00
  0.000000000000E+00
  0.000000000000E+00
  0.000000000000E+00
  0.000000000000E+00
  0.000000000000E+00
  0.000000000000E+00
  0.000000000000E+00
  0.000000000000E+00
  0.000000000000E+00
  0.000000000000E+00
  0.000000000000E+00
  0.000000000000E+00
  0.000000000000E+00
  0.000000000000E+00
  0.000000000000E+00
  0.000000000000E+00
  0.000000000000E+00
  0.000000000000E+00
  0.000000000000E+00
  0.000000000000E+00
  0.000000000000E+00
  0.000000000000E+00
  0.000000000000E+00
  0.000000000000E+00
  0.000000000000E+00
  0.000000000000E+00
  0.000000000000E+00
  0.000000000000E+00
  0.000000000000E+00
  0.000000000000E+00
  0.000000000000E+00
  0.000000000000E+00
  0.000000000000E+00
  0.000000000000E+00
  0.000000000000E+00
  0.000000000000E+00
  0.000000000000E+00
  0.000000000000E+00
  0.000000000000E+00
  0.000000000000E+00
  0.000000000000E+00
  0.000000000000E+00
  0.000000000000E+00
  0.000000000000E+00
  0.000000000000E+00
  0.000000000000E+00
  0.000000000000E+00
  0.000000000000E+00
  0.000000000000E+00
  0.000000000000E+00
  0.000000000000E+00
  0.000000000000E+00
  0.000000000000E+00
  0.000000000000E+00
  0.000000000000E+00
  0.000000000000E+00
  0.000000000000E+00
  0.000000000000E+00
  0.000000000000E+00
  0.000000000000E+00
  0.000000000000E+00
  0.000000000000E+00
  0.000000000000E+00
  0.000000000000E+00
  0.000000000000E+00
  0.000000000000E+00
  0.000000000000E+00
  0.000000000000E+00
  0.000000000000E+00
  0.000000000000E+00
  0.000000000000E+00
  0.000000000000E+00
  0.000000000000E+00
  0.000000000000E+00
  0.000000000000E+00
  0.000000000000E+00
  0.000000000000E+00
  0.000000000000E+00
  0.000000000000E+00
  0.000000000000E+00
  0.000000000000E+00
  0.000000000000E+00
  0.000000000000E+00
  0.000000000000E+00
  0.000000000000E+00
  0.000000000000E+00
  0.000000000000E+00
  0.000000000000E+00
  0.000000000000E+00
SCALARS C_p_inc float 1
LOOKUP_TABLE default
 -0.277239287708E+00
 -0.698573661477E+00
 -0.169933873493E+00
 -0.170172968138E+00
 -0.165230469470E+00
 -0.176834780673E+00
 -0.127185127391E+00
 -0.158688404065E+00
  0.906160748527E-01
 -0.287414083034E-01
  0.518998952928E+00
  0.485905290530E+00
  0.266311160457E-01
  0.298990549175E+00
 -0.353324280872E+00
 -0.181715766331E+00
 -0.274329576910E+00
 -0.276090520215E+00
 -0.162966906204E+00
 -0.983269146047E-01
  0.756282808371E-01
  0.169942767449E+00
  0.505858772089E+00
  0.384763836530E+00
 -0.202363455503E+00
 -0.269078201537E+00
 -0.121214337548E+00
 -0.172279360308E+00
 -0.154629277673E+00
 -0.166621227551E+00
 -0.158380998129E+00
 -0.181108330662E+00
 -0.250027936208E-01
 -0.627601208755E-01
  0.416254433803E+00
  0.415050106629E+00
 -0.963560929498E-01
 -0.203390308405E-02
 -0.412317578665E+00
 -0.342279332093E+00
 -0.269864603455E+00
 -0.283192474238E+00
 -0.961875276419E-01
 -0.472067620118E-01
  0.163536625729E+00
  0.160263607846E+00
  0.376338818460E+00
  0.352682014775E+00
 -0.180614552472E+00
 -0.201239726188E+00
 -0.104064387621E+00
 -0.121090050347E+00
 -0.141104530556E+00
 -0.155811192831E+00
 -0.181904551191E+00
 -0.181631897540E+00
 -0.625632896498E-01
 -0.741430384308E-01
  0.409639228572E+00
  0.409571967287E+00
 -0.123936116868E+00
 -0.987091656737E-01
 -0.423848474242E+00
 -0.413128483405E+00
 -0.253578060989E+00
 -0.276512630411E+00
 -0.465008630912E-01
 -0.334006636050E-01
  0.158969038029E+00
  0.157260835302E+00
  0.351410317681E+00
  0.345859061536E+00
 -0.171755133790E+00
 -0.180186660915E+00
 -0.979496293995E-01
 -0.104028176760E+00
 -0.135762035061E+00
 -0.141301804304E+00
 -0.182977822925E+00
 -0.179225344099E+00
 -0.742933509516E-01
 -0.739630505552E-01
  0.412950130216E+00
  0.412332468061E+00
 -0.118119598872E+00
 -0.122780659254E+00
 -0.418358452661E+00
 -0.426409308153E+00
 -0.248208034750E+00
 -0.256259336491E+00
 -0.333320371651E-01
 -0.305191389977E-01
  0.157075871420E+00
  0.157088164532E+00
  0.345731456611E+00
  0.343945912734E+00
 -0.160803346194E+00
 -0.171340263102E+00
 -0.925072750858E-01
 -0.978719161242E-01
 -0.133100180437E+00
 -0.135681233127E+00
 -0.179575797487E+00
 -0.178768585124E+00
 -0.740383039979E-01
 -0.745100439805E-01
  0.413726270473E+00
  0.412767110288E+00
 -0.112431856807E+00
 -0.117586393513E+00
 -0.414556533844E+00
 -0.419178559727E+00
 -0.245769244841E+00
 -0.248723972007E+00
 -0.305006450428E-01
 -0.287590057927E-01
  0.157040984223E+00
  0.157669438831E+00
  0.343955028593E+00
  0.342218066072E+00
 -0.121064394992E+00
 -0.160368171118E+00
 -0.733565780666E-01
 -0.922379997265E-01
 -0.128427047203E+00
 -0.132634817468E+00
 -0.178245475332E+00
 -0.181834775554E+00
 -0.744229566590E-01
 -0.791647116698E-01
  0.411579767083E+00
  0.409272080176E+00
 -0.107307950867E+00
 -0.112650823002E+00
 -0.411004190942E+00
 -0.414301060507E+00
 -0.243054875879E+00
 -0.245627988581E+00
 -0.287213918383E-01
 -0.241247374287E-01
  0.157597633276E+00
  0.163906090277E+00
  0.342667028593E+00
  0.342646124536E+00
  0.121122276757E+00
 -0.120689234430E+00
 -0.570398016493E-02
 -0.726597695802E-01
 -0.117329725538E+00
 -0.126913207800E+00
 -0.179404458855E+00
 -0.195686039791E+00
 -0.788282904836E-01
 -0.963789575675E-01
  0.404093543211E+00
  0.398206443886E+00
 -0.101143493692E+00
 -0.108529181598E+00
 -0.409260365522E+00
 -0.409345094487E+00
 -0.240942590899E+00
 -0.241882479656E+00
 -0.240522222783E-01
 -0.137866519566E-01
  0.163144399335E+00
  0.195648796120E+00
  0.344932897531E+00
  0.429207999402E+00
 -0.230739133512E+02
 -0.946673170996E+00
  0.293616504709E+00
 -0.625428563007E-01
 -0.362531477981E+00
 -0.116075419617E+00
 -0.190592055311E+00
 -0.210677642498E+00
 -0.960894229902E-01
 -0.141198037898E+00
  0.382836685666E+00
  0.370657748833E+00
 -0.961099282125E-01
 -0.104867310053E+00
 -0.412266921581E+00
 -0.404371305202E+00
 -0.229311305589E+00
 -0.238685708183E+00
 -0.140482791705E-01
 -0.255482280587E+00
  0.109738003450E+00
  0.916145054709E-01
 -0.167474116603E+00
 -0.208756691958E+02
 -0.968255002089E+08
 -0.309549020385E+05
 -0.181548081378E+05
  0.480753618034E+00
 -0.121296356278E+01
 -0.356542216231E+00
 -0.211471701354E+00
 -0.236640790753E+00
 -0.145119002369E+00
 -0.147115300229E+00
  0.297131014294E+00
  0.265425721702E+00
 -0.121881887356E+00
 -0.116019669687E+00
 -0.319215159658E+00
 -0.408516675905E+00
 -0.238233797260E+00
 -0.225749476762E+00
 -0.251740414984E+00
 -0.133266808484E+01
  0.350198464256E+00
 -0.181412371806E+05
 -0.309915187507E+05
 -0.968269633572E+08
 -0.172099009527E+09
 -0.784957836458E+06
 -0.312554583963E+05
 -0.827877472500E+02
  0.101221475670E+00
 -0.282128423548E+00
 -0.276856417611E+00
 -0.188393860896E+00
 -0.190862905139E+00
  0.125980610152E-02
 -0.206789963976E+00
 -0.253054481957E+00
 -0.322924604834E+00
 -0.283259187596E+00
 -0.235094517143E+00
  0.464618231852E+00
 -0.875843769637E+02
 -0.313049251572E+05
 -0.784542850958E+06
 -0.172095512956E+09
 -0.118820281698E+09
 -0.112138648234E+07
 -0.327116807138E+05
 -0.106597291706E+03
  0.280267983082E+00
 -0.337900369155E+00
 -0.323098636389E+00
 -0.222811345058E+00
 -0.226048391165E+00
 -0.126041483978E+00
 -0.197769221797E+00
 -0.248105510163E+00
 -0.259593564927E+00
 -0.333085145012E+00
 -0.275009695889E+00
  0.731944822712E+00
 -0.115176285690E+03
 -0.327654319265E+05
 -0.112055244599E+07
 -0.118816759396E+09
SCALARS inclination float 1
LOOKUP_TABLE default
  0.100000000000E+01
  0.100000000000E+01
  0.100000000000E+01
  0.100000000000E+01
  0.100000000000E+01
  0.100000000000E+01
  0.100000000000E+01
  0.100000000000E+01
  0.100000000000E+01
  0.100000000000E+01
  0.100000000000E+01
  0.100000000000E+01
  0.100000000000E+01
  0.100000000000E+01
  0.100000000000E+01
  0.100000000000E+01
  0.100000000000E+01
  0.100000000000E+01
  0.100000000000E+01
  0.100000000000E+01
  0.100000000000E+01
  0.100000000000E+01
  0.100000000000E+01
  0.100000000000E+01
  0.100000000000E+01
  0.100000000000E+01
  0.100000000000E+01
  0.100000000000E+01
  0.100000000000E+01
  0.100000000000E+01
  0.100000000000E+01
  0.100000000000E+01
  0.100000000000E+01
  0.100000000000E+01
  0.100000000000E+01
  0.100000000000E+01
  0.100000000000E+01
  0.100000000000E+01
  0.100000000000E+01
  0.100000000000E+01
  0.100000000000E+01
  0.100000000000E+01
  0.100000000000E+01
  0.100000000000E+01
  0.100000000000E+01
  0.100000000000E+01
  0.100000000000E+01
  0.100000000000E+01
  0.100000000000E+01
  0.100000000000E+01
  0.100000000000E+01
  0.100000000000E+01
  0.100000000000E+01
  0.100000000000E+01
  0.100000000000E+01
  0.100000000000E+01
  0.100000000000E+01
  0.100000000000E+01
  0.100000000000E+01
  0.100000000000E+01
  0.100000000000E+01
  0.100000000000E+01
  0.100000000000E+01
  0.100000000000E+01
  0.100000000000E+01
  0.100000000000E+01
  0.100000000000E+01
  0.100000000000E+01
  0.100000000000E+01
  0.100000000000E+01
  0.100000000000E+01
  0.100000000000E+01
  0.100000000000E+01
  0.100000000000E+01
  0.100000000000E+01
  0.100000000000E+01
  0.100000000000E+01
  0.100000000000E+01
  0.100000000000E+01
  0.100000000000E+01
  0.100000000000E+01
  0.100000000000E+01
  0.100000000000E+01
  0.100000000000E+01
  0.100000000000E+01
  0.100000000000E+01
  0.100000000000E+01
  0.100000000000E+01
  0.100000000000E+01
  0.100000000000E+01
  0.100000000000E+01
  0.100000000000E+01
  0.100000000000E+01
  0.100000000000E+01
  0.100000000000E+01
  0.100000000000E+01
  0.100000000000E+01
  0.100000000000E+01
  0.100000000000E+01
  0.100000000000E+01
  0.100000000000E+01
  0.100000000000E+01
  0.100000000000E+01
  0.100000000000E+01
  0.100000000000E+01
  0.100000000000E+01
  0.100000000000E+01
  0.100000000000E+01
  0.100000000000E+01
  0.100000000000E+01
  0.100000000000E+01
  0.100000000000E+01
  0.100000000000E+01
  0.100000000000E+01
  0.100000000000E+01
  0.100000000000E+01
  0.100000000000E+01
  0.100000000000E+01
  0.100000000000E+01
  0.100000000000E+01
  0.100000000000E+01
  0.100000000000E+01
  0.100000000000E+01
  0.100000000000E+01
  0.100000000000E+01
  0.100000000000E+01
  0.100000000000E+01
  0.100000000000E+01
  0.100000000000E+01
  0.100000000000E+01
  0.100000000000E+01
  0.100000000000E+01
  0.100000000000E+01
  0.100000000000E+01
  0.100000000000E+01
  0.100000000000E+01
  0.100000000000E+01
  0.100000000000E+01
  0.100000000000E+01
  0.100000000000E+01
  0.100000000000E+01
  0.100000000000E+01
  0.100000000000E+01
  0.100000000000E+01
  0.100000000000E+01
  0.100000000000E+01
  0.100000000000E+01
  0.100000000000E+01
  0.100000000000E+01
  0.100000000000E+01
  0.100000000000E+01
  0.100000000000E+01
  0.100000000000E+01
  0.100000000000E+01
  0.100000000000E+01
  0.100000000000E+01
  0.100000000000E+01
  0.100000000000E+01
  0.100000000000E+01
  0.100000000000E+01
  0.100000000000E+01
  0.100000000000E+01
  0.100000000000E+01
  0.100000000000E+01
  0.100000000000E+01
  0.100000000000E+01
  0.100000000000E+01
  0.100000000000E+01
  0.100000000000E+01
  0.100000000000E+01
  0.100000000000E+01
  0.100000000000E+01
  0.100000000000E+01
  0.100000000000E+01
  0.100000000000E+01
  0.100000000000E+01
  0.100000000000E+01
  0.100000000000E+01
  0.100000000000E+01
  0.100000000000E+01
  0.100000000000E+01
  0.100000000000E+01
  0.100000000000E+01
  0.100000000000E+01
  0.100000000000E+01
  0.100000000000E+01
  0.100000000000E+01
  0.100000000000E+01
  0.100000000000E+01
  0.100000000000E+01
  0.100000000000E+01
  0.100000000000E+01
  0.100000000000E+01
  0.100000000000E+01
  0.100000000000E+01
  0.100000000000E+01
  0.100000000000E+01
  0.100000000000E+01
  0.100000000000E+01
  0.100000000000E+01
  0.100000000000E+01
  0.100000000000E+01
  0.100000000000E+01
  0.100000000000E+01
  0.100000000000E+01
  0.100000000000E+01
  0.100000000000E+01
  0.100000000000E+01
  0.100000000000E+01
  0.100000000000E+01
  0.100000000000E+01
  0.100000000000E+01
  0.100000000000E+01
  0.100000000000E+01
  0.100000000000E+01
  0.100000000000E+01
  0.100000000000E+01
  0.100000000000E+01
  0.100000000000E+01
  0.100000000000E+01
  0.100000000000E+01
  0.100000000000E+01
  0.100000000000E+01
  0.100000000000E+01
  0.100000000000E+01
  0.100000000000E+01
  0.100000000000E+01
  0.100000000000E+01
  0.100000000000E+01
  0.100000000000E+01
  0.100000000000E+01
  0.100000000000E+01
  0.100000000000E+01
  0.100000000000E+01
  0.100000000000E+01
  0.100000000000E+01
  0.100000000000E+01
  0.100000000000E+01
  0.100000000000E+01
  0.100000000000E+01
  0.100000000000E+01
  0.100000000000E+01
  0.100000000000E+01
  0.100000000000E+01
  0.100000000000E+01
  0.100000000000E+01
  0.100000000000E+01
  0.100000000000E+01
  0.100000000000E+01
  0.100000000000E+01
  0.100000000000E+01
  0.100000000000E+01
  0.100000000000E+01
  0.100000000000E+01
  0.100000000000E+01
  0.100000000000E+01
VECTORS v float
  0.181426765077E+03 -0.232762922164E+02  0.218520884454E+02
  0.207684712468E+03 -0.363052493352E+02  0.260459726181E+02
  0.175206090984E+03 -0.382662785157E+01  0.192913370742E+02
  0.175224311204E+03 -0.381748295334E+01  0.192923087679E+02
  0.175031259516E+03 -0.362443116972E+01  0.176048298602E+02
  0.175946561261E+03 -0.181514167554E+01  0.175167385299E+02
  0.173043449473E+03  0.108797011270E+01  0.172121036719E+01
  0.175271231823E+03 -0.786302905827E+01  0.183310581081E+01
  0.152869922422E+03  0.145382803421E+02 -0.241007620310E+02
  0.162249940148E+03 -0.102273510628E+02 -0.300497702036E+02
  0.932972823195E+02  0.587253046300E+02 -0.250334282027E+02
  0.100200610088E+03  0.448802525512E+02 -0.400572465948E+02
  0.133722819688E+03  0.113580429521E+02  0.886038387029E+02
  0.117676093163E+03  0.435407490462E+02  0.536810988083E+02
  0.184644209965E+03 -0.234273656809E+02  0.362511666309E+02
  0.174625384477E+03  0.302488057425E+01  0.298970130532E+02
  0.183888880563E+03 -0.623861551246E+01 -0.190310549307E+01
  0.184000274050E+03 -0.668618302650E+01 -0.190870048471E+01
  0.174940189209E+03  0.237390181517E+01 -0.170047793502E+02
  0.169742789928E+03 -0.789986477754E+01 -0.175050049483E+02
  0.155764357428E+03  0.607857465216E+01 -0.161291069742E+02
  0.147659883934E+03  0.201042836074E+01 -0.156941857355E+02
  0.105537513823E+03  0.441327984721E+02 -0.655496448639E+01
  0.122404476766E+03  0.357459960947E+02 -0.925080850872E+01
  0.176929979791E+03 -0.149006276699E+02  0.204779929535E+02
  0.181473424616E+03 -0.181989794416E+02  0.213150660848E+02
  0.171321989403E+03 -0.804754013469E+01  0.193276170011E+02
  0.175149786176E+03 -0.873230734401E+01  0.198138722823E+02
  0.174063946764E+03 -0.764646807777E+01  0.179058437745E+02
  0.174998293773E+03 -0.705234605147E+01  0.179393697386E+02
  0.175271285690E+03 -0.732533793239E+01  0.182772425204E+01
  0.176776095764E+03 -0.112931565125E+02  0.188250356306E+01
  0.162635133603E+03  0.284780755054E+01 -0.278388673252E+02
  0.165454175016E+03 -0.242664124347E+01 -0.292489492712E+02
  0.104793783343E+03  0.582337545075E+02 -0.337139252665E+02
  0.104994954624E+03  0.579344174669E+02 -0.340763333296E+02
  0.143673431020E+03  0.192559410714E+02  0.900901714176E+02
  0.138888463448E+03  0.263758622917E+02  0.814699170279E+02
  0.188702133345E+03 -0.234378109540E+02  0.369599734352E+02
  0.184855905437E+03 -0.162414880992E+02  0.350360937292E+02
  0.183099187910E+03 -0.144847703356E+02 -0.197774224952E+01
  0.183887846113E+03 -0.165642704082E+02 -0.200645107984E+01
  0.169794994542E+03 -0.247142073237E+01 -0.169752269493E+02
  0.165877071154E+03 -0.496270562032E+01 -0.168346451766E+02
  0.147787472845E+03  0.131268902565E+02 -0.145101003898E+02
  0.148082382478E+03  0.130741319150E+02 -0.145475522874E+02
  0.122437969375E+03  0.387185553611E+02 -0.893706094353E+01
  0.125630267988E+03  0.363990772363E+02 -0.952546540372E+01
  0.175492362916E+03 -0.128773714226E+02  0.201085033723E+02
  0.176923814607E+03 -0.140712173325E+02  0.203887947867E+02
  0.170050857865E+03 -0.719826225402E+01  0.190991485297E+02
  0.171324347618E+03 -0.784207795910E+01  0.193057316451E+02
  0.172932644377E+03 -0.945037484824E+01  0.179721227555E+02
  0.174046465583E+03 -0.946423069743E+01  0.180832446707E+02
  0.176776005538E+03 -0.121937708734E+02  0.189151747071E+01
  0.176757981229E+03 -0.121580489900E+02  0.189097916082E+01
  0.165499172148E+03 -0.899240816899E+00 -0.289906782753E+02
  0.166348769506E+03 -0.218840611769E+01 -0.293633130026E+02
  0.105310010069E+03  0.588503582436E+02 -0.336412313976E+02
  0.105320456117E+03  0.588370013912E+02 -0.336584490394E+02