# vtk DataFile Version 3.0
TriPan results file. Generated by TriPan, USU AeroLab (c) 2021.
ASCII
DATASET POLYDATA
POINTS                  40 float
  0.190000000000E+02  0.000000000000E+00  0.000000000000E+00
  0.997324668508E+04  0.000000000000E+00  0.730994182505E+03
  0.197579002380E+02  0.757896304131E+00  0.000000000000E+00
  0.997325075033E+04  0.757896304131E+00  0.730938824324E+03
  0.207889842987E+02  0.178897356987E+01  0.000000000000E+00
  0.997325628090E+04  0.178897356987E+01  0.730863512383E+03
  0.221728172302E+02  0.317279767990E+01  0.000000000000E+00
  0.997326370354E+04  0.317279767990E+01  0.730762435130E+03
  0.239966468811E+02  0.499661636353E+01  0.000000000000E+00
  0.997327348626E+04  0.499661636353E+01  0.730629219850E+03
  0.263436698914E+02  0.734362459183E+01  0.000000000000E+00
  0.997328607530E+04  0.734362459183E+01  0.730457789736E+03
  0.292729015350E+02  0.102728376389E+02  0.000000000000E+00
  0.997330178722E+04  0.102728376389E+02  0.730243834221E+03
  0.327922058105E+02  0.137921218872E+02  0.000000000000E+00
  0.997332066418E+04  0.137921218872E+02  0.729986778907E+03
  0.368321151733E+02  0.178320064545E+02  0.000000000000E+00
  0.997334233358E+04  0.178320064545E+02  0.729691697810E+03
  0.412340698242E+02  0.222339305878E+02  0.000000000000E+00
  0.997336594493E+04  0.222339305878E+02  0.729370172376E+03
  0.457662315369E+02  0.267660694122E+02  0.000000000000E+00
  0.997339025469E+04  0.267660694122E+02  0.729039136422E+03
  0.501681861877E+02  0.311679935455E+02  0.000000000000E+00
  0.997341386604E+04  0.311679935455E+02  0.728717610988E+03
  0.542080955505E+02  0.352078781128E+02  0.000000000000E+00
  0.997343553544E+04  0.352078781128E+02  0.728422529891E+03
  0.577274017334E+02  0.387271614075E+02  0.000000000000E+00
  0.997345441242E+04  0.387271614075E+02  0.728165474438E+03
  0.606566314697E+02  0.416563758850E+02  0.000000000000E+00
  0.997347012432E+04  0.416563758850E+02  0.727951519063E+03
  0.630036544800E+02  0.440033836365E+02  0.000000000000E+00
  0.997348271336E+04  0.440033836365E+02  0.727780088948E+03
  0.648274841309E+02  0.458272018433E+02  0.000000000000E+00
  0.997349249608E+04  0.458272018433E+02  0.727646873668E+03
  0.662113189697E+02  0.472110252380E+02  0.000000000000E+00
  0.997349991874E+04  0.472110252380E+02  0.727545796276E+03
  0.672424011230E+02  0.482421035767E+02  0.000000000000E+00
  0.997350544929E+04  0.482421035767E+02  0.727470484474E+03
  0.680002975464E+02  0.490000000000E+02  0.000000000000E+00
  0.997350951452E+04  0.490000000000E+02  0.727415126572E+03
POLYGONS                  38                 152
3                   0                   1                   3
3                   0                   3                   2
3                   2                   3                   5
3                   2                   5                   4
3                   4                   5                   7
3                   4                   7                   6
3                   6                   7                   9
3                   6                   9                   8
3                   8                   9                  11
3                   8                  11                  10
3                  10                  11                  13
3                  10                  13                  12
3                  12                  13                  15
3                  12                  15                  14
3                  14                  15                  17
3                  14                  17                  16
3                  16                  17                  19
3                  16                  19                  18
3                  18                  19                  21
3                  18                  21                  20
3                  20                  21                  23
3                  20                  23                  22
3                  22                  23                  25
3                  22                  25                  24
3                  24                  25                  27
3                  24                  27                  26
3                  26                  27                  29
3                  26                  29                  28
3                  28                  29                  31
3                  28                  31                  30
3                  30                  31                  33
3                  30                  33                  32
3                  32                  33                  35
3                  32                  35                  34
3                  34                  35                  37
3                  34                  37                  36
3                  36                  37                  39
3                  36                  39                  38
POINT_DATA                  40
SCALARS mu float 1
LOOKUP_TABLE default
 -0.151404742701E-03
 -0.151404742701E-03
 -0.313362244976E-04
 -0.313362244976E-04
 -0.358612475659E-04
 -0.358612475659E-04
 -0.429982460143E-04
 -0.429982460143E-04
 -0.519848482543E-04
 -0.519848482543E-04
 -0.622309607778E-04
 -0.622309607778E-04
 -0.728091048011E-04
 -0.728091048011E-04
 -0.823673454334E-04
 -0.823673454334E-04
 -0.893076031169E-04
 -0.893076031169E-04
 -0.921850053990E-04
 -0.921850053990E-04
 -0.901629773734E-04
 -0.901629773734E-04
 -0.832716022957E-04
 -0.832716022957E-04
 -0.723689057225E-04
 -0.723689057225E-04
 -0.589346672054E-04
 -0.589346672054E-04
 -0.448074931776E-04
 -0.448074931776E-04
 -0.317031163812E-04
 -0.317031163812E-04
 -0.206822998909E-04
 -0.206822998909E-04
 -0.119256420270E-04
 -0.119256420270E-04
 -0.147927326444E-06
 -0.147927326444E-06
  0.000000000000E+00
  0.000000000000E+00
