# vtk DataFile Version 3.0
MachLine results file. Generated by MachLine, USU AeroLab (c) 2022.
ASCII
DATASET POLYDATA
POINTS                 125 float
  0.351628566844E+00 -0.239546605051E+00 -0.904972250949E+00
 -0.170593432314E+00  0.265885752206E+00 -0.948790096715E+00
 -0.711812726957E+00 -0.604056331099E+00 -0.358383301230E+00
  0.474479498617E+00 -0.853677029058E+00 -0.214720132850E+00
  0.587303226561E+00 -0.178729709249E+00  0.789386224293E+00
 -0.734579773010E+00  0.388547549467E+00  0.556258356240E+00
 -0.808756796379E+00 -0.287991078880E+00 -0.512809499518E+00
  0.527488607659E+00 -0.848298690134E+00 -0.463152362290E-01
  0.970707292229E+00 -0.450409969398E-01 -0.236005638509E+00
  0.227925640365E+00  0.142956432862E+00 -0.963126866393E+00
  0.698941205560E+00 -0.545811895327E+00  0.462136955988E+00
 -0.471750150546E-01 -0.371119094067E+00  0.927386184916E+00
  0.265851860374E+00 -0.945005293589E+00 -0.190493525936E+00
 -0.748955903623E+00  0.595377833155E+00 -0.290844099504E+00
 -0.549793831717E+00 -0.815374093666E+00  0.181361048696E+00
 -0.614052007470E-01 -0.287782179953E+00 -0.955725283867E+00
 -0.705092967419E+00  0.573283950585E+00  0.417360059539E+00
 -0.653445020357E-01 -0.536136339183E+00 -0.841598432663E+00
  0.250788170719E+00 -0.107580513833E+00  0.962045594798E+00
  0.110103063374E-01 -0.868080408127E+00  0.496301499273E+00
  0.420961531228E+00  0.520090564899E+00  0.743167002449E+00
 -0.588879621551E+00  0.698120849646E+00 -0.407244485060E+00
  0.303097276399E+00 -0.685374514805E+00  0.662113144029E+00
  0.524684315627E+00 -0.488134382976E+00 -0.697446193689E+00
  0.589532500894E+00 -0.490443932164E+00 -0.641806964588E+00
 -0.592455782893E+00 -0.726673000652E+00  0.347767875802E+00
 -0.486343065145E+00  0.805906368051E+00  0.337617163250E+00
  0.760408352275E+00  0.273338792622E+00  0.589122264253E+00
  0.702732749801E+00 -0.370257404452E+00  0.607516367521E+00
  0.152776589455E+00  0.271487028778E+00  0.950238973585E+00
  0.761102824864E+00  0.583776903033E+00  0.282713666929E+00
 -0.535955910654E+00 -0.564644880592E+00  0.627636376142E+00
  0.940321164658E+00  0.244305371783E+00  0.236877589934E+00
  0.356405139430E+00  0.888377830171E+00  0.289413557817E+00
 -0.671823092717E+00 -0.584982327720E+00  0.454367041441E+00
 -0.322602151262E+00 -0.186932930144E+00 -0.927892198280E+00
 -0.597261472166E+00 -0.309859809128E-01  0.801447816675E+00
  0.445549829148E+00  0.181330625497E+00  0.876700949014E+00
  0.884981399614E+00 -0.206722418266E+00 -0.417221480898E+00
  0.575429318263E+00  0.710767758727E-01  0.814757136584E+00
 -0.178771679530E+00  0.387032789793E+00  0.904569680137E+00
  0.415865146363E+00 -0.553546104288E+00 -0.721555881736E+00
  0.912105598038E+00  0.400128532101E+00 -0.892218349222E-01
 -0.405812641218E+00 -0.875057631308E+00 -0.263799624939E+00
  0.298045219575E+00 -0.123226139237E+00 -0.946564506886E+00
 -0.223982032381E+00  0.957652672918E+00  0.180923760802E+00
 -0.143700983770E+00  0.879614228682E+00  0.453463158331E+00
  0.993909065940E+00  0.156522957155E-01 -0.109086086564E+00
  0.432996711290E+00  0.342596470651E+00 -0.833751465551E+00
  0.392074967693E+00  0.216652823513E+00  0.894057477891E+00
 -0.777454424753E+00  0.499643066765E+00  0.381996627296E+00
 -0.564453734992E+00  0.825172443357E+00  0.219640565096E-01
 -0.692134339955E+00 -0.645055182331E+00 -0.323811468609E+00
 -0.254817677951E-01  0.883530828474E+00  0.467679328863E+00
  0.842149989580E+00 -0.538379486914E+00  0.305110327780E-01
 -0.725022751256E+00  0.653149209248E+00 -0.218490550413E+00
  0.440059887313E+00  0.553500387118E+00 -0.707095903706E+00
 -0.789113762680E+00 -0.594691349550E+00 -0.153758473977E+00
 -0.986092963088E+00  0.163698356662E+00 -0.286969715171E-01
  0.496902195869E+00 -0.842984794748E+00  0.206069996758E+00
  0.978971441213E+00 -0.251347436022E-01 -0.202442984451E+00
  0.841248414737E+00  0.144998925799E+00  0.520842026165E+00
  0.717244501555E+00  0.690910127474E+00 -0.905732893529E-01
  0.143802300411E+00  0.551306256301E+00 -0.821816469876E+00
 -0.863251399283E+00 -0.418645737818E+00  0.282015545392E+00
  0.876985283084E+00  0.334836710552E+00 -0.344646471796E+00
  0.566331346760E+00  0.734660755121E+00 -0.373553718442E+00
 -0.295160793146E+00  0.950498658126E+00  0.971205801599E-01
  0.787977484473E+00  0.179536919345E+00 -0.588946498890E+00
  0.371988050478E+00  0.642703150930E+00 -0.669744391605E+00
 -0.347818248270E+00 -0.934699881324E+00 -0.732024454675E-01
 -0.236580395527E+00  0.897645315090E+00 -0.371836798542E+00
 -0.840609885725E+00 -0.434698936170E+00  0.323128232926E+00
 -0.713816199142E+00  0.509293132445E+00  0.480715028979E+00
  0.364815571124E-01  0.654241186540E+00 -0.755405563804E+00
  0.486289931968E-01 -0.231431060931E-01  0.998548755776E+00
 -0.224558283353E+00  0.735827503114E+00  0.638851675304E+00
 -0.530422291135E-02 -0.721323749877E-02  0.999959916409E+00
  0.825474991856E+00  0.559303872870E+00 -0.759619352959E-01
 -0.710420454571E+00 -0.686468785288E+00  0.155123771719E+00
 -0.202849527341E+00 -0.261543244188E+00  0.943635099325E+00
 -0.650876513648E+00  0.733507105611E+00  0.195773057392E+00
  0.875338119242E+00  0.618119010844E-01  0.479544018716E+00
 -0.141614833571E+00  0.751135913204E+00  0.644779093030E+00
  0.881503719814E+00 -0.472036160297E+00 -0.115349609960E-01
 -0.537106673681E+00  0.842992158808E+00 -0.296756006917E-01
 -0.570177917937E+00 -0.808133666591E+00  0.147706190864E+00
 -0.751165150884E+00  0.227466924004E+00 -0.619685173763E+00
  0.956939250891E+00 -0.273830570533E+00 -0.963539762845E-01
 -0.652896513069E+00 -0.537239321893E+00  0.533947613755E+00
  0.112365433514E+00  0.557416153844E+00 -0.822594213926E+00
 -0.969964919879E+00 -0.147406905861E+00 -0.193492269376E+00
  0.978040542605E+00 -0.163177628618E+00  0.129652452884E+00
 -0.302983367769E+00 -0.592353020141E+00 -0.746537995272E+00
 -0.510761711862E+00 -0.504124467801E+00  0.696405768687E+00
  0.515016769843E+00  0.846195012418E+00 -0.136790817456E+00
 -0.852105303920E+00  0.123171885173E+00 -0.508670067661E+00
  0.824733923922E+00  0.550881079072E+00  0.127843621088E+00
 -0.759537898608E+00 -0.161509241698E+00  0.630092806993E+00
  0.791303160364E+00  0.348221801291E+00  0.502574258695E+00
 -0.406898161192E+00  0.909429605919E+00  0.858584783044E-01
  0.914101277080E-01 -0.847769589128E+00  0.522427901536E+00
 -0.636490522315E+00 -0.487037547148E+00 -0.598058728447E+00
 -0.595945897895E+00  0.677142110810E+00  0.431656169363E+00
 -0.759991061500E+00  0.629964810982E+00  0.159868456437E+00
  0.574840363652E+00  0.717136563871E+00  0.394047846175E+00
 -0.506107911780E-01  0.600777435323E+00  0.797812647821E+00
  0.301612327572E+00 -0.634877776605E+00 -0.711308802581E+00
 -0.788157593781E+00  0.386483619407E+00 -0.478996888607E+00
 -0.507768613428E+00  0.858911442530E+00 -0.666495994631E-01
  0.799122564198E+00 -0.578759223826E+00  0.162606544227E+00
 -0.510629793756E+00 -0.473944543097E+00 -0.717379804425E+00
 -0.568906586957E+00  0.253652323789E+00 -0.782307991748E+00
  0.992823798299E+00 -0.111843581564E+00 -0.423310618074E-01
 -0.160405138869E-01  0.999870466338E+00  0.132380516859E-02
 -0.376855915890E+00  0.191324783633E+00 -0.906297106818E+00
  0.163861220661E-01  0.426007215667E+00  0.904571361034E+00
 -0.451694496530E+00  0.165586578336E+00 -0.876671641426E+00
  0.684969112679E+00 -0.679568039505E+00 -0.262687255797E+00
  0.461584413779E+00 -0.352303678081E+00  0.814138776479E+00
 -0.475881689368E+00  0.872487267082E+00  0.110917025314E+00
  0.852942945536E+00 -0.428892440583E+00 -0.297556055341E+00
  0.715857317315E+00 -0.391624303391E-01 -0.697147477437E+00
  0.775661534350E+00  0.187230749848E+00  0.602738608719E+00
 -0.130485514363E+00 -0.901455030471E+00 -0.412737638918E+00
POLYGONS                 246                 984
3                  98                  72                  89
3                  10                  22                  59
3                  59                  22                 101
3                 101                  22                  11
3                  34                  89                  72
3                  25                  31                  34
3                  34                  31                  89
3                   1                  15                  35
3                  48                 122                  44
3                  93                  43                 102
3                  10                  92                  28
3                  28                  22                  10
3                  47                  92                 113
3                 118                   3                  24
3                  23                 122                  24
3                 122                  38                  24
3                  71                  74                  21
3                  77                  11                  75
3                  18                  75                  11
3                  19                  31                  25
3                 101                  11                  19
3                  19                  70                  12
3                  12                  59                  19
3                  19                  59                 101
3                  77                  36                  80
3                  80                  11                  77
3                  98                  36                   5
3                  58                  98                   5
3                   5                  50                  58
3                 114                  71                  67
3                  25                  34                  79
3                  79                  34                  72
3                  91                  57                  64
3                  58                  91                  64
3                  64                  79                  72
[...]
CELL_DATA                 246
NORMALS normals float
 -0.777388454014E+00 -0.353737781622E+00  0.520131496276E+00
  0.493720238748E+00 -0.735486851407E+00  0.464003682376E+00
  0.349356324638E+00 -0.829769941951E+00  0.435237868148E+00
 -0.504549860974E-02 -0.648311084450E+00  0.761358838343E+00
 -0.762776210582E+00 -0.458210800677E+00  0.456306163352E+00
 -0.537577818695E+00 -0.678141954761E+00  0.501132295947E+00
 -0.565902654023E+00 -0.640664730406E+00  0.518944013727E+00
 -0.109441383177E+00 -0.913268141703E-02 -0.993951295476E+00
  0.502106193449E+00  0.634120893326E-01 -0.862477986633E+00
 -0.458941119630E+00 -0.720578122931E+00 -0.519750149078E+00
  0.874155948913E+00 -0.320809772260E+00  0.364599049646E+00
  0.522880614800E+00 -0.550343396367E+00  0.650936255513E+00
  0.994227507427E+00  0.430039333579E-01  0.982971270772E-01
  0.489210785894E+00 -0.725000255293E+00 -0.484816910587E+00
  0.622513608929E+00 -0.264577288602E+00 -0.736529473310E+00
  0.737281623077E+00 -0.281685245433E+00 -0.614059631289E+00
 -0.319278536840E+00  0.680744184152E+00 -0.659278826944E+00
 -0.310582418478E-01 -0.192046173559E+00  0.980894312775E+00
  0.829147124605E-01 -0.221528823569E+00  0.971622421924E+00
 -0.314316993685E+00 -0.792676023846E+00  0.522369168980E+00
 -0.769500828869E-01 -0.658447518439E+00  0.748682543008E+00
  0.493491837776E-02 -0.993569477667E+00  0.113116486994E+00
  0.148525619929E+00 -0.975158525238E+00  0.164334995909E+00
  0.174903895720E+00 -0.962009637784E+00  0.209633213189E+00
 -0.319091932582E+00  0.381314411184E-01  0.946956351560E+00
 -0.326632361109E-01 -0.191858433950E+00  0.980878919301E+00
 -0.764770420628E+00  0.119680512655E+00  0.633089866151E+00
 -0.927079121056E+00  0.908823054420E-01  0.363682154992E+00
 -0.927453207678E+00  0.166932968730E+00  0.334610118674E+00
 -0.217671940059E+00  0.966483837466E+00 -0.136117296579E+00
 -0.713953392289E+00 -0.629923940931E+00  0.305722721238E+00
 -0.753240141950E+00 -0.587222875284E+00  0.296308257224E+00
 -0.926880916201E+00 -0.375306416885E+00 -0.607129538373E-02
 -0.980779117752E+00 -0.128584516654E+00  0.146759477574E+00
 -0.798337984593E+00 -0.560228659447E+00  0.220907925368E+00
 -0.853468532224E+00 -0.517230126689E+00  0.637531218711E-01
 -0.950298597399E+00 -0.354206871007E-01  0.309318526292E+00
 -0.889190764857E+00 -0.199033809499E+00  0.411977337203E+00
  0.480874725054E+00  0.723056228601E-01 -0.873802835717E+00
 -0.341706967412E-01  0.577960731769E-02 -0.999399299391E+00
  0.480478398106E-01 -0.494167503270E-01 -0.997621867180E+00
  0.148558262336E+00 -0.271570065357E+00 -0.950883874242E+00
  0.578908133821E+00 -0.245982809445E+00 -0.777404547230E+00
  0.521022974199E+00 -0.643194663404E-01 -0.851115777439E+00
 -0.466726776006E+00 -0.678897647576E+00 -0.566801641384E+00
 -0.345789097140E+00 -0.397035681376E+00 -0.850172081413E+00
 -0.248828966907E+00 -0.401160459975E+00 -0.881563628209E+00
 -0.255356205482E+00 -0.405064758897E+00 -0.877904180091E+00
  0.158514063318E+00 -0.414350651107E+00 -0.896206912302E+00
 -0.359127728234E+00 -0.769973745707E+00 -0.527416065110E+00
 -0.401178299724E-01 -0.991623758072E+00 -0.122771666707E+00
 -0.215984452586E+00 -0.948645285924E+00 -0.231133809156E+00
 -0.834513809166E-01 -0.752301377558E+00 -0.653512436260E+00
 -0.956578698556E+00  0.961618378572E-01 -0.275154673607E+00
 -0.925198723478E+00  0.256236886831E+00 -0.279910664144E+00
  0.599781033152E+00 -0.330499317990E+00  0.728720051240E+00
  0.520837013713E+00 -0.546979159913E+00  0.655394998278E+00
  0.419452604066E+00 -0.176833704628E+00  0.890387193220E+00
  0.206975337043E+00 -0.486035623774E+00  0.849076311222E+00
  0.215246812962E+00 -0.362613884236E+00  0.906741407717E+00
  0.652596039385E+00 -0.697905791472E+00  0.295035448056E+00
  0.875818544834E+00 -0.350773539034E+00  0.331511388701E+00
  0.905728603147E+00 -0.374144093116E+00  0.199178048557E+00
  0.974924931693E+00 -0.221837923596E+00  0.175873027415E-01
  0.942054616172E+00 -0.327550628325E+00  0.724133001176E-01
 -0.319884562316E+00  0.875143161007E-01  0.943406122129E+00
 -0.504883520547E+00  0.306375426016E+00  0.806986201253E+00
  0.295649106002E+00  0.402639181073E+00  0.866298618252E+00
 -0.615819822741E-01  0.209044781642E+00  0.975965131922E+00
  0.667406240792E-01  0.138427936766E+00  0.988121144101E+00
  0.247940175096E+00  0.941384804299E-01  0.964190653385E+00
  0.211308573556E+00  0.849638181945E-01  0.973719588146E+00
  0.773095319805E+00 -0.124635839944E+00  0.621924057983E+00
  0.882953876005E+00 -0.231814683000E+00  0.408233273500E+00
  0.750697675735E+00 -0.504202057028E-01  0.658719061895E+00
  0.783707580004E+00  0.128678149654E-01  0.620996657303E+00
  0.958945337113E+00  0.213665070181E+00 -0.186470046427E+00
 -0.157454877828E+00  0.986282823060E+00  0.495394225266E-01
  0.200863130509E+00  0.736419093740E+00  0.646019288549E+00
  0.122804574957E-01  0.970132809836E+00  0.242263331200E+00
  0.612889020161E+00  0.178694784189E+00 -0.769698137630E+00
  0.850328325324E+00 -0.202420310299E-01 -0.525863099420E+00
  0.712363413950E+00 -0.539740069168E+00 -0.448574435518E+00
  0.764185301920E+00 -0.387802371906E+00 -0.515393194244E+00
  0.808396434956E+00 -0.564772394369E+00 -0.165913671855E+00
  0.900553360937E+00 -0.407532042997E+00 -0.151397747791E+00
  0.923950013008E+00 -0.275928580650E+00 -0.264914687858E+00
 -0.448988343182E+00  0.844555533883E+00 -0.291779742057E+00
 -0.296285902995E+00  0.944267686147E+00 -0.143433610377E+00
  0.173721561360E+00  0.918824182374E+00 -0.354376834744E+00
  0.182698134033E+00  0.904096261688E+00 -0.386304726121E+00
  0.625238337158E+00  0.749495701370E+00 -0.217561980536E+00
  0.585305225696E+00  0.800538989466E+00  0.128666697784E+00
  0.146096983163E+00  0.879039245806E+00 -0.453812379562E+00
  0.181653543894E+00  0.899076914536E+00 -0.398324857045E+00
 -0.299701819755E+00 -0.871662128252E+00  0.387793699546E+00
 -0.231912304682E+00 -0.938472564153E+00  0.255902186919E+00
 -0.631563680810E+00 -0.739684945543E+00  0.232365011177E+00
 -0.176884373801E+00 -0.656668360723E+00  0.733142948087E+00
 -0.218303364461E+00 -0.691537283881E+00  0.688563596240E+00
 -0.266587426725E+00 -0.500850632672E+00  0.823456002264E+00
 -0.463076457536E+00 -0.271941871027E+00  0.843568499446E+00
 -0.583908157386E+00 -0.276229641575E+00  0.763379623027E+00
 -0.665878108619E+00 -0.356671425754E+00  0.655279969564E+00
 -0.617476956713E+00 -0.464371421026E+00  0.634886912185E+00
 -0.779931302427E+00  0.422817453803E+00  0.461446166150E+00
 -0.912073307805E+00  0.380904580577E+00  0.151769501829E+00
 -0.765055533428E+00 -0.588214844444E+00 -0.262094119636E+00
 -0.471095363721E+00 -0.719567050866E+00 -0.510188609819E+00
 -0.536580522853E+00 -0.679485391251E+00 -0.500380800562E+00
  0.188328148391E+00 -0.451166754178E+00 -0.872342288582E+00
  0.241502597661E-01 -0.762835314295E+00 -0.646141662654E+00
  0.183385150436E+00 -0.850119914684E+00 -0.493625381496E+00
  0.307209239799E+00 -0.826781863002E+00 -0.471226308680E+00
 -0.904542914169E+00 -0.911716955202E-01 -0.416521113946E+00
 -0.758811037714E+00 -0.458673351122E+00 -0.462411684557E+00
 -0.650656535980E+00 -0.257091943791E+00 -0.714527679397E+00
 -0.881889765511E+00 -0.381217048680E+00 -0.277387821080E+00
 -0.858280406816E+00 -0.412446958912E+00 -0.305355938799E+00
 -0.622737676262E+00 -0.154600486161E+00 -0.767004873676E+00
 -0.630227724313E+00 -0.119317697164E+00 -0.767187267002E+00
  0.662946863879E+00 -0.742489227314E+00  0.959750123491E-01
  0.605832264573E+00 -0.778114134420E+00 -0.165848307251E+00
  0.317623163691E+00 -0.946415733056E+00  0.584190560649E-01
  0.390122320807E+00 -0.915998828588E+00 -0.935452876093E-01
  0.803803366544E+00 -0.574552749229E+00 -0.154237758953E+00
  0.890106101804E+00 -0.426962766421E+00  0.159417450806E+00
  0.705887165149E+00 -0.707314169354E+00 -0.378150222738E-01
  0.700441662742E+00 -0.713639527805E+00  0.100050711852E-01
  0.942914319643E+00 -0.213008112646E+00 -0.256008065810E+00
  0.972991518709E+00 -0.160075127874E+00 -0.166323353608E+00
  0.894430055346E+00  0.261424528386E-01 -0.446443107521E+00
  0.909457824462E+00  0.109676288312E+00 -0.401070539065E+00
 -0.459065456278E+00  0.499455446249E+00  0.734712980738E+00
 -0.474138285020E+00  0.536910722522E+00  0.697796361928E+00
 -0.471907038982E+00  0.524512411475E+00  0.708653989453E+00
 -0.280335532943E+00  0.558143869048E+00  0.780952886167E+00
 -0.980880537854E-01  0.491121898753E+00  0.865550700000E+00
 -0.486144102880E-01  0.243386603466E+00  0.968710276794E+00
  0.189612204675E+00  0.563744334970E+00  0.803890251606E+00
  0.234605433580E+00  0.460149587497E+00  0.856284209630E+00
  0.813993206642E+00  0.228630781492E+00  0.533987851262E+00
  0.906648827650E+00  0.182771778726E+00  0.380239898251E+00
  0.978155484359E+00  0.207371349314E+00  0.144558604418E-01
  0.991702919122E+00  0.621943624041E-01  0.112504139877E+00
  0.962395614613E+00  0.177562167044E-01  0.271070835284E+00
  0.321076988585E+00  0.757164105964E+00  0.568869127340E+00
  0.263379766730E+00  0.767018366974E+00  0.585075997801E+00
  0.101063144502E+00  0.964814225164E+00  0.242733911401E+00
  0.280182636862E+00  0.959901998499E+00  0.926516481717E-02
  0.571432396622E+00  0.809881695333E+00  0.132501530767E+00
  0.204737267461E+00  0.672386738377E+00 -0.711321815613E+00
  0.221962203052E+00  0.359389854151E+00 -0.906405931771E+00
 -0.655960175738E+00 -0.752676143324E+00 -0.565231909642E-01
 -0.632020085091E+00 -0.742130938887E+00  0.223141841860E+00
 -0.607393459680E+00 -0.786067115379E+00 -0.114767919113E+00
 -0.608319247306E+00 -0.785418522570E+00 -0.114304145861E+00
 -0.557723474032E+00 -0.825289939951E+00 -0.885496557279E-01
 -0.437992017091E+00 -0.896049900954E+00  0.725090888457E-01
 -0.627453216844E+00  0.589358313033E+00  0.508880378409E+00
 -0.739209375489E+00  0.522037054994E+00  0.425495960499E+00
 -0.748555114688E+00  0.595916877480E+00  0.290771930229E+00
 -0.675336511344E+00  0.666168136053E+00  0.316450013357E+00
 -0.707127037253E+00  0.643763669038E+00  0.292471693696E+00
 -0.498138537224E+00  0.866383963706E+00  0.351685252020E-01
 -0.572892068192E+00  0.807417534657E+00  0.140966673123E+00
 -0.693859037025E+00  0.719291521693E+00  0.343415718875E-01
 -0.463830886990E+00  0.885823100023E+00  0.133545400403E-01
 -0.466961706935E+00  0.884096840693E+00  0.178756967015E-01
 -0.335753038949E+00  0.937777025440E+00 -0.885671914102E-01
 -0.356037922140E+00  0.906985417243E+00  0.224976556352E+00
 -0.905176818710E+00  0.365409146696E+00 -0.217096942356E+00
 -0.692465666065E+00  0.550236098492E+00 -0.466617120600E+00
  0.417743725766E+00 -0.393032699579E+00 -0.819155343414E+00
  0.244320216048E+00 -0.451347293674E+00 -0.858250110704E+00
  0.502784915635E+00 -0.611094542701E+00 -0.611367964888E+00
  0.486894457664E+00 -0.725727334096E+00 -0.486059279967E+00
  0.476685392830E+00 -0.731129961646E+00 -0.488077878463E+00
 -0.210575745583E+00  0.255886813861E-01 -0.977242587466E+00
 -0.368150808610E+00  0.277100871717E-03 -0.929766048711E+00
 -0.705909345612E+00 -0.673246986441E-01 -0.705095299041E+00
 -0.658703763817E+00 -0.814899589613E-01 -0.747976428855E+00
 -0.822878595133E+00  0.256955950088E+00 -0.506798241302E+00
  0.989265913626E+00 -0.743015971343E-01 -0.125826168983E+00
  0.977624465122E+00 -0.137609757983E+00 -0.159103613105E+00
  0.956157962349E+00  0.179481666860E+00 -0.231405017875E+00
  0.938494923689E+00  0.141459272417E+00 -0.314986590915E+00
  0.140299536622E+00  0.746690774104E+00  0.650206834701E+00
 -0.172764519960E+00  0.649279692202E+00  0.740667470554E+00
 -0.668105631415E-01  0.953836708882E+00  0.292800070768E+00
 -0.941939473318E-01  0.826007532997E+00  0.555732899619E+00
 -0.189488992057E+00  0.814176332366E+00  0.548826768393E+00
  0.641777007997E+00  0.229400966583E+00  0.731776925393E+00
  0.735769312461E+00 -0.337230131356E-01  0.676392103166E+00
  0.443694206164E+00 -0.696527077863E-01  0.893467375853E+00
  0.620801655322E+00  0.533300953469E+00  0.574626311423E+00
  0.623848366332E+00  0.466954184147E+00  0.626711261852E+00
  0.824152791404E+00  0.248305946635E+00  0.509034707349E+00
  0.882703517962E+00  0.252561238736E+00  0.396291963160E+00
  0.844469797454E+00  0.479482442871E+00 -0.238678336192E+00
  0.750855971477E+00  0.583040453956E+00 -0.310288799585E+00
  0.757606117207E+00  0.565015488891E+00 -0.326788109458E+00
  0.313456537703E+00  0.481150591403E+00 -0.818681322227E+00
  0.297337516604E+00  0.552849627482E+00 -0.778426419524E+00
  0.637092143327E+00  0.381035033536E+00 -0.670019331160E+00
  0.536300246860E+00  0.639774411196E+00 -0.550518617303E+00
  0.687831708568E+00  0.496120282902E+00 -0.529860552959E+00
  0.690993306379E+00  0.469111524022E+00 -0.549966024922E+00
 -0.127811258018E+00  0.495866675545E+00 -0.858941512798E+00
  0.142593888474E+00  0.637277169529E+00 -0.757327400909E+00
  0.704609089348E-01  0.337883156446E+00 -0.938546873045E+00
  0.896390591637E-01  0.342149845461E+00 -0.935359996110E+00
 -0.578914325099E+00  0.781905379701E+00 -0.231262148630E+00
 -0.665230832637E+00  0.675073343370E+00 -0.318973228313E+00
 -0.618070800664E+00  0.769885558232E+00 -0.158948773485E+00
 -0.660191198491E+00  0.745392132224E+00 -0.924021139001E-01
 -0.714460938387E+00  0.699291209587E+00 -0.231812793801E-01
 -0.889634619370E+00  0.453416839271E+00 -0.544372472146E-01
 -0.890682142634E+00  0.450000992191E+00 -0.646871534388E-01
 -0.658132823235E+00 -0.730063110602E-01 -0.749353898720E+00
 -0.440875544757E+00  0.314140396864E+00 -0.840799955455E+00
 -0.572850053696E+00  0.513422710577E+00 -0.638936566683E+00
 -0.636408422953E+00  0.422764713280E+00 -0.645177740161E+00
 -0.359835368901E+00  0.592217878188E+00 -0.720969133904E+00
 -0.334785630611E+00  0.556986513917E+00 -0.760055659048E+00
 -0.345760274474E+00  0.506245483962E+00 -0.790041354970E+00
 -0.307301302912E+00  0.887058217491E+00  0.344519416013E+00
 -0.367149844558E+00  0.895294351296E+00  0.252287566435E+00
 -0.387773576175E+00  0.889085254130E+00  0.243226364750E+00
 -0.596563485569E+00  0.738044614624E+00  0.315281072235E+00
 -0.541903055304E+00  0.812814630432E+00  0.213713488596E+00
 -0.413221086270E+00  0.739660007075E+00  0.531179261451E+00
 -0.336746943533E+00  0.809489868936E+00  0.480965329427E+00
  0.599337636170E+00  0.285954172666E+00  0.747679482804E+00
  0.490345032609E+00  0.350182273562E+00  0.798081527338E+00
  0.580278091447E+00  0.334773409837E+00  0.742431209374E+00
  0.337950717201E+00  0.498107389904E-01  0.939844776027E+00
  0.419980549762E+00 -0.150693228031E-01  0.907407986151E+00
  0.855011892112E+00  0.408197105938E+00  0.319890273454E+00
  0.681818423109E+00  0.543949964573E+00  0.489123781829E+00
  0.631654455767E+00  0.761685296792E+00  0.144388909409E+00
  0.917958541233E+00  0.382922442609E+00  0.103549599342E+00
  0.866725802992E+00  0.421581782120E+00  0.266561781604E+00
  0.878910489585E+00  0.476437392021E+00  0.228858642232E-01
  0.770449245815E+00  0.636835900229E+00  0.291203675059E-01
  0.681368404175E+00  0.720867817855E+00  0.126833303878E+00
SCALARS inclination float 1
LOOKUP_TABLE default
  0.100000000000E+01
  0.100000000000E+01
  0.100000000000E+01
  0.100000000000E+01
  0.100000000000E+01
  0.100000000000E+01
  0.100000000000E+01
  0.100000000000E+01
  0.100000000000E+01
  0.100000000000E+01
  0.100000000000E+01
  0.100000000000E+01
  0.100000000000E+01
  0.100000000000E+01
  0.100000000000E+01
  0.100000000000E+01
  0.100000000000E+01
  0.100000000000E+01
  0.100000000000E+01
  0.100000000000E+01
  0.100000000000E+01
  0.100000000000E+01
  0.100000000000E+01
  0.100000000000E+01
  0.100000000000E+01
  0.100000000000E+01
  0.100000000000E+01
  0.100000000000E+01
  0.100000000000E+01
  0.100000000000E+01
  0.100000000000E+01
  0.100000000000E+01
  0.100000000000E+01
  0.100000000000E+01
  0.100000000000E+01
  0.100000000000E+01
  0.100000000000E+01
  0.100000000000E+01
  0.100000000000E+01
  0.100000000000E+01
  0.100000000000E+01
  0.100000000000E+01
  0.100000000000E+01
  0.100000000000E+01
  0.100000000000E+01
  0.100000000000E+01
  0.100000000000E+01
  0.100000000000E+01
  0.100000000000E+01
  0.100000000000E+01
  0.100000000000E+01
  0.100000000000E+01
  0.100000000000E+01
  0.100000000000E+01
  0.100000000000E+01
  0.100000000000E+01
  0.100000000000E+01
  0.100000000000E+01
  0.100000000000E+01
  0.100000000000E+01
  0.100000000000E+01
  0.100000000000E+01
  0.100000000000E+01
  0.100000000000E+01
  0.100000000000E+01
  0.100000000000E+01
  0.100000000000E+01
  0.100000000000E+01
  0.100000000000E+01
  0.100000000000E+01
  0.100000000000E+01
  0.100000000000E+01
  0.100000000000E+01
  0.100000000000E+01
  0.100000000000E+01
  0.100000000000E+01
  0.100000000000E+01
  0.100000000000E+01
  0.100000000000E+01
  0.100000000000E+01
  0.100000000000E+01
  0.100000000000E+01
  0.100000000000E+01
  0.100000000000E+01
  0.100000000000E+01
  0.100000000000E+01
  0.100000000000E+01
  0.100000000000E+01
  0.100000000000E+01
  0.100000000000E+01
  0.100000000000E+01
  0.100000000000E+01
  0.100000000000E+01
  0.100000000000E+01
  0.100000000000E+01
  0.100000000000E+01
  0.100000000000E+01
  0.100000000000E+01
  0.100000000000E+01
  0.100000000000E+01
  0.100000000000E+01
  0.100000000000E+01
  0.100000000000E+01
  0.100000000000E+01
  0.100000000000E+01
  0.100000000000E+01
  0.100000000000E+01
  0.100000000000E+01
  0.100000000000E+01
  0.100000000000E+01
  0.100000000000E+01
  0.100000000000E+01
  0.100000000000E+01
  0.100000000000E+01
  0.100000000000E+01
  0.100000000000E+01
  0.100000000000E+01
  0.100000000000E+01
  0.100000000000E+01
  0.100000000000E+01
  0.100000000000E+01
  0.100000000000E+01
  0.100000000000E+01
  0.100000000000E+01
  0.100000000000E+01
  0.100000000000E+01
  0.100000000000E+01
  0.100000000000E+01
  0.100000000000E+01
  0.100000000000E+01
  0.100000000000E+01
  0.100000000000E+01
  0.100000000000E+01
  0.100000000000E+01
  0.100000000000E+01
  0.100000000000E+01
  0.100000000000E+01
  0.100000000000E+01
  0.100000000000E+01
  0.100000000000E+01
  0.100000000000E+01
  0.100000000000E+01
  0.100000000000E+01
  0.100000000000E+01
  0.100000000000E+01
  0.100000000000E+01
  0.100000000000E+01
  0.100000000000E+01
  0.100000000000E+01
  0.100000000000E+01
  0.100000000000E+01
  0.100000000000E+01
  0.100000000000E+01
  0.100000000000E+01
  0.100000000000E+01
  0.100000000000E+01
  0.100000000000E+01
  0.100000000000E+01
  0.100000000000E+01
  0.100000000000E+01
  0.100000000000E+01
  0.100000000000E+01
  0.100000000000E+01
  0.100000000000E+01
  0.100000000000E+01
  0.100000000000E+01
  0.100000000000E+01
  0.100000000000E+01
  0.100000000000E+01
  0.100000000000E+01
  0.100000000000E+01
  0.100000000000E+01
  0.100000000000E+01
  0.100000000000E+01
  0.100000000000E+01
  0.100000000000E+01
  0.100000000000E+01
  0.100000000000E+01
  0.100000000000E+01
  0.100000000000E+01
  0.100000000000E+01
  0.100000000000E+01
  0.100000000000E+01
  0.100000000000E+01
  0.100000000000E+01
  0.100000000000E+01
  0.100000000000E+01
  0.100000000000E+01
  0.100000000000E+01
  0.100000000000E+01
  0.100000000000E+01
  0.100000000000E+01
  0.100000000000E+01
  0.100000000000E+01
  0.100000000000E+01
  0.100000000000E+01
  0.100000000000E+01
  0.100000000000E+01
  0.100000000000E+01
  0.100000000000E+01
  0.100000000000E+01
  0.100000000000E+01
  0.100000000000E+01
  0.100000000000E+01
  0.100000000000E+01
  0.100000000000E+01
  0.100000000000E+01
  0.100000000000E+01
  0.100000000000E+01
  0.100000000000E+01
  0.100000000000E+01
  0.100000000000E+01
  0.100000000000E+01
  0.100000000000E+01
  0.100000000000E+01
  0.100000000000E+01
  0.100000000000E+01
  0.100000000000E+01
  0.100000000000E+01
  0.100000000000E+01
  0.100000000000E+01
  0.100000000000E+01
  0.100000000000E+01
  0.100000000000E+01
  0.100000000000E+01
  0.100000000000E+01
  0.100000000000E+01
  0.100000000000E+01
  0.100000000000E+01
  0.100000000000E+01
  0.100000000000E+01
  0.100000000000E+01
  0.100000000000E+01