# vtk DataFile Version 3.0
MachLine results file. Generated by MachLine, USU AeroLab (c) 2022.
ASCII
DATASET POLYDATA
POINTS                 125 float
  0.813368035425E+00 -0.546565256982E+00 -0.199245724693E+00
  0.736163541287E+00  0.400630911130E-01  0.675616895297E+00
  0.783196845196E+00 -0.617879756076E+00 -0.694788363864E-01
 -0.380490150529E+00  0.811165755185E+00 -0.444114132815E+00
  0.895679309570E+00 -0.399153061251E+00 -0.196049504214E+00
  0.590151415269E+00 -0.628045017135E+00 -0.507228512120E+00
  0.126718586128E+00  0.119854523089E+00  0.984671159944E+00
 -0.525563894694E+00  0.568861130104E+00 -0.632597508097E+00
 -0.379255001622E+00  0.797987488651E+00  0.468381907957E+00
 -0.566318059435E+00  0.551098560596E+00  0.612841114863E+00
 -0.894033232351E+00 -0.299142899116E+00 -0.333493786089E+00
 -0.321458948104E+00  0.550540373992E+00 -0.770434579499E+00
 -0.449497312053E+00  0.543038491154E+00 -0.709268188757E+00
  0.667058599143E+00  0.731299949034E+00 -0.142243487904E+00
  0.173281667392E+00 -0.759356328619E+00 -0.627177351260E+00
  0.215866647129E+00  0.420216109089E+00  0.881373934445E+00
 -0.245007741064E+00 -0.969513664052E+00  0.380289823167E-02
  0.154158816165E+00 -0.264844358684E-01  0.987691062051E+00
  0.605174955204E+00 -0.736687529650E+00  0.301752808191E+00
  0.131660127385E+00  0.599874032352E-01  0.989478207092E+00
  0.915009371198E+00 -0.402588052987E+00 -0.260904237412E-01
 -0.446301105647E+00 -0.834963965994E+00 -0.321947974974E+00
 -0.133799039449E+00  0.916663483203E+00 -0.376597763675E+00
 -0.318159420944E+00  0.933606035192E+00 -0.164785781906E+00
  0.183662675258E+00  0.894796555108E+00 -0.406948579903E+00
 -0.585639978352E-01 -0.993713174997E+00  0.954168957512E-01
  0.324414348353E+00 -0.859992748882E+00  0.393913445383E+00
  0.385180858608E+00 -0.756122893437E+00 -0.529068876595E+00
  0.999964652333E+00  0.474940884730E-02 -0.693809775658E-02
  0.672777043982E+00 -0.329310132534E+00 -0.662514819231E+00
  0.248916685388E+00  0.401580816491E+00  0.881347452235E+00
 -0.342920511663E+00 -0.315565503793E+00  0.884773380870E+00
  0.206352642682E-01 -0.109013017308E+00 -0.993826115538E+00
  0.182433862358E+00  0.599216091976E+00 -0.779524188837E+00
 -0.472075118100E-01  0.293010921176E+00  0.954942956883E+00
 -0.489452422791E+00  0.791108133814E+00  0.366857256214E+00
 -0.159746620568E+00 -0.594307386473E+00 -0.788213009028E+00
  0.434953716719E+00  0.373241742717E+00 -0.819454614854E+00
  0.774371940079E+00  0.306891900628E+00  0.553322202471E+00
 -0.753634494184E-01 -0.912345318710E+00 -0.402425607933E+00
  0.805784109130E+00  0.976552918125E-01 -0.584102228599E+00
  0.767023731188E+00 -0.646095481291E-01  0.638357425025E+00
 -0.292028715441E+00 -0.839483328910E+00 -0.458243352205E+00
 -0.953985583480E-02  0.901567493810E+00 -0.432533288032E+00
  0.108692728574E+00  0.819167303064E+00  0.563161451403E+00
  0.392275419097E+00 -0.903221168166E+00  0.174102030281E+00
  0.971235425099E+00  0.163120660187E+00 -0.173474491650E+00
  0.865801735469E+00 -0.455312475828E+00 -0.207552172271E+00
 -0.357147911724E+00 -0.750254512706E-02  0.934017709130E+00
  0.788644714658E+00  0.150826918371E+00  0.596062710406E+00
  0.441084883573E+00  0.751191234367E+00  0.491076221064E+00
 -0.229869841305E+00 -0.973096728037E+00 -0.155760695163E-01
  0.570111628853E-01 -0.758047912729E+00  0.649702308225E+00
 -0.270657372110E-01 -0.927446964041E+00 -0.372973959897E+00
  0.463193399401E+00  0.132529766234E+00  0.876292037972E+00
 -0.322062635844E+00 -0.663179213879E+00  0.675624887694E+00
  0.471459149015E+00  0.505644426021E+00 -0.722530265971E+00
 -0.553853708443E+00  0.749935840253E-01  0.829229782388E+00
 -0.742965791168E+00  0.357466287822E-01  0.668374155459E+00
 -0.316819274287E+00 -0.940662277662E+00 -0.121573133645E+00
 -0.362120212509E+00  0.111841667998E+00  0.925397424349E+00
 -0.885464025875E+00  0.377701458102E+00 -0.270730617827E+00
 -0.440773490037E+00  0.817326614868E+00 -0.371074029150E+00
 -0.132449566655E+00 -0.898603762453E+00 -0.418292230860E+00
  0.995717654166E+00 -0.328533875071E-01 -0.864118516887E-01
 -0.404566700762E+00 -0.867838739712E+00  0.288412389625E+00
 -0.444125362359E+00 -0.862131085572E+00  0.243890659518E+00
  0.321915089737E+00  0.487418052827E+00  0.811661454535E+00
 -0.515602783497E+00 -0.703730654409E+00  0.488791300757E+00
 -0.854319663094E-01  0.432197954470E+00  0.897722845473E+00
  0.894312236669E+00  0.279644774310E+00  0.349291316160E+00
  0.232281409259E-01  0.495821977371E+00 -0.868113483494E+00
  0.900056502732E+00 -0.138682892739E+00  0.413116626572E+00
  0.991085447120E+00  0.414792910318E-02 -0.133163175057E+00
 -0.713530535358E+00 -0.572009202417E+00 -0.404573414181E+00
 -0.697562433266E+00 -0.461294956043E+00  0.548282422867E+00
 -0.723747634017E+00  0.611822680693E+00 -0.319158847041E+00
 -0.517332028352E+00  0.671889635347E+00 -0.530030084386E+00
 -0.104613463670E+00  0.166642349291E+00 -0.980452115425E+00
 -0.260049240512E-01  0.572807438450E+00  0.819277353759E+00
 -0.334652846468E+00  0.589306862618E-01 -0.940497021031E+00
  0.960058720291E+00 -0.245994157790E+00  0.133319645692E+00
 -0.967372002254E+00  0.177869764658E+00  0.180426594704E+00
  0.685688050216E+00 -0.312855317459E+00  0.657231654844E+00
  0.617900047227E+00 -0.781126167839E+00 -0.896740851842E-01
  0.776167493317E+00 -0.125976563205E+00  0.617813829435E+00
 -0.961678887447E+00  0.752586409163E-01 -0.263647215814E+00
 -0.523559485045E+00 -0.825371374619E+00  0.211299691384E+00
 -0.901847583487E+00 -0.907702521698E-01 -0.422411762952E+00
  0.120763927329E+00 -0.105213160478E+00  0.987089795671E+00
  0.861631847376E+00 -0.484732061504E+00 -0.150417379775E+00
 -0.529073411083E+00 -0.461941722244E+00  0.711822429357E+00
  0.708469586916E+00  0.651884411207E+00  0.270402586601E+00
 -0.712504270854E+00 -0.202267189906E+00 -0.671882168168E+00
 -0.702500962619E+00 -0.614416126388E+00 -0.359145125476E+00
 -0.911752014115E+00 -0.233299770252E+00  0.338052484028E+00
 -0.380284927744E+00 -0.922305417658E+00 -0.688192581327E-01
 -0.736321422540E+00  0.257600668860E+00  0.625677759004E+00
 -0.307687401655E+00  0.456731243232E+00 -0.834700565663E+00
 -0.672098815376E+00 -0.131133099687E+00 -0.728757361909E+00
 -0.658740287464E+00  0.253191204525E+00 -0.708488142189E+00
  0.613432244733E+00 -0.726617749095E+00 -0.309398655171E+00
  0.252326017113E+00  0.738468188787E+00  0.625296981632E+00
 -0.729945629164E+00  0.390106616291E+00 -0.561245228389E+00
  0.248297587461E+00  0.355575812365E+00  0.901062789001E+00
  0.285557033617E+00  0.506456373789E+00 -0.813608703248E+00
 -0.725251910324E+00  0.672591318744E+00  0.147073398416E+00
  0.948387247782E+00  0.131278824764E+00 -0.288665028040E+00
 -0.335203745775E+00  0.442114252562E+00 -0.831969612726E+00
 -0.182742596120E+00 -0.959601472885E+00  0.213939610171E+00
  0.816338452739E+00  0.101644630070E+00  0.568559495354E+00
 -0.559076302341E+00 -0.822742864998E+00 -0.102605390973E+00
  0.570708573320E+00 -0.550609461951E+00 -0.609196967121E+00
  0.824549871814E+00 -0.478502161069E+00  0.301915866997E+00
  0.437766655839E+00 -0.898991558172E+00  0.132111078363E-01
  0.150535788921E-01  0.817251054890E+00  0.576085152598E+00
 -0.607422217017E+00 -0.227962615827E+00  0.760967342308E+00
  0.826363863946E+00 -0.549308063520E+00  0.124029898472E+00
 -0.481452751815E+00 -0.287708007485E+00  0.827905399305E+00
 -0.769957666710E+00 -0.629199256299E+00 -0.106176679869E+00
  0.203178482010E+00  0.881311346851E+00 -0.426624910619E+00
 -0.244342840320E+00  0.634418006056E-01 -0.967611344663E+00
  0.710860999615E+00  0.337979786648E+00 -0.616803293638E+00
  0.459113080685E+00 -0.610489797075E+00  0.645381582330E+00
 -0.922302944609E+00 -0.377990970636E-01 -0.384614750923E+00
POLYGONS                 246                 984
3                  86                  95                  82
3                  24                  50                  13
3                  13                 107                 122
3                  95                 119                  75
3                  75                 119                  87
3                  89                  52                 123
3                 123                  83                  89
3                  89                  31                  52
3                  32                  36                  80
3                 122                 107                  40
3                  32                  29                 112
3                   5                  27                 112
3                 112                  29                   5
3                   4                  40                 107
3                  29                  40                   4
3                  82                  97                 106
3                  61                  86                  82
3                  82                 106                  61
3                  61                 106                  76
3                 115                   8                  79
3                  74                  36                  42
3                  95                  86                  10
3                  10                 119                  95
3                  94                  10                  74
3                 119                  10                  94
3                  87                 119                 111
3                 119                  94                 111
3                  57                  97                  58
3                  82                  95                  58
3                  58                  97                  82
3                  54                  83                   1
3                  17                  89                  54
3                  54                  89                  83
3                 113                  83                 123
3                  92                  13                  50
[...]
CELL_DATA                 246
NORMALS normals float
 -0.991669714515E+00 -0.127707032525E+00  0.167955695766E-01
  0.284271393382E+00  0.956081354217E+00  0.714018138615E-01
  0.830170415069E+00  0.464481179107E+00 -0.308341233376E+00
 -0.805949445659E+00 -0.545820086467E+00  0.229185349122E+00
 -0.773192924325E+00 -0.588425069559E+00  0.236492366237E+00
  0.180109798972E+00 -0.465432277581E+00  0.866564051470E+00
  0.384102186871E+00 -0.326779383146E+00  0.863528079909E+00
  0.128107108900E-01 -0.460065585972E+00  0.887792510833E+00
 -0.273566608869E+00 -0.287244789377E+00 -0.917960642668E+00
  0.852762250541E+00  0.276531980727E+00 -0.443087584669E+00
  0.323090854831E+00 -0.359895364791E+00 -0.875264317750E+00
  0.472649593538E+00 -0.656080322769E+00 -0.588354461022E+00
  0.740508257738E+00 -0.459659985277E+00 -0.490265456826E+00
  0.895845270337E+00 -0.161313486750E+00 -0.414052183435E+00
  0.874373858860E+00 -0.190412995134E+00 -0.446333111282E+00
 -0.830437586155E+00  0.430279875549E+00  0.353882246232E+00
 -0.967792994847E+00  0.242279759211E+00 -0.683903312068E-01
 -0.896855904227E+00  0.441122653562E+00  0.325621185938E-01
 -0.827671549636E+00  0.556157170306E+00 -0.751598818514E-01
 -0.218399055092E+00  0.706455437810E+00  0.673218068031E+00
 -0.468053624549E+00 -0.609121548566E+00 -0.640231788979E+00
 -0.984312314342E+00 -0.176220588305E+00 -0.869322106455E-02
 -0.938076603225E+00 -0.346305631506E+00  0.920304673871E-02
 -0.836028540746E+00 -0.487394223166E+00 -0.251998314046E+00
 -0.836130867184E+00 -0.487500837331E+00 -0.251451996498E+00
 -0.675147261910E+00 -0.734331281612E+00  0.702406120503E-01
 -0.657969264627E+00 -0.720925447843E+00 -0.217584341021E+00
 -0.658630270427E+00  0.161178541106E+00  0.735001799157E+00
 -0.903067133889E+00  0.417141463576E-01  0.427468924817E+00
 -0.890090206743E+00  0.111699557455E+00  0.441885316258E+00
  0.560486943879E+00 -0.122828501071E+00  0.819003995757E+00
  0.415363165976E+00 -0.182992560717E+00  0.891059573246E+00
  0.432422991486E+00 -0.214706360271E+00  0.875734854447E+00
  0.673620403917E+00 -0.533172954471E+00  0.511822383300E+00
  0.436183372157E+00  0.890756848095E+00  0.127656975622E+00
  0.835846262572E+00  0.463630875289E+00 -0.293951419154E+00
  0.961526804347E+00  0.261833525389E+00  0.831228579002E-01
  0.881663294779E+00  0.471873269526E+00  0.233498299180E-02
  0.891675044304E+00  0.451644986591E+00  0.305355768343E-01
  0.510785269564E+00 -0.743976062239E+00 -0.430810894956E+00
  0.374526221560E+00 -0.887029982190E+00 -0.270014666379E+00
 -0.571841995106E+00 -0.573208989111E+00  0.586880045185E+00
 -0.729079408075E+00 -0.618914786072E+00  0.292211745661E+00
 -0.510692946013E+00 -0.781949761531E+00  0.357417522421E+00
 -0.507929341535E+00 -0.786897662732E+00  0.350428098751E+00
 -0.326936004170E+00 -0.929383632242E+00  0.171344428851E+00
 -0.346001350612E+00 -0.498859919680E+00  0.794620567259E+00
 -0.711620775299E-01 -0.517371640349E+00  0.852796895213E+00
 -0.481369507635E+00 -0.608635550952E+00  0.630750476208E+00
 -0.307625929208E+00 -0.812590809071E+00  0.495037841677E+00
 -0.179429882298E+00 -0.851560916546E+00  0.492594075025E+00
 -0.187675991229E+00 -0.851311414856E+00  0.489945504369E+00
 -0.639547580168E+00 -0.596100801223E-01  0.766436906111E+00
 -0.650899341261E+00 -0.358510322168E+00  0.669178897191E+00
 -0.791267008804E+00 -0.215813510002E+00  0.572119786128E+00
 -0.792989229385E+00 -0.206312639632E+00  0.573239196852E+00
  0.636792893987E+00  0.621498180306E+00 -0.456327538118E+00
  0.342145511514E+00  0.634903668644E+00 -0.692700354045E+00
 -0.826220568844E-01  0.728270312197E+00 -0.680291076002E+00
 -0.342743526219E+00  0.496172046480E+00 -0.797709330224E+00
 -0.246658887991E+00  0.291666483182E+00 -0.924169927861E+00
 -0.465533820160E+00  0.240556927666E+00 -0.851710412546E+00
  0.201606266799E+00 -0.444688599714E+00 -0.872700958216E+00
  0.263032967799E+00 -0.426228225309E+00 -0.865530564337E+00
  0.345224526123E+00 -0.594726051453E+00 -0.726030956838E+00
  0.912181520955E+00 -0.156750432923E+00 -0.378621413298E+00
  0.991876396307E+00  0.106029308714E+00 -0.702780203422E-01
  0.974874023141E+00  0.679323749602E-01 -0.212145778739E+00
  0.771612586206E+00 -0.448095947408E+00 -0.451468757197E+00
  0.824779305276E+00 -0.347414329980E+00 -0.446141660141E+00
 -0.296629500231E+00  0.639664872276E+00  0.709111973365E+00
 -0.528025495347E+00  0.339887171670E+00  0.778245325587E+00
 -0.514070072670E+00  0.688683292832E+00  0.511319159194E+00
 -0.678478343698E+00  0.620435192443E+00  0.393353923471E+00
 -0.788301133745E+00  0.473779149184E+00  0.392574375546E+00
 -0.499609035584E+00  0.863382057352E+00  0.704431302954E-01
 -0.228131990763E+00  0.956311980230E+00  0.182820106277E+00
 -0.101955182150E+00  0.974695299839E+00  0.198932685360E+00
  0.190340892220E-01 -0.157086825486E-01  0.999695423987E+00
  0.310472490856E+00  0.611750256672E-01  0.948611853529E+00
 -0.141686618644E+00 -0.162632298194E+00  0.976460771194E+00
 -0.111781173914E+00 -0.699388692304E-02  0.993708234194E+00
 -0.120031460404E+00  0.547738554981E-01  0.991257924693E+00
  0.570580476731E+00  0.517368632916E+00  0.637783362317E+00
  0.642172007812E+00  0.555696162829E+00  0.528031142075E+00
  0.784481239065E+00  0.475920638790E+00  0.397603736312E+00
  0.566809527191E+00  0.360547156655E+00  0.740764947682E+00
  0.159452206995E+00  0.578331634265E+00  0.800067193736E+00
  0.168304233202E+00  0.617206842014E+00  0.768589226608E+00
  0.830662795196E-01  0.695805721937E+00  0.713410394181E+00
  0.430548541447E+00  0.611883649268E+00  0.663495556290E+00
 -0.492923734448E+00 -0.868719848180E+00  0.484976019632E-01
 -0.445654208181E+00 -0.891570971088E+00  0.805824437661E-01
 -0.605473547661E+00 -0.748816927487E+00 -0.269582996851E+00
 -0.498454237430E+00 -0.676787941963E+00 -0.541757745493E+00
 -0.515235144882E+00 -0.685323722862E+00 -0.514649531585E+00
 -0.287335896091E+00 -0.911264037775E+00 -0.295018535477E+00
 -0.419561248888E+00 -0.886231952886E+00 -0.196370272992E+00
 -0.451555746720E+00 -0.873165890857E+00 -0.183517668489E+00
  0.736454298511E+00 -0.625912498679E+00  0.256648807132E+00
  0.664262065806E+00 -0.564719422133E+00  0.489742669366E+00
  0.440473677211E+00 -0.869219588842E+00 -0.224589060412E+00
  0.690111163746E+00 -0.716228204185E+00  0.103748451572E+00
  0.587475144810E+00 -0.801715144428E+00  0.110117125937E+00
  0.389612134071E+00  0.471653261780E+00 -0.791040824254E+00
  0.229194745420E+00  0.150794019881E+00 -0.961629311242E+00
  0.580064839703E+00  0.370947993833E+00 -0.725205052114E+00
  0.597677169519E+00  0.128384980024E+00 -0.791390736577E+00
  0.438279691674E+00 -0.520863628307E-01 -0.897328213461E+00
  0.530693112640E+00 -0.967424916441E-02 -0.847508837181E+00
  0.351226452004E+00  0.721168547105E+00 -0.597123024241E+00
  0.411076818139E+00  0.889034368746E+00 -0.201578125739E+00
  0.514358577916E+00  0.726387811992E+00 -0.455846465286E+00
  0.959508228626E-01  0.862883682444E+00 -0.496210832373E+00
  0.911832810700E-01  0.775235696157E+00 -0.625056177201E+00
 -0.147669745982E+00  0.544126211317E+00 -0.825905752661E+00
 -0.818374891015E-01  0.718134573667E+00 -0.691075509247E+00
 -0.136262234530E+00  0.366956085120E+00 -0.920204235501E+00
  0.158144018826E+00  0.490670386055E+00 -0.856873993979E+00
  0.187104993787E+00  0.251504907063E+00 -0.949598337732E+00
  0.187083066659E+00  0.251420690235E+00 -0.949624958966E+00
 -0.398905843442E+00  0.490336971242E+00 -0.774883076794E+00
 -0.410658926393E+00  0.659554639920E+00 -0.629560897081E+00
 -0.341985858536E+00  0.696878074566E+00 -0.630401952528E+00
 -0.573589473380E+00  0.412173535888E+00 -0.707889887159E+00
 -0.510882370134E+00  0.366717441405E+00 -0.777507248877E+00
 -0.289542048329E+00  0.260448523607E+00 -0.921049384561E+00
 -0.279550454021E+00  0.263626836995E+00 -0.923229350959E+00
 -0.264954761347E+00 -0.266225437432E+00 -0.926780983245E+00
 -0.952011667187E-01  0.503984555724E-02 -0.995445296243E+00
 -0.866078353951E+00  0.207598780090E+00 -0.454764808800E+00
 -0.789861447343E+00  0.462207102135E+00 -0.403092407194E+00
 -0.602706002044E+00  0.417725895200E+00 -0.679890102575E+00
 -0.661491554951E+00  0.554990405160E+00 -0.504395254646E+00
 -0.666919505808E+00  0.557923591315E+00 -0.493902459020E+00
 -0.129156790318E+00 -0.770469112828E+00 -0.624256253226E+00
 -0.783965800154E-01 -0.772736398391E+00 -0.629866997742E+00
 -0.266009859803E+00 -0.917607944649E+00 -0.295354726398E+00
  0.899946263508E+00 -0.401858904750E+00  0.169133507828E+00
  0.904416589725E+00 -0.402944319529E+00  0.140237325949E+00
  0.951866576258E+00 -0.187349624094E+00 -0.242590476637E+00
  0.966503051992E+00 -0.229666219351E+00 -0.114565606439E+00
  0.973410459247E+00 -0.221813516054E+00 -0.571912749023E-01
  0.996877077238E+00  0.359800769247E-01 -0.702959952029E-01
  0.988867085584E+00 -0.147816285978E+00  0.170948134749E-01
 -0.315135153558E+00  0.560467610862E+00  0.765875898672E+00
  0.663901620900E-01  0.464583842259E+00  0.883036918758E+00
  0.654260841333E-01  0.394728744698E+00  0.916465299738E+00
 -0.596944061755E+00  0.795304600227E+00 -0.105585889178E+00
 -0.590421382875E+00  0.800817981221E+00 -0.100464678354E+00
 -0.589115625576E+00  0.717122842438E+00 -0.372394426052E+00
 -0.402503487578E+00 -0.162593313546E+00  0.900863117725E+00
 -0.415600178440E+00 -0.422906568185E+00  0.805249356576E+00
 -0.562973079035E+00 -0.346147549838E+00  0.750495293804E+00
 -0.504678867023E+00 -0.103871273463E+00  0.857035588368E+00
 -0.501006203123E+00 -0.103146329115E+00  0.859275054463E+00
  0.854847313739E+00  0.210013687321E+00  0.474478999883E+00
 -0.983940759611E-01  0.715770645792E-01  0.992570062838E+00
  0.301571773588E+00  0.101018381895E+00  0.948076870245E+00
  0.262259133379E+00  0.463918983985E+00  0.846167432166E+00
  0.272944953239E+00  0.842874906854E+00  0.463748793958E+00
  0.839562578588E-01  0.697429403179E+00  0.711718746660E+00
  0.218740871246E+00  0.971376190258E+00  0.926322203437E-01
  0.118126766772E+00  0.989245685399E+00  0.862498747370E-01
  0.112693010090E-02  0.987967877649E+00  0.154655109071E+00
 -0.331500235461E+00 -0.932674067218E+00  0.142220526746E+00
 -0.375538232076E+00 -0.921328419013E+00  0.100622962431E+00
 -0.309279063672E+00 -0.950066132589E+00 -0.414825804698E-01
 -0.175387893902E+00 -0.979592002089E+00  0.981763521244E-01
  0.282476981205E+00 -0.752334564042E+00  0.595146586007E+00
  0.479870325906E+00 -0.737700010993E+00  0.474892792213E+00
  0.645284861966E-01 -0.938983829639E+00  0.337854172898E+00
  0.366709776463E-01 -0.914541176906E+00  0.402827103287E+00
  0.565792212759E+00 -0.123392381925E+00  0.815262836185E+00
  0.645014105015E+00 -0.154432139767E+00  0.748403312752E+00
  0.795110026906E+00  0.186424323616E-01  0.606178608027E+00
  0.693158165839E+00 -0.714037311767E+00  0.983995657271E-01
  0.853339772609E+00 -0.521324869767E+00 -0.562251245997E-02
  0.701907054565E+00 -0.687847686191E+00 -0.184910917347E+00
 -0.828430225535E+00  0.149612513412E+00 -0.539740175687E+00
 -0.812628745044E+00  0.963145205188E-01 -0.574767810395E+00
 -0.863469045034E+00  0.196378256347E+00 -0.464603905172E+00
 -0.972615956142E+00 -0.141304028751E+00 -0.184530142027E+00
 -0.944189435653E+00 -0.158606467055E+00 -0.288704517126E+00
 -0.555683644337E+00  0.630361188005E-01 -0.829000684646E+00
 -0.794819529088E+00  0.594776054842E-01 -0.603924109990E+00
 -0.377074852931E+00 -0.304845565880E+00 -0.874576318139E+00
  0.208002424337E+00 -0.883298350491E+00 -0.420141661217E+00
  0.280606488543E+00 -0.921098922285E+00 -0.269882889330E+00
  0.165565489333E+00 -0.977958140232E+00 -0.127223994181E+00
  0.901961129728E+00 -0.301554606281E+00  0.309080798319E+00
  0.813515768981E+00 -0.336067872402E+00  0.474605603380E+00
  0.811894992602E+00 -0.285701139169E+00  0.509118237804E+00
  0.853291260671E+00 -0.467152052141E-01  0.519337764912E+00
  0.855146349345E+00 -0.365651676160E-01  0.517095455133E+00
  0.920087276593E+00  0.713977341048E-01  0.385151615621E+00
  0.967527513164E+00  0.510558002667E-01  0.247555683694E+00
  0.974744269031E+00 -0.314561923429E-01  0.221097530410E+00
 -0.472767582424E+00  0.354318352103E+00  0.806814302285E+00
 -0.388869503854E+00  0.407251929420E+00  0.826393595665E+00
 -0.454816932969E+00  0.452948121432E-01  0.889432368130E+00
 -0.130780385026E+00  0.660024362242E-01  0.989211893026E+00
 -0.261266160975E+00  0.304773555571E+00  0.915889225264E+00
  0.540234608801E-01  0.987725811054E+00 -0.146557796966E+00
  0.666268720733E-01  0.997539782299E+00 -0.218000607467E-01
  0.773644914945E+00  0.844627890101E-01  0.627964635033E+00
  0.850866240199E+00  0.209735961298E+00  0.481702675754E+00
  0.626265719261E+00  0.236762895621E+00  0.742788381799E+00
  0.621774035666E+00  0.259260072709E+00  0.739040772401E+00
  0.997928312715E-01  0.335400771192E+00  0.936775167002E+00
  0.114774412549E+00  0.278970976904E+00  0.953415978610E+00
  0.216182552000E+00  0.382126986673E+00  0.898467623383E+00
  0.295395357223E+00  0.180409564698E+00  0.938186533636E+00
  0.435179587603E+00  0.326076725847E+00  0.839221481728E+00
  0.388690278503E+00  0.358503778448E+00  0.848760807434E+00
  0.558348630882E+00 -0.818323453540E+00  0.136358101260E+00
  0.465361541558E+00 -0.830198049203E+00  0.306936206300E+00
  0.191933671597E+00 -0.980994592222E+00  0.284793914563E-01
  0.151566945066E+00 -0.959963274533E+00  0.235580077069E+00
  0.854782007022E+00 -0.518410171738E+00 -0.244665957963E-01
  0.901678864305E+00 -0.417917166985E+00 -0.110997599999E+00
  0.884625568233E+00 -0.437694883031E+00 -0.160812914271E+00
  0.714506514615E+00 -0.669836349911E+00 -0.201989368310E+00
  0.725899786937E+00 -0.577698490770E+00 -0.373274634936E+00
  0.766050526924E+00 -0.479171003624E+00 -0.428441057189E+00
  0.842222721248E+00 -0.501867640956E+00 -0.196951158349E+00
  0.824550351510E+00 -0.554397005532E+00 -0.112963171355E+00
 -0.821811612766E+00 -0.249416734608E+00 -0.512266498632E+00
 -0.801250009839E+00 -0.229182981893E-01 -0.597890603155E+00
 -0.768774382910E+00 -0.373281540834E+00 -0.519275302180E+00
 -0.505259972495E+00 -0.504676791401E+00 -0.700009783085E+00
 -0.446312548880E+00 -0.390332290901E+00 -0.805261331117E+00
 -0.318965132168E-01 -0.809469442367E+00 -0.586295006220E+00
  0.520658841849E-01 -0.851390326555E+00 -0.521942195604E+00
 -0.164342264691E+00 -0.957307770704E+00 -0.237809697417E+00
 -0.158141622351E+00 -0.959602613820E+00 -0.232710229320E+00
 -0.292670258708E+00 -0.954793917028E+00 -0.520835451452E-01
 -0.124960159854E+00 -0.972778386768E+00 -0.195159341788E+00
 -0.157178490826E+00 -0.985777106646E+00  0.594846033421E-01
 -0.271973648334E-01 -0.989518426081E+00 -0.141822381142E+00
 -0.477061765565E+00  0.750672243379E+00 -0.457059355944E+00
 -0.328369296915E+00  0.708186842925E+00 -0.625016000076E+00
 -0.302488613561E+00  0.895949765290E+00 -0.325230159646E+00
 -0.294189117305E+00  0.897749105109E+00 -0.327870870214E+00
 -0.164462743037E+00  0.756010657019E+00 -0.633561277720E+00
 -0.172652391101E+00  0.784717249038E+00 -0.595323433866E+00
SCALARS inclination float 1
LOOKUP_TABLE default
  0.100000000000E+01
  0.100000000000E+01
  0.100000000000E+01
  0.100000000000E+01
  0.100000000000E+01
  0.100000000000E+01
  0.100000000000E+01
  0.100000000000E+01
  0.100000000000E+01
  0.100000000000E+01
  0.100000000000E+01
  0.100000000000E+01
  0.100000000000E+01
  0.100000000000E+01
  0.100000000000E+01
  0.100000000000E+01
  0.100000000000E+01
  0.100000000000E+01
  0.100000000000E+01
  0.100000000000E+01
  0.100000000000E+01
  0.100000000000E+01
  0.100000000000E+01
  0.100000000000E+01
  0.100000000000E+01
  0.100000000000E+01
  0.100000000000E+01
  0.100000000000E+01
  0.100000000000E+01
  0.100000000000E+01
  0.100000000000E+01
  0.100000000000E+01
  0.100000000000E+01
  0.100000000000E+01
  0.100000000000E+01
  0.100000000000E+01
  0.100000000000E+01
  0.100000000000E+01
  0.100000000000E+01
  0.100000000000E+01
  0.100000000000E+01
  0.100000000000E+01
  0.100000000000E+01
  0.100000000000E+01
  0.100000000000E+01
  0.100000000000E+01
  0.100000000000E+01
  0.100000000000E+01
  0.100000000000E+01
  0.100000000000E+01
  0.100000000000E+01
  0.100000000000E+01
  0.100000000000E+01
  0.100000000000E+01
  0.100000000000E+01
  0.100000000000E+01
  0.100000000000E+01
  0.100000000000E+01
  0.100000000000E+01
  0.100000000000E+01
  0.100000000000E+01
  0.100000000000E+01
  0.100000000000E+01
  0.100000000000E+01
  0.100000000000E+01
  0.100000000000E+01
  0.100000000000E+01
  0.100000000000E+01
  0.100000000000E+01
  0.100000000000E+01
  0.100000000000E+01
  0.100000000000E+01
  0.100000000000E+01
  0.100000000000E+01
  0.100000000000E+01
  0.100000000000E+01
  0.100000000000E+01
  0.100000000000E+01
  0.100000000000E+01
  0.100000000000E+01
  0.100000000000E+01
  0.100000000000E+01
  0.100000000000E+01
  0.100000000000E+01
  0.100000000000E+01
  0.100000000000E+01
  0.100000000000E+01
  0.100000000000E+01
  0.100000000000E+01
  0.100000000000E+01
  0.100000000000E+01
  0.100000000000E+01
  0.100000000000E+01
  0.100000000000E+01
  0.100000000000E+01
  0.100000000000E+01
  0.100000000000E+01
  0.100000000000E+01
  0.100000000000E+01
  0.100000000000E+01
  0.100000000000E+01
  0.100000000000E+01
  0.100000000000E+01
  0.100000000000E+01
  0.100000000000E+01
  0.100000000000E+01
  0.100000000000E+01
  0.100000000000E+01
  0.100000000000E+01
  0.100000000000E+01
  0.100000000000E+01
  0.100000000000E+01
  0.100000000000E+01
  0.100000000000E+01
  0.100000000000E+01
  0.100000000000E+01
  0.100000000000E+01
  0.100000000000E+01
  0.100000000000E+01
  0.100000000000E+01
  0.100000000000E+01
  0.100000000000E+01
  0.100000000000E+01
  0.100000000000E+01
  0.100000000000E+01
  0.100000000000E+01
  0.100000000000E+01
  0.100000000000E+01
  0.100000000000E+01
  0.100000000000E+01
  0.100000000000E+01
  0.100000000000E+01
  0.100000000000E+01
  0.100000000000E+01
  0.100000000000E+01
  0.100000000000E+01
  0.100000000000E+01
  0.100000000000E+01
  0.100000000000E+01
  0.100000000000E+01
  0.100000000000E+01
  0.100000000000E+01
  0.100000000000E+01
  0.100000000000E+01
  0.100000000000E+01
  0.100000000000E+01
  0.100000000000E+01
  0.100000000000E+01
  0.100000000000E+01
  0.100000000000E+01
  0.100000000000E+01
  0.100000000000E+01
  0.100000000000E+01
  0.100000000000E+01
  0.100000000000E+01
  0.100000000000E+01
  0.100000000000E+01
  0.100000000000E+01
  0.100000000000E+01
  0.100000000000E+01
  0.100000000000E+01
  0.100000000000E+01
  0.100000000000E+01
  0.100000000000E+01
  0.100000000000E+01
  0.100000000000E+01
  0.100000000000E+01
  0.100000000000E+01
  0.100000000000E+01
  0.100000000000E+01
  0.100000000000E+01
  0.100000000000E+01
  0.100000000000E+01
  0.100000000000E+01
  0.100000000000E+01
  0.100000000000E+01
  0.100000000000E+01
  0.100000000000E+01
  0.100000000000E+01
  0.100000000000E+01
  0.100000000000E+01
  0.100000000000E+01
  0.100000000000E+01
  0.100000000000E+01
  0.100000000000E+01
  0.100000000000E+01
  0.100000000000E+01
  0.100000000000E+01
  0.100000000000E+01
  0.100000000000E+01
  0.100000000000E+01
  0.100000000000E+01
  0.100000000000E+01
  0.100000000000E+01
  0.100000000000E+01
  0.100000000000E+01
  0.100000000000E+01
  0.100000000000E+01
  0.100000000000E+01
  0.100000000000E+01
  0.100000000000E+01
  0.100000000000E+01
  0.100000000000E+01
  0.100000000000E+01
  0.100000000000E+01
  0.100000000000E+01
  0.100000000000E+01
  0.100000000000E+01
  0.100000000000E+01
  0.100000000000E+01
  0.100000000000E+01
  0.100000000000E+01
  0.100000000000E+01
  0.100000000000E+01
  0.100000000000E+01
  0.100000000000E+01
  0.100000000000E+01
  0.100000000000E+01
  0.100000000000E+01
  0.100000000000E+01
  0.100000000000E+01
  0.100000000000E+01
  0.100000000000E+01
  0.100000000000E+01
  0.100000000000E+01
  0.100000000000E+01
  0.100000000000E+01
  0.100000000000E+01
  0.100000000000E+01
  0.100000000000E+01
  0.100000000000E+01
  0.100000000000E+01
  0.100000000000E+01