# vtk DataFile Version 3.0
MachLine results file. Generated by MachLine, USU AeroLab (c) 2022.
ASCII
DATASET POLYDATA
POINTS                 125 float
  0.715768613606E-01 -0.969634419521E+00  0.233850048959E+00
 -0.995918159970E+00 -0.865609653513E-01 -0.255776840129E-01
 -0.864560848705E+00  0.420864761138E+00  0.274604063551E+00
  0.105594480957E+00  0.359002377091E+00 -0.927344110260E+00
  0.911095528318E+00 -0.842509707712E-01  0.403493137740E+00
  0.383712703842E+00  0.732846705461E+00 -0.561872109296E+00
 -0.797023784381E+00 -0.254950159142E+00  0.547497491761E+00
 -0.952612110515E+00 -0.275788089585E+00  0.128339769921E+00
  0.453491408515E+00  0.440782801447E+00 -0.774632857780E+00
  0.223116061214E+00  0.807002851246E+00  0.546777487933E+00
  0.669377627110E-01  0.845466287807E+00  0.529817036442E+00
  0.489597684453E+00  0.881254820405E-01  0.867483721342E+00
  0.453991842675E+00  0.860379945598E+00  0.231598264236E+00
 -0.790736466199E+00  0.377783966131E+00 -0.481679474296E+00
  0.716773273643E+00 -0.507631214587E+00  0.478065501964E+00
 -0.983856919255E+00 -0.152207585022E+00  0.941191452124E-01
  0.502157921228E+00 -0.659510001414E+00 -0.559360331256E+00
 -0.596892755670E+00 -0.127179802691E+00 -0.792176960039E+00
  0.143907244618E+00 -0.969885577593E+00  0.196501072067E+00
  0.305268106805E+00  0.303049761880E+00  0.902758120867E+00
 -0.624403349060E+00 -0.557556054487E+00  0.547039033148E+00
 -0.828782154340E+00 -0.946816393744E-01 -0.551502971717E+00
  0.673243478340E+00  0.151247584534E+00 -0.723786838126E+00
 -0.553404011157E+00 -0.684992391573E+00  0.473845358660E+00
 -0.894485919913E+00  0.198209157198E+00  0.400759365554E+00
  0.657698489813E+00 -0.166256216724E+00 -0.734705088385E+00
  0.965861451094E+00  0.156780460335E+00  0.206231773856E+00
 -0.420224774246E+00 -0.176813282991E+00 -0.890027079402E+00
  0.626772066190E+00 -0.597171409231E+00  0.500542790419E+00
  0.812584740244E+00 -0.691105414203E-01 -0.578731175060E+00
 -0.871409771157E+00  0.305375892114E+00 -0.383914802070E+00
  0.782375023793E+00 -0.614274566118E+00  0.102742783521E+00
  0.490067960612E+00 -0.708429598124E+00  0.507898511992E+00
 -0.574257629739E+00  0.409025374036E+00  0.709173052281E+00
 -0.567695863021E+00 -0.671163068559E+00 -0.476719563802E+00
 -0.863449514229E-04 -0.832119695595E+00 -0.554596073505E+00
 -0.604061509946E+00  0.233553451440E+00  0.761946505683E+00
  0.639295359208E+00  0.499653729425E+00 -0.584506282573E+00
  0.732513421854E+00  0.604304807503E+00  0.313432267694E+00
  0.683671494863E-01  0.413654400498E+00 -0.907863409231E+00
 -0.137505153024E-01 -0.523822201723E+00 -0.851716633811E+00
 -0.372451800275E+00 -0.550159319488E+00  0.747398407580E+00
  0.929036171071E+00  0.752505474631E-01 -0.362255638947E+00
 -0.531831286064E-01  0.679289919158E+00 -0.731940407794E+00
 -0.541093648398E+00 -0.571766190044E+00 -0.616685566221E+00
 -0.580089835676E-02 -0.766502562739E+00 -0.642215050348E+00
  0.678793251603E+00 -0.485543220124E+00  0.550896998512E+00
 -0.673236580283E+00  0.415475975925E+00  0.611663486239E+00
 -0.320699828161E+00 -0.110445217764E+00 -0.940719657545E+00
 -0.812509389181E+00  0.372662675725E+00 -0.448275610104E+00
 -0.265541396990E+00  0.963809758311E+00 -0.236329488157E-01
 -0.170713293014E+00 -0.951436393131E+00  0.256175255274E+00
  0.924620225973E+00 -0.134596704098E+00  0.356316102595E+00
 -0.179506235507E+00  0.722129848517E+00  0.668061369407E+00
 -0.908425781135E+00  0.414022313855E+00  0.578629743321E-01
  0.971359653523E+00 -0.109537374870E+00 -0.210860112429E+00
  0.215255562054E+00  0.346133065281E+00  0.913157677581E+00
  0.129252184811E+00 -0.893732775248E+00  0.429576069131E+00
  0.261284598244E+00  0.262618471161E+00  0.928849771128E+00
 -0.102204852205E+00  0.974381592746E+00 -0.200336416818E+00
  0.936416598950E-01 -0.659392701302E+00  0.745944036106E+00
 -0.610043835436E+00 -0.518401168516E+00 -0.599255160452E+00
 -0.332376959738E+00  0.835108943864E+00 -0.438313367939E+00
  0.322029525876E+00  0.946724435819E+00  0.313481847658E-02
  0.316532088123E+00 -0.121113864809E+00 -0.940818191225E+00
 -0.902203283437E+00 -0.333374396503E+00 -0.273661738486E+00
  0.717116246382E-01 -0.571211860078E+00 -0.817664022566E+00
  0.531469605160E+00  0.793684898744E+00 -0.295980303901E+00
  0.938963528226E+00  0.322296879575E+00  0.120300515700E+00
  0.749749005740E+00 -0.133892672865E+00  0.648034860594E+00
  0.649629925093E+00  0.330577363929E+00 -0.684616364748E+00
  0.934633499352E-01  0.451172584234E+00 -0.887529098934E+00
  0.692655920288E+00  0.301157252190E+00 -0.655386973889E+00
  0.309373846564E+00 -0.726215508638E+00 -0.613920889103E+00
 -0.161145640213E+00  0.943690421284E+00 -0.288929872838E+00
  0.876783794563E+00 -0.402759908167E+00 -0.262744427085E+00
 -0.222143966926E+00 -0.783002012334E+00  0.580999059069E+00
 -0.541836864740E+00  0.806232231952E+00 -0.237491894957E+00
  0.313496118563E+00 -0.133648495996E-01 -0.949495426235E+00
  0.226220201361E+00  0.696047208231E-01 -0.971586127595E+00
 -0.245733084958E+00 -0.536777404030E+00 -0.807146374259E+00
  0.154475569751E+00  0.981468840160E+00  0.113385246597E+00
 -0.514792973166E+00 -0.167865521149E+00 -0.840719549902E+00
 -0.110363992952E+00  0.321384824757E+00  0.940495392586E+00
 -0.882376909356E+00 -0.146781386542E+00  0.447063993630E+00
  0.588148456899E+00 -0.431045024347E+00 -0.684311025509E+00
 -0.486624451020E+00 -0.841714285634E+00 -0.233909608671E+00
  0.308934517605E+00  0.749450463981E-01  0.948125890298E+00
 -0.626838178099E+00 -0.762714773444E+00  0.159185655283E+00
  0.755914204830E+00  0.625895743977E+00  0.191958934693E+00
 -0.676388554881E+00  0.605573069712E+00 -0.419260992779E+00
 -0.377032780224E+00 -0.693849661954E+00 -0.613529892705E+00
 -0.915596064082E+00 -0.131945978767E+00  0.379834314043E+00
 -0.114442639811E+00  0.993091228366E+00 -0.259363516404E-01
 -0.644917596960E+00  0.174677880145E+00  0.744022130934E+00
 -0.310901212007E+00 -0.188520889041E+00  0.931558001827E+00
 -0.430157108059E+00  0.259086574399E-01 -0.902382182812E+00
  0.296420144086E+00 -0.919375095721E+00  0.258620439152E+00
 -0.800243253379E+00  0.587855516452E+00  0.118476272727E+00
 -0.117855189328E+00  0.862544225701E+00 -0.492064643171E+00
  0.151537482899E+00 -0.976257040129E+00 -0.154785602932E+00
  0.375998267246E+00  0.235214217032E+00  0.896269811571E+00
  0.817068233598E+00 -0.264376989354E+00 -0.512351743576E+00
  0.831145436414E+00  0.538039047090E+00 -0.140396749732E+00
 -0.886279591712E+00 -0.448304496308E+00  0.116325250502E+00
  0.133008490601E+00 -0.911009221138E+00 -0.390347204972E+00
 -0.972052637587E+00 -0.922599946638E-01 -0.215874415215E+00
  0.390740921189E+00  0.635028783751E+00  0.666378253184E+00
  0.250362906430E-01 -0.992039630397E+00 -0.123412138269E+00
 -0.840584888119E+00  0.540768031045E+00 -0.314162770889E-01
 -0.600263630893E+00 -0.179292132501E+00  0.779447178871E+00
  0.544542093660E-01  0.268094089392E-01 -0.998156297718E+00
 -0.213961351727E+00 -0.421066715143E+00 -0.881432562007E+00
 -0.627266927127E+00  0.574203620023E+00 -0.526142950998E+00
  0.835747269977E+00 -0.128757212327E+00 -0.533805283788E+00
  0.901685758608E+00 -0.411264750468E+00  0.133506920217E+00
 -0.284731039438E+00  0.675336666020E+00 -0.680329789668E+00
 -0.141904911439E+00 -0.772231111269E+00 -0.619291617009E+00
  0.546003301735E+00 -0.825413581928E+00 -0.143432260191E+00
  0.881033361289E+00 -0.457133221660E+00  0.121694017729E+00
  0.228130146304E-01 -0.867767882249E+00  0.496445836825E+00
  0.736474997273E+00 -0.676463794153E+00 -0.114612088146E-02
 -0.785258375757E+00  0.494663733981E+00 -0.372393707771E+00
 -0.771304630292E+00  0.584068353347E+00 -0.252889948215E+00
  0.358155255410E+00  0.146411479988E+00 -0.922110888966E+00
POLYGONS                 246                 984
3                  95                  60                  87
3                  83                  95                  87
3                  50                  10                  93
3                  90                  62                 113
3                   1                  65                   7
3                  60                  95                  41
3                  33                  83                  53
3                  10                  50                  53
3                  53                  50                  98
3                  94                  95                  36
3                  95                  83                  36
3                  36                  83                  33
3                  11                  69                  38
3                  38                 107                  11
3                  57                  32                  60
3                  14                  69                  46
3                  60                  32                  46
3                  69                  11                  46
3                  87                  60                  46
3                  46                  11                  87
3                  73                  85                  16
3                  38                  69                   4
3                   4                  26                  38
3                  68                  89                  38
3                  38                  26                  68
3                 103                  89                  68
3                  68                  26                  55
3                  67                  89                 103
3                  38                  89                  12
3                  12                 107                  38
3                  89                  67                  12
3                  12                  67                  63
3                  30                  21                 106
3                   1                  54                 106
3                 106                  54                  30
[...]
CELL_DATA                 246
NORMALS normals float
  0.981751947125E-01 -0.290817937867E+00  0.951728195525E+00
 -0.231420268892E-01 -0.842085588035E-02  0.999696721900E+00
 -0.176616903191E+00  0.935463081440E+00  0.306129535931E+00
 -0.512717155713E+00  0.731054626899E+00 -0.450200234036E+00
 -0.955772622160E+00 -0.283220297142E+00 -0.792777271061E-01
 -0.998546939672E-01 -0.437970454225E+00  0.893426505829E+00
 -0.310080269023E+00  0.497327975785E+00  0.810256201003E+00
 -0.256717780212E+00  0.902009114393E+00  0.347095864099E+00
 -0.477916508206E+00  0.809040085570E+00  0.342125636462E+00
 -0.452963280587E+00  0.432267408069E-01  0.890480609176E+00
 -0.356924555837E+00  0.124144519469E+00  0.925847179467E+00
 -0.372224627279E+00  0.324721381663E+00  0.869485394436E+00
  0.749050260744E+00  0.287940926690E+00  0.596668860941E+00
  0.686377253556E+00  0.357041082442E+00  0.633567621687E+00
  0.262105322287E+00 -0.761126911571E+00  0.593284606670E+00
  0.804023762946E+00 -0.303478783142E+00  0.511318312600E+00
  0.403233318259E+00 -0.490469850897E+00  0.772555639684E+00
  0.436061238700E+00 -0.320297495671E+00  0.840987580390E+00
  0.387973261961E+00 -0.348648754784E+00  0.853182743491E+00
  0.404227895523E+00 -0.336131656613E+00  0.850655816358E+00
  0.398203459785E+00 -0.550977478550E+00 -0.733387907417E+00
  0.775748048438E+00  0.275455824424E+00  0.567749111963E+00
  0.784565158301E+00  0.276098856346E+00  0.555181892631E+00
  0.854658538965E+00  0.457256937681E+00  0.245916397819E+00
  0.848088912330E+00  0.346108606760E+00  0.401190763988E+00
  0.861115264834E+00  0.504674984978E+00  0.615114640296E-01
  0.989756881837E+00  0.125887113126E+00 -0.673331241375E-01
  0.662474188430E+00  0.747567046024E+00 -0.476598506340E-01
  0.614061986169E+00  0.748189145885E+00  0.251278489175E+00
  0.529240547466E+00  0.719394220107E+00  0.449862644588E+00
  0.612532487828E+00  0.790382605963E+00 -0.996431365583E-02
  0.571240870335E+00  0.820542628033E+00 -0.198409586382E-01
 -0.917500346512E+00  0.665063545976E-01 -0.392135204935E+00
 -0.973161379596E+00  0.191388902674E+00 -0.127777999653E+00
 -0.972945367598E+00  0.191864056352E+00 -0.128707014376E+00
 -0.961265429943E+00 -0.251384013295E+00 -0.113025886666E+00
 -0.906733177236E+00 -0.170203776019E+00 -0.385831076934E+00
 -0.813943834870E+00  0.148544425072E+00 -0.561631540653E+00
 -0.553033252353E+00  0.826447305859E+00  0.105541804184E+00
 -0.516807389004E+00  0.738626666632E+00 -0.432828799886E+00
 -0.358354058110E+00  0.901082091155E+00 -0.244199578289E+00
 -0.356997910481E+00  0.910305314126E+00 -0.209515457632E+00
 -0.857782549173E+00  0.509094867663E+00  0.709331660997E-01
 -0.681153165571E+00  0.730680952640E+00 -0.462137477524E-01
 -0.913449347062E+00  0.370781906501E+00 -0.167723189103E+00
 -0.862132479170E+00  0.480990663411E+00  0.159297112564E+00
 -0.932867789794E+00 -0.354073201703E+00 -0.662559778524E-01
 -0.760903906232E+00 -0.521081183256E+00 -0.386651840727E+00
 -0.787356413527E+00 -0.349202509120E+00 -0.508062482085E+00
  0.154215583763E+00 -0.785998164086E+00 -0.598685593428E+00
 -0.146707666441E+00 -0.636080640075E+00  0.757547543015E+00
 -0.487633342564E+00  0.685740642861E+00  0.540345717063E+00
 -0.516400827236E+00  0.758236435485E+00  0.398004640090E+00
 -0.673626675455E+00  0.626309168606E+00  0.392382374012E+00
 -0.654909579005E+00  0.317486094194E+00  0.685781323252E+00
 -0.695625721704E+00  0.281497107023E+00  0.660957059151E+00
  0.491802052763E-01  0.114398315183E+00  0.992216877952E+00
  0.328020826500E+00  0.490433616293E+00  0.807389128854E+00
  0.262794367256E-01  0.565110434084E+00  0.824596621686E+00
  0.958294764203E-01  0.612225408156E+00  0.784854611414E+00
  0.651078302547E-01  0.218818425367E+00  0.973591016372E+00
  0.255344734687E+00  0.312640896297E+00  0.914906955067E+00
  0.477764890810E+00  0.424592316883E+00  0.769065714717E+00
  0.642335057397E+00  0.364100620134E+00  0.674415608105E+00
  0.396420782099E+00  0.128253913693E+00  0.909066277640E+00
  0.307300711684E+00  0.174114123505E+00  0.935548258827E+00
  0.318520624661E+00  0.244514610875E+00  0.915836894176E+00
  0.329868824537E+00 -0.831352328452E+00  0.447258163231E+00
  0.357088458735E+00 -0.934064472201E+00  0.337556072855E-02
  0.569017301794E+00 -0.790419247737E+00  0.226840743841E+00
 -0.681733985074E-01 -0.995123259511E+00  0.712887516836E-01
  0.178159567381E+00 -0.822861165477E+00 -0.539591207212E+00
  0.350259341480E+00 -0.895214961815E+00 -0.275515091870E+00
 -0.135524880883E+00 -0.931489584699E+00 -0.337579857602E+00
  0.528650060613E-01 -0.961288772635E+00 -0.270424086835E+00
  0.396514845812E+00 -0.836366897530E+00 -0.378505468608E+00
  0.398098739026E+00 -0.836850077816E+00 -0.375765008010E+00
  0.708922140322E+00 -0.636095900424E+00  0.304649642089E+00
  0.616080346292E+00 -0.738951411707E+00  0.272755967946E+00
  0.666727820942E+00 -0.541645312830E+00  0.511951528830E+00
  0.473820955601E+00 -0.535993881061E+00  0.698716152310E+00
  0.830994643551E+00 -0.456154650367E+00  0.318387872472E+00
  0.794240729573E+00 -0.533679285405E+00  0.290461845717E+00
  0.696814246464E+00 -0.637910668724E+00 -0.327902248625E+00
  0.719973501227E+00 -0.521450969110E+00 -0.457959653621E+00
  0.952994728057E+00 -0.295658394079E+00 -0.662356573636E-01
  0.916102528671E+00 -0.395464683277E+00 -0.660593766447E-01
  0.962339558286E+00  0.380403748483E-02  0.271823663167E+00
  0.986980766215E+00 -0.142255377806E+00  0.750491479391E-01
  0.991921676204E+00 -0.100580650573E+00  0.772976131971E-01
  0.859908661238E+00 -0.361504721443E+00  0.360376789906E+00
  0.818987885756E+00 -0.295857708398E+00  0.491657461417E+00
  0.831464110342E+00 -0.244243057494E+00  0.499011785512E+00
  0.453364690660E+00  0.762689489643E+00  0.461264782582E+00
  0.832655818106E-01  0.665259415338E+00  0.741954684054E+00
  0.986832957229E-01  0.631209651413E+00  0.769308769681E+00
  0.308928296429E+00  0.934868965314E+00  0.174880889059E+00
 -0.108098868094E+00  0.951501293705E+00  0.288027642412E+00
  0.189792053054E+00  0.920840759453E+00  0.340633633583E+00
  0.239063285381E+00  0.913284446524E+00  0.329788212827E+00
 -0.454691803629E+00  0.699508304394E+00 -0.551310707130E+00
 -0.199044504016E+00  0.476174748120E+00 -0.856527229383E+00
  0.617887508510E-01 -0.263664494983E+00 -0.962633463138E+00
 -0.190655625603E+00  0.974547811726E+00 -0.117927923265E+00
 -0.244065947053E+00  0.955013505931E+00 -0.168466664293E+00
  0.944305384940E-01  0.990532749766E+00 -0.996380702409E-01
  0.123219602657E+00  0.984719672574E+00 -0.123061350421E+00
  0.214424302014E+00  0.922237412347E+00 -0.321714740063E+00
  0.212760232243E+00  0.920133837432E+00 -0.328765577255E+00
  0.127257341327E+00  0.804438286528E+00 -0.580245303511E+00
  0.186194573733E+00  0.914028982210E+00 -0.360392286811E+00
  0.562334719874E-01  0.931247798302E+00 -0.360021297684E+00
 -0.214456342995E+00  0.890438790697E+00 -0.401406573155E+00
 -0.242781973561E+00  0.786914038577E+00 -0.567294640556E+00
 -0.152506637693E+00  0.765085853222E+00 -0.625607994402E+00
 -0.719219024748E+00  0.503827747209E+00 -0.478415714189E+00
 -0.721958352379E+00  0.490330469105E+00 -0.488213240806E+00
 -0.656908758621E+00  0.698225364688E+00 -0.284521041320E+00
 -0.690967607321E+00  0.718922926093E+00 -0.755883057795E-01
 -0.738457763419E+00  0.578444899854E+00 -0.346527963489E+00
 -0.889345459107E+00  0.412341322082E+00 -0.197583623991E+00
 -0.885515428839E+00  0.415662575108E+00 -0.207574201055E+00
 -0.979774550520E+00  0.148977337632E+00  0.133594846550E+00
 -0.954431818986E+00  0.233543146348E+00  0.185788863232E+00
 -0.779892994321E+00  0.228564867002E+00  0.582687754275E+00
 -0.805201860711E+00  0.370540746554E+00  0.462978961347E+00
 -0.485249514160E+00 -0.666721042034E+00 -0.565699532540E+00
 -0.597070284740E+00 -0.596108542082E+00 -0.536806930970E+00
 -0.577986738253E+00  0.310162282552E+00 -0.754805066813E+00
 -0.470508296536E+00  0.377986499265E+00 -0.797338164936E+00
 -0.189110084107E+00  0.229642482417E+00 -0.954725984960E+00
 -0.295670456382E+00  0.367679368455E+00 -0.881697716474E+00
  0.151859998431E+00 -0.693229352095E+00 -0.704536447794E+00
 -0.616672373242E-01 -0.653379205715E+00 -0.754514920582E+00
  0.342319951962E+00 -0.511290487866E+00 -0.788288708219E+00
  0.331070494515E+00 -0.412312364176E+00 -0.848758412040E+00
  0.174660174332E+00 -0.347116364153E+00 -0.921414159452E+00
 -0.401739535171E+00 -0.558630772171E+00 -0.725628697244E+00
 -0.156692653770E+00 -0.886701194893E+00  0.434980922834E+00
 -0.374055411728E-01 -0.933979124456E+00  0.355364349042E+00
 -0.244690478593E-03 -0.932324317285E+00  0.361623156788E+00
  0.185717282027E+00 -0.779471847882E+00  0.598274794317E+00
 -0.400483082123E-01 -0.761286291788E+00  0.647177962345E+00
 -0.399434791100E+00 -0.689569586901E+00  0.604107302124E+00
 -0.418951604110E+00 -0.853923885520E+00  0.308696535697E+00
 -0.373281529001E+00 -0.846413281222E+00  0.379796600139E+00
 -0.464343249518E+00  0.300070656746E-01  0.885146836766E+00
 -0.757343772347E+00 -0.302571150154E-01  0.652315044651E+00
 -0.445338103881E+00 -0.344957394635E+00  0.826243528942E+00
 -0.871975448711E+00 -0.358491881710E+00  0.333380244756E+00
 -0.865005407092E+00 -0.366028433539E+00  0.343203775536E+00
  0.305518514738E+00 -0.951886118013E+00  0.239009515695E-01
  0.270314631158E-01 -0.997888389447E+00  0.590598188945E-01
  0.128849119192E+00 -0.991446444125E+00  0.207810710638E-01
  0.159741464901E+00 -0.935334100489E+00  0.315646613878E+00
  0.179956457593E+00 -0.931634849446E+00  0.315709012649E+00
  0.541479409638E+00 -0.828549261096E+00  0.142499722370E+00
  0.568619873181E+00 -0.791856448397E+00  0.222788700244E+00
  0.713707435494E+00 -0.639338531625E+00 -0.286125738968E+00
  0.848636419886E+00 -0.525521642182E+00 -0.603591786024E-01
  0.852700296008E+00 -0.515862931853E+00 -0.823871393340E-01
 -0.390189147993E+00 -0.919603180147E+00  0.456335386838E-01
 -0.274010130021E+00 -0.960955311984E+00 -0.385141144926E-01
 -0.752512012433E+00 -0.630160198636E+00 -0.191373444342E+00
 -0.405209276925E+00 -0.806244518446E+00 -0.431016494313E+00
 -0.754239634538E+00 -0.641475153434E+00 -0.140114957153E+00
 -0.758810399743E+00 -0.632497337696E+00 -0.155415234292E+00
 -0.199642768802E+00 -0.922452001494E+00 -0.330492163001E+00
  0.706577618996E+00  0.610401641689E+00 -0.357991486152E+00
  0.571341694213E+00  0.671937825761E+00 -0.471241155636E+00
  0.479461309377E+00  0.588667507602E+00 -0.650835938085E+00
 -0.164576533690E+00  0.229808995329E+00 -0.959219677772E+00
 -0.906454387294E-01  0.520724359191E+00 -0.848899020015E+00
  0.209607833578E+00  0.639336526741E+00 -0.739806300107E+00
  0.253392804219E+00  0.608411373032E+00 -0.752082234822E+00
  0.283495471364E+00  0.411488682427E+00 -0.866202852656E+00
  0.124346216445E+00  0.407225100625E+00 -0.904823593789E+00
  0.468411228183E+00 -0.282363376718E+00 -0.837174918879E+00
  0.513684099135E+00  0.245505200237E+00 -0.822104520698E+00
  0.532652879229E+00  0.302466420469E-02 -0.846328400596E+00
  0.308284327418E+00  0.344417069666E+00 -0.886756818745E+00
  0.721891395585E+00 -0.517388518590E+00 -0.459545355555E+00
  0.704284371916E+00 -0.306828113297E+00 -0.640187497821E+00
  0.751316840653E+00 -0.202822432964E+00 -0.628001644614E+00
  0.909071097746E+00 -0.231972335906E+00 -0.346090413934E+00
  0.910115023509E+00 -0.184074479254E+00 -0.371223962146E+00
  0.919436879530E+00 -0.100821703545E+00 -0.380093157864E+00
  0.984481822037E+00  0.147164062534E+00 -0.955943553582E-01
  0.946923877947E+00  0.277820857602E+00 -0.161711905730E+00
  0.841743738760E+00  0.367599850127E+00 -0.395395787085E+00
 -0.829015010624E+00  0.244714650951E+00 -0.502840781730E+00
 -0.844769900971E+00  0.405721710605E+00 -0.348932239778E+00
 -0.779115297644E+00  0.447241828245E+00 -0.439265409571E+00
 -0.991450047401E-01 -0.652105494761E+00 -0.751617383871E+00
 -0.108480566573E+00 -0.648776637009E+00 -0.753207037903E+00
 -0.239911479893E+00 -0.667895063993E+00 -0.704527263710E+00
 -0.665646176772E-01 -0.800728477902E+00 -0.595317609642E+00
 -0.219056399374E+00 -0.907074479886E+00 -0.359485996713E+00
 -0.296284848753E+00 -0.857940097264E+00 -0.419707133495E+00
 -0.707974621050E+00 -0.293065280983E+00 -0.642561029811E+00
 -0.700106324383E+00  0.159243394981E+00 -0.696055080948E+00
 -0.658703020927E+00  0.194121779585E+00 -0.726929889957E+00
 -0.476001401581E+00 -0.622182003032E+00  0.621540200466E+00
 -0.561183278187E+00 -0.406997805552E+00  0.720712227285E+00
 -0.645745499782E+00 -0.369375618821E+00  0.668262225277E+00
 -0.805639484989E+00 -0.460139408158E+00  0.373117602490E+00
 -0.753411467658E+00 -0.579276249205E+00  0.311143355237E+00
 -0.738083993603E+00 -0.594484955919E+00  0.319091923390E+00
 -0.865638390003E+00 -0.359590640673E+00  0.348374437773E+00
 -0.893623057505E+00  0.287508948168E-01  0.447896435733E+00
 -0.771322346136E+00 -0.179329539386E-01  0.636191989508E+00
 -0.806116078545E+00  0.508377299115E-01  0.589569667748E+00
 -0.965686047336E+00 -0.256102614703E+00 -0.431498403549E-01
 -0.954779116892E+00 -0.174798463447E+00  0.240504334936E+00
 -0.980980283684E+00  0.110608020708E+00  0.159510340664E+00
 -0.972280229449E+00  0.476594887754E-01  0.228909869930E+00
  0.515419239984E+00  0.247096863350E+00 -0.820540155737E+00
  0.567807411119E+00  0.444812619008E+00 -0.692630116188E+00
  0.712887371663E+00 -0.107904150855E-01 -0.701195523564E+00
  0.752396384069E+00 -0.184175856171E+00 -0.632438878663E+00
  0.883360216464E+00 -0.990776114579E-02 -0.468589974539E+00
  0.511015868996E+00 -0.546841607542E-01 -0.857830067203E+00
  0.528670487389E+00 -0.228640553605E-02 -0.848824061931E+00
  0.841718886681E+00  0.367512825714E+00 -0.395529567467E+00
  0.686379667707E+00  0.401129039270E+00 -0.606612269587E+00
  0.653193983958E+00  0.242676914670E+00 -0.717248586201E+00
  0.816363694426E+00  0.148893386641E+00 -0.558015302512E+00
  0.823735739796E+00  0.153829370035E+00 -0.545706840617E+00
  0.311381606173E+00  0.753252894742E-01 -0.947294883393E+00
  0.103087488424E+00  0.192165519436E+00 -0.975933083193E+00
  0.217972661889E+00  0.235640675910E+00 -0.947080456205E+00
  0.171212082409E+00 -0.773784132911E-01 -0.982190920338E+00
  0.178011369189E+00 -0.740055681760E-01 -0.981241625859E+00
 -0.523827156866E+00 -0.419429937406E-01 -0.850791334585E+00
 -0.466656385801E+00 -0.765644625189E-01 -0.881118437368E+00
 -0.597517470518E+00 -0.338394717134E+00 -0.726953841617E+00
 -0.500370767931E+00 -0.394822089362E+00 -0.770548254395E+00
 -0.460315717334E+00 -0.407500476031E+00 -0.788703241029E+00
 -0.452855753322E+00 -0.402675575140E+00 -0.795470959790E+00
 -0.192712724385E+00  0.119150784875E+00 -0.973994299944E+00
 -0.412116022628E+00 -0.755303068129E-01 -0.907995350564E+00
  0.108345561216E-01 -0.258252734500E+00 -0.966016634182E+00
 -0.721111917652E-01 -0.210846342522E+00 -0.974855782086E+00
 -0.134940516471E+00 -0.508802738044E+00 -0.850241630817E+00
 -0.437363254949E+00 -0.397718085548E+00 -0.806556698347E+00
 -0.285517639949E+00 -0.273430152222E+00 -0.918539944223E+00
SCALARS inclination float 1
LOOKUP_TABLE default
  0.100000000000E+01
  0.100000000000E+01
  0.100000000000E+01
  0.100000000000E+01
  0.100000000000E+01
  0.100000000000E+01
  0.100000000000E+01
  0.100000000000E+01
  0.100000000000E+01
  0.100000000000E+01
  0.100000000000E+01
  0.100000000000E+01
  0.100000000000E+01
  0.100000000000E+01
  0.100000000000E+01
  0.100000000000E+01
  0.100000000000E+01
  0.100000000000E+01
  0.100000000000E+01
  0.100000000000E+01
  0.100000000000E+01
  0.100000000000E+01
  0.100000000000E+01
  0.100000000000E+01
  0.100000000000E+01
  0.100000000000E+01
  0.100000000000E+01
  0.100000000000E+01
  0.100000000000E+01
  0.100000000000E+01
  0.100000000000E+01
  0.100000000000E+01
  0.100000000000E+01
  0.100000000000E+01
  0.100000000000E+01
  0.100000000000E+01
  0.100000000000E+01
  0.100000000000E+01
  0.100000000000E+01
  0.100000000000E+01
  0.100000000000E+01
  0.100000000000E+01
  0.100000000000E+01
  0.100000000000E+01
  0.100000000000E+01
  0.100000000000E+01
  0.100000000000E+01
  0.100000000000E+01
  0.100000000000E+01
  0.100000000000E+01
  0.100000000000E+01
  0.100000000000E+01
  0.100000000000E+01
  0.100000000000E+01
  0.100000000000E+01
  0.100000000000E+01
  0.100000000000E+01
  0.100000000000E+01
  0.100000000000E+01
  0.100000000000E+01
  0.100000000000E+01
  0.100000000000E+01
  0.100000000000E+01
  0.100000000000E+01
  0.100000000000E+01
  0.100000000000E+01
  0.100000000000E+01
  0.100000000000E+01
  0.100000000000E+01
  0.100000000000E+01
  0.100000000000E+01
  0.100000000000E+01
  0.100000000000E+01
  0.100000000000E+01
  0.100000000000E+01
  0.100000000000E+01
  0.100000000000E+01
  0.100000000000E+01
  0.100000000000E+01
  0.100000000000E+01
  0.100000000000E+01
  0.100000000000E+01
  0.100000000000E+01
  0.100000000000E+01
  0.100000000000E+01
  0.100000000000E+01
  0.100000000000E+01
  0.100000000000E+01
  0.100000000000E+01
  0.100000000000E+01
  0.100000000000E+01
  0.100000000000E+01
  0.100000000000E+01
  0.100000000000E+01
  0.100000000000E+01
  0.100000000000E+01
  0.100000000000E+01
  0.100000000000E+01
  0.100000000000E+01
  0.100000000000E+01
  0.100000000000E+01
  0.100000000000E+01
  0.100000000000E+01
  0.100000000000E+01
  0.100000000000E+01
  0.100000000000E+01
  0.100000000000E+01
  0.100000000000E+01
  0.100000000000E+01
  0.100000000000E+01
  0.100000000000E+01
  0.100000000000E+01
  0.100000000000E+01
  0.100000000000E+01
  0.100000000000E+01
  0.100000000000E+01
  0.100000000000E+01
  0.100000000000E+01
  0.100000000000E+01
  0.100000000000E+01
  0.100000000000E+01
  0.100000000000E+01
  0.100000000000E+01
  0.100000000000E+01
  0.100000000000E+01
  0.100000000000E+01
  0.100000000000E+01
  0.100000000000E+01
  0.100000000000E+01
  0.100000000000E+01
  0.100000000000E+01
  0.100000000000E+01
  0.100000000000E+01
  0.100000000000E+01
  0.100000000000E+01
  0.100000000000E+01
  0.100000000000E+01
  0.100000000000E+01
  0.100000000000E+01
  0.100000000000E+01
  0.100000000000E+01
  0.100000000000E+01
  0.100000000000E+01
  0.100000000000E+01
  0.100000000000E+01
  0.100000000000E+01
  0.100000000000E+01
  0.100000000000E+01
  0.100000000000E+01
  0.100000000000E+01
  0.100000000000E+01
  0.100000000000E+01
  0.100000000000E+01
  0.100000000000E+01
  0.100000000000E+01
  0.100000000000E+01
  0.100000000000E+01
  0.100000000000E+01
  0.100000000000E+01
  0.100000000000E+01
  0.100000000000E+01
  0.100000000000E+01
  0.100000000000E+01
  0.100000000000E+01
  0.100000000000E+01
  0.100000000000E+01
  0.100000000000E+01
  0.100000000000E+01
  0.100000000000E+01
  0.100000000000E+01
  0.100000000000E+01
  0.100000000000E+01
  0.100000000000E+01
  0.100000000000E+01
  0.100000000000E+01
  0.100000000000E+01
  0.100000000000E+01
  0.100000000000E+01
  0.100000000000E+01
  0.100000000000E+01
  0.100000000000E+01
  0.100000000000E+01
  0.100000000000E+01
  0.100000000000E+01
  0.100000000000E+01
  0.100000000000E+01
  0.100000000000E+01
  0.100000000000E+01
  0.100000000000E+01
  0.100000000000E+01
  0.100000000000E+01
  0.100000000000E+01
  0.100000000000E+01
  0.100000000000E+01
  0.100000000000E+01
  0.100000000000E+01
  0.100000000000E+01
  0.100000000000E+01
  0.100000000000E+01
  0.100000000000E+01
  0.100000000000E+01
  0.100000000000E+01
  0.100000000000E+01
  0.100000000000E+01
  0.100000000000E+01
  0.100000000000E+01
  0.100000000000E+01
  0.100000000000E+01
  0.100000000000E+01
  0.100000000000E+01
  0.100000000000E+01
  0.100000000000E+01
  0.100000000000E+01
  0.100000000000E+01
  0.100000000000E+01
  0.100000000000E+01
  0.100000000000E+01
  0.100000000000E+01
  0.100000000000E+01
  0.100000000000E+01
  0.100000000000E+01
  0.100000000000E+01
  0.100000000000E+01
  0.100000000000E+01
  0.100000000000E+01
  0.100000000000E+01
  0.100000000000E+01
  0.100000000000E+01
  0.100000000000E+01
  0.100000000000E+01
  0.100000000000E+01
  0.100000000000E+01
  0.100000000000E+01