# vtk DataFile Version 3.0
MachLine results file. Generated by MachLine, USU AeroLab (c) 2022.
ASCII
DATASET POLYDATA
POINTS                 125 float
  0.993398409460E+00  0.111930583553E+00  0.251225903855E-01
 -0.449134395581E+00 -0.823386161468E+00  0.346862398954E+00
 -0.747183599120E+00 -0.245655077825E+00 -0.617551821263E+00
 -0.601770438940E+00 -0.709295804779E+00  0.367112789398E+00
 -0.915104643213E+00  0.399091498251E+00 -0.575279757440E-01
 -0.913384054962E+00  0.573681325088E-01  0.403036556052E+00
 -0.530292390119E+00 -0.167489505339E+00 -0.831106038110E+00
 -0.620194880224E-01 -0.991569064935E+00 -0.113773338574E+00
  0.772806484168E+00 -0.629180411777E+00  0.830791638319E-01
 -0.399836096732E+00  0.365470039649E+00 -0.840572867674E+00
 -0.887647322046E+00  0.420256055185E+00 -0.188327055263E+00
 -0.354730630289E+00 -0.731519140013E+00  0.582276504532E+00
  0.820470240580E+00  0.349149305863E+00  0.452684599405E+00
 -0.582454109029E+00  0.793443473964E+00  0.176620113520E+00
 -0.150669519096E+00 -0.399100134203E+00 -0.904443353060E+00
 -0.135830908350E+00 -0.825524775675E+00  0.547776239978E+00
 -0.405354985456E+00  0.855776619119E+00 -0.321455617364E+00
 -0.119081334408E-01  0.706813709447E+00 -0.707299495614E+00
  0.394896148352E+00  0.450261792981E+00 -0.800825417803E+00
  0.334382732816E+00  0.931614516898E+00  0.142416922798E+00
 -0.128428448659E+00 -0.155215932680E+00  0.979496885047E+00
  0.143398955647E+00 -0.593979228548E+00 -0.791596750608E+00
  0.701129715491E+00 -0.710921321845E+00  0.548452021717E-01
 -0.479356304205E+00  0.829721930146E+00 -0.285970369537E+00
  0.611602254901E+00 -0.537266125499E+00  0.580764833810E+00
 -0.821597853081E+00  0.690244435805E-01  0.565873302074E+00
 -0.329525477711E+00  0.612504652313E+00 -0.718506096309E+00
  0.593279435209E+00  0.147740130490E+00 -0.791323173931E+00
 -0.181269713790E+00  0.969567480468E+00  0.164560601853E+00
  0.355619126628E+00  0.532826321861E+00  0.767874434728E+00
  0.833296005891E+00  0.613814448526E-02  0.552792989960E+00
 -0.945361713266E+00  0.129956868447E-01  0.325764244838E+00
  0.680348241978E+00  0.618511920211E+00  0.393152990825E+00
 -0.575730374554E+00  0.367203262111E+00 -0.730545207438E+00
  0.639750577356E+00 -0.481334164878E+00 -0.599196645929E+00
 -0.106941675049E+00 -0.993950807395E+00 -0.250054117265E-01
 -0.526154881582E+00  0.197546839304E+00 -0.827125315093E+00
 -0.316547448342E-01  0.658397503711E+00 -0.752004457591E+00
 -0.569260326491E+00 -0.820149015239E+00  0.574305971255E-01
 -0.165018832745E-01  0.961115596746E+00  0.275652856943E+00
  0.374842837035E+00  0.213542364802E+00 -0.902159911523E+00
 -0.328098910805E-01 -0.973933880707E+00  0.224446668630E+00
  0.785771835083E+00  0.526648377918E+00 -0.324351829387E+00
  0.411087771260E+00 -0.783637376505E+00  0.465745967740E+00
 -0.160853769550E+00 -0.857422912054E+00 -0.488827182863E+00
  0.352533123589E+00  0.637442497869E+00  0.685118572718E+00
  0.602357025056E+00  0.780382211352E+00  0.167838072474E+00
 -0.604649188435E+00 -0.183549009096E+00  0.775054269187E+00
 -0.405904962078E+00  0.757961451540E+00 -0.510622756778E+00
 -0.918623051087E+00  0.142115758399E+00 -0.368693370196E+00
  0.128591862025E+00 -0.907022616460E+00 -0.400966465245E+00
 -0.195128745869E+00 -0.962164114713E+00 -0.190170946505E+00
  0.863031360835E+00 -0.484281315085E+00  0.143695783082E+00
 -0.323691866505E+00  0.675447973595E+00  0.662565929191E+00
  0.747918812749E+00 -0.625830446627E+00 -0.221254834095E+00
 -0.996279638510E+00 -0.768157244783E-02 -0.858363287649E-01
 -0.545466333462E+00  0.553355160922E+00  0.629495468562E+00
  0.995742754250E+00  0.536795011271E-01 -0.749324930621E-01
  0.460109016216E+00 -0.197875748718E+00 -0.865531559948E+00
  0.543422300889E+00  0.517724819222E+00 -0.660797408029E+00
 -0.479762643933E+00 -0.871807638499E+00  0.988900750375E-01
 -0.128694917575E+00 -0.324604924553E+00 -0.937053499618E+00
 -0.710379546106E+00 -0.124055784586E+00  0.692799439077E+00
  0.523421973140E+00  0.651589576574E-01  0.849578570981E+00
  0.475375552053E-01  0.469632911213E+00  0.881581028353E+00
 -0.195243139419E+00  0.151606944876E+00 -0.968966176280E+00
 -0.466270950407E-01  0.778617902126E+00  0.625763594735E+00
 -0.489777638292E-01  0.656191098224E+00 -0.753003599767E+00
  0.608080562956E+00  0.686328668722E+00 -0.398987452742E+00
  0.520086682308E+00 -0.226666167233E+00 -0.823487881828E+00
 -0.197716793159E+00  0.593590028512E-02 -0.980241212555E+00
  0.995606860804E+00  0.806277376923E-01 -0.476040611110E-01
 -0.755839983149E+00  0.469797123989E+00  0.456066422975E+00
 -0.385583175026E+00 -0.860153415704E+00 -0.333858827335E+00
  0.509356403655E-01 -0.408014373950E+00 -0.911553526235E+00
  0.276003434154E+00 -0.768569418523E+00 -0.577168219193E+00
  0.895672419514E+00  0.422632611544E+00 -0.138392892095E+00
 -0.543416242688E+00  0.730674202129E+00  0.413296500743E+00
 -0.188891048761E+00 -0.449170853868E+00 -0.873250087737E+00
  0.746758266433E+00 -0.651459325855E-01 -0.661897347767E+00
  0.780515385320E+00  0.624986404756E+00  0.137013557073E-01
 -0.529716937418E+00 -0.847850667634E+00  0.234352641320E-01
 -0.630173889210E+00 -0.746037032648E+00 -0.215196689743E+00
  0.273247742817E+00 -0.290929318222E+00  0.916894651988E+00
 -0.402155121227E+00 -0.498121744438E+00 -0.768209597824E+00
 -0.551934027244E+00  0.830065683697E+00 -0.797482935244E-01
  0.140760643960E+00  0.836057774417E+00 -0.530277134100E+00
 -0.491832089202E+00 -0.657754373204E+00 -0.570491350120E+00
 -0.530998889494E+00  0.554480550447E+00  0.640774140031E+00
 -0.506759171481E+00 -0.808295020559E+00  0.299757071410E+00
 -0.234363421158E+00  0.958207377093E+00  0.164050020751E+00
  0.659039894459E+00  0.347123663816E+00 -0.667211795107E+00
  0.433201494102E+00 -0.598828490904E+00 -0.673602927539E+00
 -0.669656934126E+00  0.527326287607E+00 -0.522959441043E+00
  0.950482667420E+00  0.226957491854E+00 -0.212304017452E+00
 -0.204709677118E+00 -0.446730087000E+00 -0.870934083306E+00
 -0.906542807796E+00 -0.337567708633E+00  0.253432791332E+00
 -0.973253923035E+00  0.566886129675E-01 -0.222627946262E+00
 -0.481395759578E+00  0.473341954540E-02 -0.876490568916E+00
 -0.804596458714E+00 -0.572181715191E+00  0.158847799563E+00
 -0.507172000484E+00  0.598582588015E+00  0.620060841571E+00
 -0.373135113762E+00  0.638322621121E+00  0.673286282530E+00
  0.372609727963E+00 -0.331269269564E+00  0.866846388739E+00
 -0.295602211883E+00  0.544192688027E+00 -0.785158360223E+00
 -0.941526363801E+00  0.276885079785E+00  0.191996767836E+00
  0.394671970996E+00 -0.788997101351E+00 -0.470868993850E+00
 -0.703436099220E+00 -0.656550959703E+00  0.272247115003E+00
  0.761774707433E+00  0.375030722205E+00 -0.528253019411E+00
  0.320364860588E+00  0.440208391882E+00  0.838798502513E+00
  0.499027176452E+00  0.132447231642E+00 -0.856405049023E+00
  0.464086912165E+00 -0.759224267720E+00  0.456291408271E+00
 -0.992694908043E+00 -0.491850392253E-01  0.110171010083E+00
 -0.276631502399E+00 -0.726725473477E+00  0.628764739852E+00
  0.457098530649E+00  0.112129045747E+00 -0.882319675842E+00
  0.647785360348E+00 -0.294573711522E+00  0.702567046906E+00
 -0.482181611080E+00  0.222759505948E+00  0.847277461311E+00
 -0.311270233851E-02 -0.692989610780E+00 -0.720940850858E+00
  0.848838988396E+00 -0.404497246317E+00 -0.340373837862E+00
  0.569527270632E+00 -0.690189179187E+00 -0.446405180233E+00
  0.898463807508E+00  0.386597441177E+00  0.208099027083E+00
 -0.555765868657E+00 -0.641164055879E-01  0.828862706225E+00
 -0.280782198643E+00 -0.312387785503E+00  0.907510456355E+00
  0.738436416461E-01 -0.997266440479E+00 -0.260063107859E-02
  0.511062185705E+00  0.246441043203E+00 -0.823457500159E+00
 -0.687314896350E+00 -0.314535441047E+00  0.654725659784E+00
POLYGONS                 246                 984
3                  52                 114                  24
3                  55                  97                   2
3                  59                 107                  91
3                  59                  86                  68
3                  68                 107                  59
3                   3                 124                 106
3                  44                  73                  87
3                  15                  41                  43
3                 122                  22                  43
3                  43                  41                 122
3                  53                  77                 101
3                  20                 115                 120
3                  24                 114                 102
3                 102                  43                  24
3                 102                  83                  15
3                  15                  43                 102
3                  11                 124                   3
3                  96                 124                  62
3                  96                 106                 124
3                  62                 120                  25
3                  25                 120                 115
3                   8                  52                  24
3                 106                  96                  99
3                  99                  96                  55
3                  87                   2                  84
3                  49                   2                  97
3                  49                  10                  93
3                  97                  10                  49
3                  86                  16                  28
3                 107                  68                  42
3                  76                  94                  42
3                  42                  94                 107
3                 105                 118                  22
3                 105                  22                 122
3                 122                  50                 105
[...]
CELL_DATA                 246
NORMALS normals float
  0.831549631223E+00 -0.343174916535E+00  0.436756439534E+00
 -0.908842369210E+00 -0.297113265794E+00 -0.292795586063E+00
  0.661771550792E+00  0.470434983731E+00 -0.583737390137E+00
  0.391435257409E+00  0.726628093980E+00 -0.564614959327E+00
  0.665613068866E+00  0.541763033282E+00 -0.513275811161E+00
 -0.713871825002E+00 -0.506793085600E+00  0.483267820009E+00
 -0.345854600104E+00 -0.784083963057E+00 -0.515360974913E+00
  0.134940941675E+00 -0.883520455400E+00  0.448533774815E+00
  0.402672085831E+00 -0.906942679992E+00  0.123734257589E+00
  0.277322962288E+00 -0.933762650417E+00  0.226228396259E+00
 -0.428270487410E+00  0.725811365313E+00  0.538314268431E+00
 -0.327897396114E+00  0.234833142463E-01  0.944421426892E+00
  0.501797997379E+00 -0.446594242920E+00  0.740778207035E+00
  0.335695663567E+00 -0.608789497160E+00  0.718807185280E+00
  0.130602004447E+00 -0.629050386806E+00  0.766315031364E+00
  0.161324956943E+00 -0.647027181112E+00  0.745204727018E+00
 -0.572074036662E+00 -0.560348582417E+00  0.598949716387E+00
 -0.855136784697E+00 -0.199210140503E+00  0.478598369596E+00
 -0.766875937625E+00 -0.462019627709E+00  0.445465105146E+00
 -0.677361277437E+00  0.898068115729E-01  0.730148229077E+00
 -0.665935268506E+00  0.123588617196E+00  0.735701075070E+00
  0.725215226217E+00 -0.595878520051E+00  0.344951685029E+00
 -0.799444328430E+00 -0.488399975734E+00  0.349791694361E+00
 -0.926870652249E+00 -0.360334974864E+00 -0.105211690841E+00
 -0.614174473381E+00 -0.454258212776E+00 -0.645320999483E+00
 -0.900519133839E+00 -0.132316695045E+00 -0.414195101131E+00
 -0.828879736626E+00  0.366429167043E+00 -0.422715090517E+00
 -0.946606609246E+00  0.242890928094E+00 -0.211990387476E+00
 -0.443701511512E-01  0.977057866084E+00 -0.208300782550E+00
  0.688738323239E+00  0.540635782949E+00 -0.483065701843E+00
  0.876639172364E+00  0.364282914329E+00 -0.314327408611E+00
  0.868369906936E+00  0.343540794645E+00 -0.357649866690E+00
  0.502668111248E+00 -0.848184509588E+00 -0.167056300774E+00
  0.421114403076E+00 -0.900089909416E+00 -0.111807041321E+00
  0.365519344937E+00 -0.917367733425E+00 -0.157581883943E+00
  0.466428275490E+00 -0.687657237937E+00 -0.556392116169E+00
  0.551208206412E+00 -0.605382893574E+00 -0.574178600569E+00
 -0.538745096754E+00 -0.744283468224E+00 -0.394709817020E+00
 -0.481493595970E+00 -0.860855745061E+00 -0.164594359670E+00
 -0.749557735314E+00 -0.512319251748E+00 -0.419156516971E+00
 -0.886258988585E+00 -0.397900748579E+00 -0.237107569325E+00
 -0.887637799779E+00 -0.400196137618E+00 -0.227908288220E+00
  0.891027241815E-01 -0.110725407166E+00 -0.989848770647E+00
  0.148978279450E+00 -0.741302179079E-01 -0.986057900453E+00
  0.539384910443E+00 -0.403108971844E-01 -0.841093900795E+00
 -0.387285046455E-01 -0.550467773312E+00 -0.833957632901E+00
 -0.256161359128E+00 -0.698088177466E+00 -0.668621159231E+00
 -0.257647735305E+00 -0.691341180780E+00 -0.675029641016E+00
  0.298753060688E-01 -0.825092689967E+00 -0.564206982454E+00
 -0.227119881654E+00 -0.910555972569E+00 -0.345404661488E+00
 -0.589483696128E-01 -0.939876807103E+00 -0.336387688819E+00
 -0.392263687416E+00 -0.911061588412E+00 -0.126869939921E+00
 -0.356722820939E+00 -0.932291939072E+00 -0.598378589498E-01
  0.410155824066E+00 -0.638045883502E+00  0.651666824789E+00
  0.435632280610E+00 -0.887462774627E+00  0.150447132713E+00
  0.683674391484E+00 -0.645407861724E+00  0.340643535758E+00
  0.660296147892E+00 -0.685191984153E+00  0.307442583145E+00
 -0.525534178585E+00 -0.847099394911E+00  0.789711484040E-01
 -0.700975982404E+00 -0.706146788592E+00  0.999469111837E-01
 -0.615062656907E+00 -0.784814454911E+00 -0.759223250530E-01
 -0.729771847451E+00 -0.683313796450E+00 -0.227003579045E-01
 -0.227678515809E+00 -0.910437558119E+00  0.345349020856E+00
 -0.274947894046E+00 -0.936681868665E+00  0.216865701471E+00
 -0.292521874463E+00 -0.845269093956E+00  0.447158933450E+00
 -0.483622780639E+00 -0.732150961798E+00  0.479649846435E+00
 -0.606187692789E+00  0.617755434311E+00  0.500913869334E+00
 -0.428885567458E+00  0.725287248083E+00  0.538530944139E+00
 -0.673543841945E+00 -0.222451325582E+00  0.704878784420E+00
 -0.640304790654E+00 -0.820119797206E-01  0.763730194668E+00
  0.232876104316E+00  0.854022692259E+00  0.465203139656E+00
  0.355105001710E+00  0.905864623767E+00 -0.230888980180E+00
  0.496678801025E+00  0.857023233079E+00 -0.137190912875E+00
  0.720435664560E-01  0.996919406440E+00 -0.310067991808E-01
  0.656851809067E-01  0.985116447790E+00 -0.158842819486E+00
  0.244977601094E+00  0.855770603575E+00  0.455678229696E+00
  0.414616616344E+00  0.805761202913E+00  0.422897085981E+00
  0.186960026453E+00  0.551415123197E+00  0.813011260942E+00
  0.158718057332E+00  0.615413438526E+00  0.772058856538E+00
  0.120551248496E+00  0.654613270737E+00  0.746290065766E+00
 -0.123311016524E+00  0.610291480694E+00  0.782520735697E+00
 -0.205845922609E+00  0.514511333455E+00  0.832409480900E+00
 -0.256356011642E+00  0.429763392279E+00  0.865785782946E+00
 -0.153637941444E+00  0.195062290352E+00  0.968682654863E+00
 -0.263963220905E+00 -0.807984585232E+00  0.526767812264E+00
  0.474851955094E-01 -0.591893822539E+00  0.804615969919E+00
 -0.637548042726E+00  0.598638560742E+00  0.484937487527E+00
 -0.675055812730E+00  0.311377527145E+00  0.668837562707E+00
 -0.685483369348E+00  0.294868139836E+00  0.665706639938E+00
 -0.719408912813E+00  0.632758007511E+00  0.286475339419E+00
 -0.800561382393E+00  0.574894781966E+00  0.169107843371E+00
 -0.819931032497E+00  0.543618944485E+00  0.179420024369E+00
 -0.980531167674E+00  0.196211270922E+00 -0.773087201840E-02
 -0.977277152988E+00  0.199924822604E+00 -0.704232316352E-01
 -0.957011145817E+00  0.240620756322E+00 -0.161960854559E+00
 -0.764670586904E+00  0.644420551154E+00  0.102312033196E-02
 -0.764904574373E+00  0.641639287212E+00 -0.567451954758E-01
 -0.342719903526E+00  0.782799861914E-01 -0.936170556837E+00
 -0.777517613723E+00  0.276284632843E+00 -0.564918721592E+00
 -0.583465491061E+00 -0.364210345833E+00 -0.725891758274E+00
 -0.703863782852E+00  0.126782375227E-01 -0.710221822730E+00
 -0.339116619478E+00 -0.148517745249E+00 -0.928946929453E+00
 -0.318622105599E+00 -0.187922814527E+00 -0.929066719673E+00
  0.587516137873E+00  0.799234481125E+00 -0.126684773824E+00
  0.699149691437E+00  0.689360995879E+00 -0.189660555531E+00
  0.804320944336E+00  0.573783198175E+00 -0.154404209768E+00
  0.447100241914E+00  0.191712201986E+00 -0.873697776860E+00
  0.677444115586E-01  0.374096092982E+00 -0.924912324449E+00
  0.108032675681E+00  0.748944902531E-01 -0.991322226279E+00
  0.154729730902E+00 -0.557495069684E-01 -0.986382635111E+00
  0.173628523933E+00 -0.515725343370E-01 -0.983459917525E+00
  0.319139600708E+00  0.676011026222E+00 -0.664198018430E+00
  0.833008132403E-01  0.386196528680E+00 -0.918647492648E+00
  0.532240528232E+00  0.388975223906E+00 -0.751943013329E+00
 -0.141971842903E+00  0.879445677059E+00 -0.454333904661E+00
  0.721937131479E+00 -0.549956015276E+00 -0.419946615005E+00
  0.961160342639E+00 -0.266409258136E+00 -0.720895479039E-01
 -0.525665820859E-01 -0.498822279043E+00 -0.865108714774E+00
 -0.496194739494E-01 -0.388196597690E+00 -0.920239810781E+00
  0.509798748935E+00 -0.421139664667E+00 -0.750164394268E+00
  0.376802362156E+00 -0.420392024284E+00 -0.825403250413E+00
  0.559533353299E+00 -0.430551279843E-01 -0.827688759438E+00
 -0.289054248894E-01 -0.551944333917E+00 -0.833379822571E+00
  0.335236174707E+00 -0.424988805145E+00 -0.840833647441E+00
  0.304778726240E+00 -0.404624298888E+00 -0.862200153550E+00
  0.125217171667E+00 -0.971181601258E+00 -0.202797823699E+00
 -0.358099784487E-01 -0.951991453270E+00 -0.304022891153E+00
 -0.553566825191E+00 -0.812556730653E+00  0.182524873696E+00
 -0.413773842733E+00 -0.882533900388E+00  0.223439302130E+00
 -0.517765767778E+00 -0.761798754293E+00  0.389334390562E+00
 -0.613848901299E+00 -0.752169342463E+00  0.239647254591E+00
 -0.616041375893E+00 -0.762886097092E+00  0.196208628892E+00
 -0.529304555233E+00  0.577771568797E+00  0.621302424025E+00
 -0.443715651739E+00  0.566039515979E+00  0.694777436848E+00
 -0.590462266218E+00  0.362110959259E+00  0.721269689754E+00
 -0.399821518633E+00  0.441279937237E+00  0.803377103377E+00
  0.958628825691E+00  0.282308670627E+00 -0.365046441322E-01
  0.973569202016E+00 -0.186723266297E+00  0.131519697040E+00
  0.521665281134E+00 -0.161969790370E+00  0.837634240863E+00
  0.587374212832E+00  0.339134125775E+00  0.734833027861E+00
  0.616306071279E+00  0.344826889378E+00  0.707998052869E+00
  0.408814175970E+00 -0.116094908617E+00  0.905203259892E+00
  0.174488709724E+00  0.631704934634E-01  0.982630743939E+00
  0.158699802473E+00  0.109078212632E+00  0.981282994973E+00
  0.166258135768E+00  0.118153350804E+00  0.978978047754E+00
 -0.480170840934E+00 -0.409546413030E+00  0.775698201036E+00
 -0.457422111010E+00 -0.493379320142E+00  0.739825559720E+00
 -0.416524601057E+00 -0.510332766223E+00  0.752374723415E+00
 -0.348100424774E+00 -0.899549829900E-01  0.933131392306E+00
 -0.441091711416E+00 -0.212321563423E+00  0.871984894264E+00
  0.756834259034E-03 -0.417018681201E+00  0.908897599695E+00
  0.756301224691E-02 -0.558121602212E+00  0.829724700121E+00
 -0.941211869363E+00  0.163522417070E+00  0.295602158458E+00
 -0.869512799860E+00  0.279813614015E+00  0.407003479458E+00
 -0.848005302856E+00  0.264908107861E+00  0.459032352583E+00
 -0.853650883610E+00 -0.167523800308E+00  0.493169286596E+00
 -0.856536144951E+00 -0.195728637788E+00  0.477531289803E+00
 -0.862963798563E+00 -0.191990229647E+00  0.467368413664E+00
 -0.988541809129E+00  0.142991946666E+00  0.483569518605E-01
 -0.977132794976E+00  0.107265230183E+00  0.183591043836E+00
 -0.950309291550E+00 -0.307622311576E+00 -0.477573430313E-01
 -0.953884828747E+00 -0.158254265374E+00  0.255067287158E+00
 -0.206184978980E+00  0.969576743250E+00 -0.131942007684E+00
 -0.313019454968E+00  0.945544331348E+00 -0.892453823309E-01
 -0.424199746331E+00  0.902170679641E+00  0.783749960662E-01
 -0.399901486888E+00  0.867440779014E+00  0.296015701758E+00
 -0.278920063793E+00  0.855894547729E+00  0.435486074612E+00
 -0.261348405186E+00  0.858940136696E+00  0.440362183527E+00
 -0.233705625149E+00  0.870300870654E+00  0.433541319037E+00
 -0.198269366150E+00  0.910321818142E+00  0.363322784671E+00
 -0.387048025381E+00  0.911713916641E+00 -0.137737287076E+00
 -0.588093222885E+00  0.694692064126E+00 -0.414185100211E+00
 -0.470107428511E+00  0.784556530132E+00 -0.404314304331E+00
 -0.714287086838E+00  0.650944687909E+00 -0.257031069833E+00
 -0.714610926413E+00  0.652327286490E+00 -0.252587282245E+00
 -0.670612647485E-01  0.408957146409E+00 -0.910086171289E+00
  0.302065890434E-02  0.392734330673E+00 -0.919647008983E+00
 -0.171243058792E+00  0.381517025222E+00 -0.908361477762E+00
 -0.761968248522E+00  0.758770043753E-01 -0.643154000571E+00
 -0.760517428858E+00  0.138853908376E+00 -0.634297116919E+00
 -0.706051620454E+00  0.173523675489E-01 -0.707947741429E+00
 -0.501519061396E+00  0.312663837819E+00 -0.806672148755E+00
 -0.372168644087E+00  0.148191926169E+00 -0.916258507942E+00
 -0.362469989028E+00  0.199763880568E+00 -0.910335047702E+00
 -0.373674611580E+00 -0.311051669835E+00 -0.873850183586E+00
 -0.206705576813E+00 -0.626799898863E+00 -0.751262065660E+00
 -0.221226985943E+00 -0.632977935605E+00 -0.741887830961E+00
 -0.193587718488E+00 -0.408050359745E+00 -0.892198800247E+00
 -0.343718307095E+00 -0.272588150852E+00 -0.898639763967E+00
 -0.286741417686E+00 -0.311930568299E+00 -0.905802782036E+00
  0.738314132541E+00  0.642273050586E+00  0.205858131198E+00
  0.425645410427E+00  0.798261380341E+00  0.426151092030E+00
  0.587350479347E+00  0.512698064100E+00  0.626226883388E+00
  0.615533918206E+00  0.461407362630E+00  0.638921936741E+00
  0.255807208740E+00  0.662333857852E+00 -0.704185013117E+00
  0.212924112383E+00  0.614540119705E+00 -0.759607637954E+00
 -0.458003647393E-01  0.687694563692E+00 -0.724554010173E+00
 -0.139960548779E+00  0.853298396123E+00 -0.502287658578E+00
  0.532038729099E+00  0.386863144845E+00 -0.753174413997E+00
  0.452583626812E+00  0.203172831930E+00 -0.868267735844E+00
  0.411603156125E+00  0.328964461856E+00 -0.849920716716E+00
  0.517782755329E+00 -0.838326248460E+00 -0.170616879081E+00
  0.722821782158E+00 -0.552768154587E+00 -0.414699937921E+00
  0.761823135535E+00 -0.644057925434E+00 -0.693894721761E-01
  0.860374487722E+00 -0.503978070254E+00 -0.759068217050E-01
  0.883498080373E+00 -0.457354017383E+00 -0.101283980772E+00
  0.778607618908E+00  0.157834903224E+00 -0.607337072064E+00
  0.875429804808E+00  0.112831549490E+00 -0.469991168315E+00
  0.785248425330E+00 -0.284732476868E+00 -0.549829361832E+00
  0.680828948142E+00 -0.277189205012E+00 -0.677966140745E+00
  0.923245562474E+00 -0.597392430678E-01 -0.379537684836E+00
  0.923372948448E+00 -0.783241552490E-01 -0.375829382539E+00
  0.156243334852E+00 -0.716424888699E+00 -0.679943673525E+00
  0.259217895232E+00 -0.852847306750E+00 -0.453274259318E+00
  0.762063809619E-01 -0.813993714476E+00 -0.575853123891E+00
  0.402287084908E+00 -0.704637178520E+00 -0.584509664559E+00
  0.275535851698E+00 -0.654942174787E+00 -0.703655272214E+00
 -0.315540728658E+00 -0.948806912508E+00 -0.141241401291E-01
 -0.156393720283E+00 -0.982044764973E+00 -0.105494473052E+00
 -0.261019147095E+00 -0.952964392876E+00  0.154038536610E+00
 -0.292382752984E-01 -0.995639610672E+00  0.885826671437E-01
 -0.141193074776E-01 -0.999323513169E+00 -0.339582270403E-01
  0.979525427189E+00  0.145762610612E+00 -0.138863958026E+00
  0.997711835627E+00 -0.455949607918E-01  0.499218649463E-01
  0.972201111931E+00  0.224344976232E+00 -0.670397613257E-01
  0.847929509814E+00 -0.308311070982E+00  0.431230599443E+00
  0.953340910562E+00 -0.157197752896E+00  0.257740130234E+00
  0.684413634387E+00 -0.603272136131E-01  0.726593837273E+00
  0.695963674667E+00  0.225037969962E+00  0.681903567684E+00
 -0.190940739533E+00  0.635293532297E+00 -0.748293900689E+00
 -0.504321289697E+00  0.609458343091E+00 -0.611735698481E+00
 -0.205536953652E+00  0.764775207569E+00 -0.610633640223E+00
 -0.194282477009E+00  0.731919039165E+00 -0.653107065675E+00
 -0.515548587492E+00  0.549706603085E+00 -0.657291643382E+00
 -0.455897093401E+00  0.495192081822E+00 -0.739555706035E+00
 -0.457230550453E+00  0.495171446236E+00 -0.738745871437E+00
  0.804802784483E+00  0.492025347254E+00  0.331969178912E+00
  0.791856122713E+00  0.570181610743E+00  0.218761997826E+00
  0.881541092399E+00  0.470252791007E+00  0.418044849424E-01
  0.949827936031E+00  0.311790200079E+00  0.247742420718E-01
  0.939016784638E+00  0.128231816626E+00  0.319067515385E+00
  0.943172112187E+00  0.119405357058E+00  0.310110830991E+00
  0.572270516604E+00 -0.415129882535E-01 -0.819013508821E+00
  0.602897331969E+00 -0.494528344769E-01 -0.796284637719E+00
  0.751649281664E+00  0.151653563223E+00 -0.641891388114E+00
  0.609433107214E+00  0.264291663111E+00 -0.747489936147E+00
  0.538783800933E+00  0.180926738320E+00 -0.822786443260E+00
SCALARS inclination float 1
LOOKUP_TABLE default
  0.100000000000E+01
  0.100000000000E+01
  0.100000000000E+01
  0.100000000000E+01
  0.100000000000E+01
  0.100000000000E+01
  0.100000000000E+01
  0.100000000000E+01
  0.100000000000E+01
  0.100000000000E+01
  0.100000000000E+01
  0.100000000000E+01
  0.100000000000E+01
  0.100000000000E+01
  0.100000000000E+01
  0.100000000000E+01
  0.100000000000E+01
  0.100000000000E+01
  0.100000000000E+01
  0.100000000000E+01
  0.100000000000E+01
  0.100000000000E+01
  0.100000000000E+01
  0.100000000000E+01
  0.100000000000E+01
  0.100000000000E+01
  0.100000000000E+01
  0.100000000000E+01
  0.100000000000E+01
  0.100000000000E+01
  0.100000000000E+01
  0.100000000000E+01
  0.100000000000E+01
  0.100000000000E+01
  0.100000000000E+01
  0.100000000000E+01
  0.100000000000E+01
  0.100000000000E+01
  0.100000000000E+01
  0.100000000000E+01
  0.100000000000E+01
  0.100000000000E+01
  0.100000000000E+01
  0.100000000000E+01
  0.100000000000E+01
  0.100000000000E+01
  0.100000000000E+01
  0.100000000000E+01
  0.100000000000E+01
  0.100000000000E+01
  0.100000000000E+01
  0.100000000000E+01
  0.100000000000E+01
  0.100000000000E+01
  0.100000000000E+01
  0.100000000000E+01
  0.100000000000E+01
  0.100000000000E+01
  0.100000000000E+01
  0.100000000000E+01
  0.100000000000E+01
  0.100000000000E+01
  0.100000000000E+01
  0.100000000000E+01
  0.100000000000E+01
  0.100000000000E+01
  0.100000000000E+01
  0.100000000000E+01
  0.100000000000E+01
  0.100000000000E+01
  0.100000000000E+01
  0.100000000000E+01
  0.100000000000E+01
  0.100000000000E+01
  0.100000000000E+01
  0.100000000000E+01
  0.100000000000E+01
  0.100000000000E+01
  0.100000000000E+01
  0.100000000000E+01
  0.100000000000E+01
  0.100000000000E+01
  0.100000000000E+01
  0.100000000000E+01
  0.100000000000E+01
  0.100000000000E+01
  0.100000000000E+01
  0.100000000000E+01
  0.100000000000E+01
  0.100000000000E+01
  0.100000000000E+01
  0.100000000000E+01
  0.100000000000E+01
  0.100000000000E+01
  0.100000000000E+01
  0.100000000000E+01
  0.100000000000E+01
  0.100000000000E+01
  0.100000000000E+01
  0.100000000000E+01
  0.100000000000E+01
  0.100000000000E+01
  0.100000000000E+01
  0.100000000000E+01
  0.100000000000E+01
  0.100000000000E+01
  0.100000000000E+01
  0.100000000000E+01
  0.100000000000E+01
  0.100000000000E+01
  0.100000000000E+01
  0.100000000000E+01
  0.100000000000E+01
  0.100000000000E+01
  0.100000000000E+01
  0.100000000000E+01
  0.100000000000E+01
  0.100000000000E+01
  0.100000000000E+01
  0.100000000000E+01
  0.100000000000E+01
  0.100000000000E+01
  0.100000000000E+01
  0.100000000000E+01
  0.100000000000E+01
  0.100000000000E+01
  0.100000000000E+01
  0.100000000000E+01
  0.100000000000E+01
  0.100000000000E+01
  0.100000000000E+01
  0.100000000000E+01
  0.100000000000E+01
  0.100000000000E+01
  0.100000000000E+01
  0.100000000000E+01
  0.100000000000E+01
  0.100000000000E+01
  0.100000000000E+01
  0.100000000000E+01
  0.100000000000E+01
  0.100000000000E+01
  0.100000000000E+01
  0.100000000000E+01
  0.100000000000E+01
  0.100000000000E+01
  0.100000000000E+01
  0.100000000000E+01
  0.100000000000E+01
  0.100000000000E+01
  0.100000000000E+01
  0.100000000000E+01
  0.100000000000E+01
  0.100000000000E+01
  0.100000000000E+01
  0.100000000000E+01
  0.100000000000E+01
  0.100000000000E+01
  0.100000000000E+01
  0.100000000000E+01
  0.100000000000E+01
  0.100000000000E+01
  0.100000000000E+01
  0.100000000000E+01
  0.100000000000E+01
  0.100000000000E+01
  0.100000000000E+01
  0.100000000000E+01
  0.100000000000E+01
  0.100000000000E+01
  0.100000000000E+01
  0.100000000000E+01
  0.100000000000E+01
  0.100000000000E+01
  0.100000000000E+01
  0.100000000000E+01
  0.100000000000E+01
  0.100000000000E+01
  0.100000000000E+01
  0.100000000000E+01
  0.100000000000E+01
  0.100000000000E+01
  0.100000000000E+01
  0.100000000000E+01
  0.100000000000E+01
  0.100000000000E+01
  0.100000000000E+01
  0.100000000000E+01
  0.100000000000E+01
  0.100000000000E+01
  0.100000000000E+01
  0.100000000000E+01
  0.100000000000E+01
  0.100000000000E+01
  0.100000000000E+01
  0.100000000000E+01
  0.100000000000E+01
  0.100000000000E+01
  0.100000000000E+01
  0.100000000000E+01
  0.100000000000E+01
  0.100000000000E+01
  0.100000000000E+01
  0.100000000000E+01
  0.100000000000E+01
  0.100000000000E+01
  0.100000000000E+01
  0.100000000000E+01
  0.100000000000E+01
  0.100000000000E+01
  0.100000000000E+01
  0.100000000000E+01
  0.100000000000E+01
  0.100000000000E+01
  0.100000000000E+01
  0.100000000000E+01
  0.100000000000E+01
  0.100000000000E+01
  0.100000000000E+01
  0.100000000000E+01
  0.100000000000E+01
  0.100000000000E+01
  0.100000000000E+01
  0.100000000000E+01
  0.100000000000E+01
  0.100000000000E+01
  0.100000000000E+01
  0.100000000000E+01
  0.100000000000E+01
  0.100000000000E+01
  0.100000000000E+01
  0.100000000000E+01
  0.100000000000E+01