# vtk DataFile Version 3.0
TriPan results file. Generated by TriPan, USU AeroLab (c) 2021.
ASCII
DATASET POLYDATA
POINTS                 160 float
  0.191611385345E+02  0.161138445139E+00  0.000000000000E+00
  0.999330966662E+04  0.161138445139E+00  0.365735423445E+03
  0.190000000000E+02  0.000000000000E+00  0.000000000000E+00
  0.999330945025E+04  0.000000000000E+00  0.365741324193E+03
  0.193350086212E+02  0.335006117821E+00  0.000000000000E+00
  0.999330990009E+04  0.335006117821E+00  0.365729056479E+03
  0.195225105286E+02  0.522506594658E+00  0.000000000000E+00
  0.999331015186E+04  0.522506594658E+00  0.365722190328E+03
  0.197245941162E+02  0.724590361118E+00  0.000000000000E+00
  0.999331042321E+04  0.724590361118E+00  0.365714790209E+03
  0.199422607422E+02  0.942254066467E+00  0.000000000000E+00
  0.999331071548E+04  0.942254066467E+00  0.365706819454E+03
  0.201765460968E+02  0.117653930187E+01  0.000000000000E+00
  0.999331103007E+04  0.117653930187E+01  0.365698240135E+03
  0.204285392761E+02  0.142853081226E+01  0.000000000000E+00
  0.999331136844E+04  0.142853081226E+01  0.365689012372E+03
  0.206993637085E+02  0.169935321808E+01  0.000000000000E+00
  0.999331173209E+04  0.169935321808E+01  0.365679095026E+03
  0.209901790619E+02  0.199016737938E+01  0.000000000000E+00
  0.999331212259E+04  0.199016737938E+01  0.365668445630E+03
  0.213021793365E+02  0.230216526985E+01  0.000000000000E+00
  0.999331254153E+04  0.230216526985E+01  0.365657020461E+03
  0.216365795135E+02  0.263656377792E+01  0.000000000000E+00
  0.999331299055E+04  0.263656377792E+01  0.365644775028E+03
  0.219946155548E+02  0.299459671974E+01  0.000000000000E+00
  0.999331347131E+04  0.299459671974E+01  0.365631664071E+03
  0.223775272369E+02  0.337750577927E+01  0.000000000000E+00
  0.999331398547E+04  0.337750577927E+01  0.365617642190E+03
  0.227865524292E+02  0.378652930260E+01  0.000000000000E+00
  0.999331453469E+04  0.378652930260E+01  0.365602664056E+03
  0.232229156494E+02  0.422288990021E+01  0.000000000000E+00
  0.999331512062E+04  0.422288990021E+01  0.365586684828E+03
  0.236878089905E+02  0.468778085709E+01  0.000000000000E+00
  0.999331574486E+04  0.468778085709E+01  0.365569660853E+03
  0.241823806763E+02  0.518234777451E+01  0.000000000000E+00
  0.999331640895E+04  0.518234777451E+01  0.365551550084E+03
  0.247077083588E+02  0.570767307281E+01  0.000000000000E+00
  0.999331711434E+04  0.570767307281E+01  0.365532313058E+03
  0.252647914886E+02  0.626475334167E+01  0.000000000000E+00
  0.999331786237E+04  0.626475334167E+01  0.365511913176E+03
  0.258545246124E+02  0.685448169708E+01  0.000000000000E+00
  0.999331865424E+04  0.685448169708E+01  0.365490317680E+03
  0.264776668549E+02  0.747762155533E+01  0.000000000000E+00
  0.999331949098E+04  0.747762155533E+01  0.365467498773E+03
  0.271348342896E+02  0.813478469849E+01  0.000000000000E+00
  0.999332037339E+04  0.813478469849E+01  0.365443433894E+03
  0.278264636993E+02  0.882640838623E+01  0.000000000000E+00
  0.999332130209E+04  0.882640838623E+01  0.365418107049E+03
  0.285527858734E+02  0.955272769928E+01  0.000000000000E+00
  0.999332227736E+04  0.955272769928E+01  0.365391509785E+03
  0.293138179779E+02  0.103137550354E+02  0.000000000000E+00
  0.999332329925E+04  0.103137550354E+02  0.365363641476E+03
  0.301093215942E+02  0.111092538834E+02  0.000000000000E+00
  0.999332436742E+04  0.111092538834E+02  0.365334510850E+03
  0.309387969971E+02  0.119387235641E+02  0.000000000000E+00
  0.999332548121E+04  0.119387235641E+02  0.365304136209E+03
  0.318014545441E+02  0.128013763428E+02  0.000000000000E+00
  0.999332663955E+04  0.128013763428E+02  0.365272546467E+03
  0.326962089539E+02  0.136961250305E+02  0.000000000000E+00
  0.999332784099E+04  0.136961250305E+02  0.365239781367E+03
  0.336216621399E+02  0.146215744019E+02  0.000000000000E+00
  0.999332908366E+04  0.146215744019E+02  0.365205892106E+03
  0.345761108398E+02  0.155760145187E+02  0.000000000000E+00
  0.999333036525E+04  0.155760145187E+02  0.365170941055E+03
  0.355575256348E+02  0.165574264526E+02  0.000000000000E+00
  0.999333168306E+04  0.165574264526E+02  0.365135002530E+03
  0.365635871887E+02  0.175634803772E+02  0.000000000000E+00
  0.999333303396E+04  0.175634803772E+02  0.365098161462E+03
  0.375916786194E+02  0.185915622711E+02  0.000000000000E+00
  0.999333441444E+04  0.185915622711E+02  0.365060513681E+03
  0.386389083862E+02  0.196387882233E+02  0.000000000000E+00
  0.999333582062E+04  0.196387882233E+02  0.365022165071E+03
  0.397021560669E+02  0.207020301819E+02  0.000000000000E+00
  0.999333724831E+04  0.207020301819E+02  0.364983229899E+03
  0.407780914307E+02  0.217779560089E+02  0.000000000000E+00
  0.999333869303E+04  0.217779560089E+02  0.364943830116E+03
  0.418632049561E+02  0.228630657196E+02  0.000000000000E+00
  0.999334015008E+04  0.228630657196E+02  0.364904094237E+03
  0.429538803101E+02  0.239537334442E+02  0.000000000000E+00
  0.999334161460E+04  0.239537334442E+02  0.364864154689E+03
  0.440464210510E+02  0.250462665558E+02  0.000000000000E+00
  0.999334308162E+04  0.250462665558E+02  0.364824146832E+03
  0.451370964050E+02  0.261369342804E+02  0.000000000000E+00
  0.999334454614E+04  0.261369342804E+02  0.364784207283E+03
  0.462222099304E+02  0.272220439911E+02  0.000000000000E+00
  0.999334600319E+04  0.272220439911E+02  0.364744471404E+03
  0.472981452942E+02  0.282979698181E+02  0.000000000000E+00
  0.999334744791E+04  0.282979698181E+02  0.364705071621E+03
  0.483613929749E+02  0.293612117767E+02  0.000000000000E+00
  0.999334887560E+04  0.293612117767E+02  0.364666136450E+03
  0.494086227417E+02  0.304084377289E+02  0.000000000000E+00
  0.999335028178E+04  0.304084377289E+02  0.364627787839E+03
  0.504367141724E+02  0.314365196228E+02  0.000000000000E+00
  0.999335166226E+04  0.314365196228E+02  0.364590140058E+03
  0.514427719116E+02  0.324425735474E+02  0.000000000000E+00
  0.999335301315E+04  0.324425735474E+02  0.364553299131E+03
  0.524241905212E+02  0.334239845276E+02  0.000000000000E+00
  0.999335433097E+04  0.334239845276E+02  0.364517360466E+03
  0.533786354065E+02  0.343784255981E+02  0.000000000000E+00
  0.999335561256E+04  0.343784255981E+02  0.364482409554E+03
  0.543040924072E+02  0.353038749695E+02  0.000000000000E+00
  0.999335685523E+04  0.353038749695E+02  0.364448520153E+03
  0.551988449097E+02  0.361986236572E+02  0.000000000000E+00
  0.999335805666E+04  0.361986236572E+02  0.364415755123E+03
  0.560615043640E+02  0.370612754822E+02  0.000000000000E+00
  0.999335921501E+04  0.370612754822E+02  0.364384165312E+03
  0.568909797668E+02  0.378907470703E+02  0.000000000000E+00
  0.999336032880E+04  0.378907470703E+02  0.364353790670E+03
  0.576864814758E+02  0.386862449646E+02  0.000000000000E+00
  0.999336139697E+04  0.386862449646E+02  0.364324660115E+03
  0.584475135803E+02  0.394472732544E+02  0.000000000000E+00
  0.999336241885E+04  0.394472732544E+02  0.364296791805E+03
  0.591738395691E+02  0.401735916138E+02  0.000000000000E+00
  0.999336339413E+04  0.401735916138E+02  0.364270194402E+03
  0.598654670715E+02  0.408652153015E+02  0.000000000000E+00
  0.999336432282E+04  0.408652153015E+02  0.364244867626E+03
  0.605226325989E+02  0.415223770142E+02  0.000000000000E+00
  0.999336520524E+04  0.415223770142E+02  0.364220802817E+03
  0.611457786560E+02  0.421455192566E+02  0.000000000000E+00
  0.999336604198E+04  0.421455192566E+02  0.364197983770E+03
  0.617355079651E+02  0.427352447510E+02  0.000000000000E+00
  0.999336683384E+04  0.427352447510E+02  0.364176388415E+03
  0.622925949097E+02  0.432923278809E+02  0.000000000000E+00
  0.999336758188E+04  0.432923278809E+02  0.364155988393E+03
  0.628179206848E+02  0.438176536560E+02  0.000000000000E+00
  0.999336828726E+04  0.438176536560E+02  0.364136751436E+03
  0.633124923706E+02  0.443122177124E+02  0.000000000000E+00
  0.999336895136E+04  0.443122177124E+02  0.364118640667E+03
  0.637773857117E+02  0.447771110535E+02  0.000000000000E+00
  0.999336957560E+04  0.447771110535E+02  0.364101616692E+03
  0.642137451172E+02  0.452134704590E+02  0.000000000000E+00
  0.999337016152E+04  0.452134704590E+02  0.364085637604E+03
  0.646227722168E+02  0.456224937439E+02  0.000000000000E+00
  0.999337071075E+04  0.456224937439E+02  0.364070659400E+03
  0.650056838989E+02  0.460054016113E+02  0.000000000000E+00
  0.999337122491E+04  0.460054016113E+02  0.364056637520E+03
  0.653637237549E+02  0.463634376526E+02  0.000000000000E+00
  0.999337170567E+04  0.463634376526E+02  0.364043526423E+03
  0.656981201172E+02  0.466978340149E+02  0.000000000000E+00
  0.999337215469E+04  0.466978340149E+02  0.364031281130E+03
  0.660101242065E+02  0.470098342896E+02  0.000000000000E+00
  0.999337257363E+04  0.470098342896E+02  0.364019855821E+03
  0.663009338379E+02  0.473006477356E+02  0.000000000000E+00
  0.999337296412E+04  0.473006477356E+02  0.364009206634E+03
  0.665717620850E+02  0.475714683533E+02  0.000000000000E+00
  0.999337332778E+04  0.475714683533E+02  0.363999289148E+03
  0.668237533569E+02  0.478234596252E+02  0.000000000000E+00
  0.999337366614E+04  0.478234596252E+02  0.363990061455E+03
  0.670580444336E+02  0.480577468872E+02  0.000000000000E+00
  0.999337398074E+04  0.480577468872E+02  0.363981481927E+03
  0.672757034302E+02  0.482754096985E+02  0.000000000000E+00
  0.999337427300E+04  0.482754096985E+02  0.363973511451E+03
  0.674777908325E+02  0.484774932861E+02  0.000000000000E+00
  0.999337454436E+04  0.484774932861E+02  0.363966111192E+03
  0.676652908325E+02  0.486649932861E+02  0.000000000000E+00
  0.999337479613E+04  0.486649932861E+02  0.363959245111E+03
  0.678391647339E+02  0.488388633728E+02  0.000000000000E+00
  0.999337502960E+04  0.488388633728E+02  0.363952878006E+03
  0.680002975464E+02  0.490000000000E+02  0.000000000000E+00
  0.999337524596E+04  0.490000000000E+02  0.363946977467E+03
POLYGONS                 158                 632
3                   0                   1                   3
3                   0                   3                   2
3                   4                   5                   1
3                   4                   1                   0
3                   6                   7                   5
3                   6                   5                   4
3                   8                   9                   7
3                   8                   7                   6
3                  10                  11                   9
3                  10                   9                   8
3                  12                  13                  11
3                  12                  11                  10
3                  14                  15                  13
3                  14                  13                  12
3                  16                  17                  15
3                  16                  15                  14
3                  18                  19                  17
3                  18                  17                  16
3                  20                  21                  19
3                  20                  19                  18
3                  22                  23                  21
3                  22                  21                  20
3                  24                  25                  23
3                  24                  23                  22
3                  26                  27                  25
3                  26                  25                  24
3                  28                  29                  27
3                  28                  27                  26
3                  30                  31                  29
3                  30                  29                  28
3                  32                  33                  31
3                  32                  31                  30
3                  34                  35                  33
3                  34                  33                  32
3                  36                  37                  35
3                  36                  35                  34
3                  38                  39                  37
3                  38                  37                  36
3                  40                  41                  39
3                  40                  39                  38
3                  42                  43                  41
3                  42                  41                  40
3                  44                  45                  43
3                  44                  43                  42
3                  46                  47                  45
3                  46                  45                  44
3                  48                  49                  47
3                  48                  47                  46
3                  50                  51                  49
3                  50                  49                  48
3                  52                  53                  51
3                  52                  51                  50
3                  54                  55                  53
3                  54                  53                  52
3                  56                  57                  55
3                  56                  55                  54
3                  58                  59                  57
3                  58                  57                  56
3                  60                  61                  59
3                  60                  59                  58
3                  62                  63                  61
3                  62                  61                  60
3                  64                  65                  63
3                  64                  63                  62
3                  66                  67                  65
3                  66                  65                  64
3                  68                  69                  67
3                  68                  67                  66
3                  70                  71                  69
3                  70                  69                  68
3                  72                  73                  71
3                  72                  71                  70
3                  74                  75                  73
3                  74                  73                  72
3                  76                  77                  75
3                  76                  75                  74
3                  78                  79                  77
3                  78                  77                  76
3                  80                  81                  79
3                  80                  79                  78
3                  82                  83                  81
3                  82                  81                  80
3                  84                  85                  83
3                  84                  83                  82
3                  86                  87                  85
3                  86                  85                  84
3                  88                  89                  87
3                  88                  87                  86
3                  90                  91                  89
3                  90                  89                  88
3                  92                  93                  91
3                  92                  91                  90
3                  94                  95                  93
3                  94                  93                  92
3                  96                  97                  95
3                  96                  95                  94
3                  98                  99                  97
3                  98                  97                  96
3                 100                 101                  99
3                 100                  99                  98
3                 102                 103                 101
3                 102                 101                 100
3                 104                 105                 103
3                 104                 103                 102
3                 106                 107                 105
3                 106                 105                 104
3                 108                 109                 107
3                 108                 107                 106
3                 110                 111                 109
3                 110                 109                 108
3                 112                 113                 111
3                 112                 111                 110
3                 114                 115                 113
3                 114                 113                 112
3                 116                 117                 115
3                 116                 115                 114
3                 118                 119                 117
3                 118                 117                 116
3                 120                 121                 119
3                 120                 119                 118
3                 122                 123                 121
3                 122                 121                 120
3                 124                 125                 123
3                 124                 123                 122
3                 126                 127                 125
3                 126                 125                 124
3                 128                 129                 127
3                 128                 127                 126
3                 130                 131                 129
3                 130                 129                 128
3                 132                 133                 131
3                 132                 131                 130
3                 134                 135                 133
3                 134                 133                 132
3                 136                 137                 135
3                 136                 135                 134
3                 138                 139                 137
3                 138                 137                 136
3                 140                 141                 139
3                 140                 139                 138
3                 142                 143                 141
3                 142                 141                 140
3                 144                 145                 143
3                 144                 143                 142
3                 146                 147                 145
3                 146                 145                 144
3                 148                 149                 147
3                 148                 147                 146
3                 150                 151                 149
3                 150                 149                 148
3                 152                 153                 151
3                 152                 151                 150
3                 154                 155                 153
3                 154                 153                 152
3                 156                 157                 155
3                 156                 155                 154
3                 158                 159                 157
3                 158                 157                 156
CELL_DATA                 158
NORMALS normals float
  0.366191315489E-01 -0.366191518563E-01 -0.998658138164E+00
  0.366191315489E-01 -0.366191518565E-01 -0.998658138164E+00
  0.366191308943E-01 -0.366196393225E-01 -0.998658120314E+00
  0.366191308943E-01 -0.366196393224E-01 -0.998658120314E+00
  0.366191312015E-01 -0.366194105932E-01 -0.998658128690E+00
  0.366191312015E-01 -0.366194105929E-01 -0.998658128690E+00
  0.366191316196E-01 -0.366190992087E-01 -0.998658140092E+00
  0.366191316196E-01 -0.366190992086E-01 -0.998658140092E+00
  0.366191309172E-01 -0.366196222791E-01 -0.998658120938E+00
  0.366191309172E-01 -0.366196222794E-01 -0.998658120938E+00
  0.366191315511E-01 -0.366191501819E-01 -0.998658138226E+00
  0.366191315511E-01 -0.366191501818E-01 -0.998658138226E+00
  0.366191312509E-01 -0.366193737748E-01 -0.998658130038E+00
  0.366191312509E-01 -0.366193737750E-01 -0.998658130038E+00
  0.366191312087E-01 -0.366194052317E-01 -0.998658128886E+00
  0.366191312087E-01 -0.366194052318E-01 -0.998658128886E+00
  0.366191313748E-01 -0.366192814835E-01 -0.998658133418E+00
  0.366191313748E-01 -0.366192814834E-01 -0.998658133418E+00
  0.366191312009E-01 -0.366194110259E-01 -0.998658128674E+00
  0.366191312009E-01 -0.366194110258E-01 -0.998658128674E+00
  0.366191313311E-01 -0.366193140912E-01 -0.998658132223E+00
  0.366191313311E-01 -0.366193140914E-01 -0.998658132223E+00
  0.366191311510E-01 -0.366194481617E-01 -0.998658127314E+00
  0.366191311510E-01 -0.366194481617E-01 -0.998658127314E+00
  0.366191312398E-01 -0.366193820468E-01 -0.998658129735E+00
  0.366191312398E-01 -0.366193820467E-01 -0.998658129735E+00
  0.366191313758E-01 -0.366192807955E-01 -0.998658133443E+00
  0.366191313758E-01 -0.366192807955E-01 -0.998658133443E+00
  0.366191312810E-01 -0.366193513674E-01 -0.998658130858E+00
  0.366191312810E-01 -0.366193513673E-01 -0.998658130858E+00
  0.366191313243E-01 -0.366193191278E-01 -0.998658132039E+00
  0.366191313243E-01 -0.366193191277E-01 -0.998658132039E+00
  0.366191311027E-01 -0.366194841669E-01 -0.998658125995E+00
  0.366191311027E-01 -0.366194841670E-01 -0.998658125995E+00
  0.366191313533E-01 -0.366192975499E-01 -0.998658132829E+00
  0.366191313533E-01 -0.366192975499E-01 -0.998658132829E+00
  0.366191313239E-01 -0.366193193852E-01 -0.998658132030E+00
  0.366191313239E-01 -0.366193193851E-01 -0.998658132030E+00
  0.366191311791E-01 -0.366194272719E-01 -0.998658128079E+00
  0.366191311791E-01 -0.366194272718E-01 -0.998658128079E+00
  0.366191313882E-01 -0.366192714999E-01 -0.998658133783E+00
  0.366191313882E-01 -0.366192715000E-01 -0.998658133783E+00
  0.366191312555E-01 -0.366193703932E-01 -0.998658130162E+00
  0.366191312555E-01 -0.366193703931E-01 -0.998658130162E+00
  0.366191311699E-01 -0.366194341283E-01 -0.998658127828E+00
  0.366191311699E-01 -0.366194341283E-01 -0.998658127828E+00
  0.366191313827E-01 -0.366192756293E-01 -0.998658133632E+00
  0.366191313827E-01 -0.366192756294E-01 -0.998658133632E+00
  0.366191312684E-01 -0.366193607134E-01 -0.998658130516E+00
  0.366191312684E-01 -0.366193607134E-01 -0.998658130516E+00
  0.366191312818E-01 -0.366193507806E-01 -0.998658130880E+00
  0.366191312818E-01 -0.366193507806E-01 -0.998658130880E+00
  0.366191312374E-01 -0.366193838590E-01 -0.998658129669E+00
  0.366191312374E-01 -0.366193838590E-01 -0.998658129669E+00
  0.366191313047E-01 -0.366193337164E-01 -0.998658131505E+00
  0.366191313047E-01 -0.366193337164E-01 -0.998658131505E+00
  0.366191312621E-01 -0.366193654489E-01 -0.998658130343E+00
  0.366191312621E-01 -0.366193654489E-01 -0.998658130343E+00
  0.366191313737E-01 -0.366192823138E-01 -0.998658133387E+00
  0.366191313737E-01 -0.366192823138E-01 -0.998658133387E+00
  0.366191311345E-01 -0.366194604435E-01 -0.998658126864E+00
  0.366191311345E-01 -0.366194604435E-01 -0.998658126864E+00
  0.366191314330E-01 -0.366192381883E-01 -0.998658135003E+00
  0.366191314330E-01 -0.366192381883E-01 -0.998658135003E+00
  0.366191312037E-01 -0.366194089010E-01 -0.998658128752E+00
  0.366191312037E-01 -0.366194089009E-01 -0.998658128752E+00
  0.366191311206E-01 -0.366194708107E-01 -0.998658126484E+00
  0.366191311206E-01 -0.366194708108E-01 -0.998658126484E+00
  0.366191313973E-01 -0.366192647853E-01 -0.998658134029E+00
  0.366191313973E-01 -0.366192647852E-01 -0.998658134029E+00
  0.366191313119E-01 -0.366193283867E-01 -0.998658131700E+00
  0.366191313119E-01 -0.366193283868E-01 -0.998658131700E+00
  0.366191311409E-01 -0.366194557259E-01 -0.998658127037E+00
  0.366191311409E-01 -0.366194557258E-01 -0.998658127037E+00
  0.366191314035E-01 -0.366192601379E-01 -0.998658134199E+00
  0.366191314035E-01 -0.366192601379E-01 -0.998658134199E+00
  0.366191312326E-01 -0.366193873895E-01 -0.998658129539E+00
  0.366191312326E-01 -0.366193873895E-01 -0.998658129539E+00
  0.366191312332E-01 -0.366193869493E-01 -0.998658129555E+00
  0.366191312332E-01 -0.366193869493E-01 -0.998658129555E+00
  0.366191312326E-01 -0.366193873895E-01 -0.998658129539E+00
  0.366191312326E-01 -0.366193873895E-01 -0.998658129539E+00
  0.366191314035E-01 -0.366192601379E-01 -0.998658134199E+00
  0.366191314035E-01 -0.366192601379E-01 -0.998658134199E+00
  0.366191311409E-01 -0.366194557258E-01 -0.998658127037E+00
  0.366191311409E-01 -0.366194557258E-01 -0.998658127037E+00
  0.366191313119E-01 -0.366193283868E-01 -0.998658131700E+00
  0.366191313119E-01 -0.366193283868E-01 -0.998658131700E+00
  0.366191313973E-01 -0.366192647851E-01 -0.998658134029E+00
  0.366191313973E-01 -0.366192647852E-01 -0.998658134029E+00
  0.366191311206E-01 -0.366194708109E-01 -0.998658126484E+00
  0.366191311206E-01 -0.366194708108E-01 -0.998658126484E+00
  0.366191313899E-01 -0.366192702366E-01 -0.998658133829E+00
  0.366191313899E-01 -0.366192702367E-01 -0.998658133829E+00
  0.366191311944E-01 -0.366194158683E-01 -0.998658128496E+00
  0.366191311944E-01 -0.366194158682E-01 -0.998658128496E+00
  0.366191313799E-01 -0.366192777426E-01 -0.998658133555E+00
  0.366191313799E-01 -0.366192777426E-01 -0.998658133555E+00
  0.366191311713E-01 -0.366194330553E-01 -0.998658127867E+00
  0.366191311713E-01 -0.366194330553E-01 -0.998658127867E+00
  0.366191313668E-01 -0.366192874942E-01 -0.998658133197E+00
  0.366191313668E-01 -0.366192874941E-01 -0.998658133197E+00
  0.366191311418E-01 -0.366194550017E-01 -0.998658127063E+00
  0.366191311418E-01 -0.366194550017E-01 -0.998658127063E+00
  0.366191313503E-01 -0.366192997599E-01 -0.998658132748E+00
  0.366191313503E-01 -0.366192997600E-01 -0.998658132748E+00
  0.366191313407E-01 -0.366193069425E-01 -0.998658132485E+00
  0.366191313407E-01 -0.366193069426E-01 -0.998658132485E+00
  0.366191313300E-01 -0.366193148857E-01 -0.998658132194E+00
  0.366191313300E-01 -0.366193148856E-01 -0.998658132194E+00
  0.366191310603E-01 -0.366195157154E-01 -0.998658124840E+00
  0.366191310603E-01 -0.366195157154E-01 -0.998658124840E+00
  0.366191313053E-01 -0.366193332807E-01 -0.998658131521E+00
  0.366191313053E-01 -0.366193332807E-01 -0.998658131521E+00
  0.366191312911E-01 -0.366193438581E-01 -0.998658131133E+00
  0.366191312911E-01 -0.366193438583E-01 -0.998658131133E+00
  0.366191312755E-01 -0.366193554476E-01 -0.998658130709E+00
  0.366191312755E-01 -0.366193554474E-01 -0.998658130709E+00
  0.366191312585E-01 -0.366193681331E-01 -0.998658130244E+00
  0.366191312585E-01 -0.366193681331E-01 -0.998658130244E+00
  0.366191312399E-01 -0.366193819941E-01 -0.998658129737E+00
  0.366191312399E-01 -0.366193819942E-01 -0.998658129737E+00
  0.366191315761E-01 -0.366191315760E-01 -0.998658138907E+00
  0.366191315761E-01 -0.366191315761E-01 -0.998658138907E+00
  0.366191308186E-01 -0.366196957243E-01 -0.998658118248E+00
  0.366191308186E-01 -0.366196957242E-01 -0.998658118248E+00
  0.366191315761E-01 -0.366191315760E-01 -0.998658138907E+00
  0.366191315761E-01 -0.366191315762E-01 -0.998658138907E+00
  0.366191315761E-01 -0.366191315762E-01 -0.998658138907E+00
  0.366191315761E-01 -0.366191315761E-01 -0.998658138907E+00
  0.366191311182E-01 -0.366194726415E-01 -0.998658126417E+00
  0.366191311182E-01 -0.366194726415E-01 -0.998658126417E+00
  0.366191310869E-01 -0.366194959030E-01 -0.998658125566E+00
  0.366191310869E-01 -0.366194959031E-01 -0.998658125566E+00
  0.366191310529E-01 -0.366195212119E-01 -0.998658124639E+00
  0.366191310529E-01 -0.366195212119E-01 -0.998658124639E+00
  0.366191315761E-01 -0.366191315762E-01 -0.998658138907E+00
  0.366191315761E-01 -0.366191315762E-01 -0.998658138907E+00
  0.366191309758E-01 -0.366195786912E-01 -0.998658122534E+00
  0.366191309758E-01 -0.366195786911E-01 -0.998658122534E+00
  0.366191322202E-01 -0.366186518872E-01 -0.998658156473E+00
  0.366191322202E-01 -0.366186518871E-01 -0.998658156473E+00
  0.366191301928E-01 -0.366201618052E-01 -0.998658101180E+00
  0.366191301928E-01 -0.366201618054E-01 -0.998658101180E+00
  0.366191315761E-01 -0.366191315763E-01 -0.998658138907E+00
  0.366191315761E-01 -0.366191315764E-01 -0.998658138907E+00
  0.366191307766E-01 -0.366197270145E-01 -0.998658117102E+00
  0.366191307766E-01 -0.366197270145E-01 -0.998658117102E+00
  0.366191324367E-01 -0.366184906596E-01 -0.998658162377E+00
  0.366191324367E-01 -0.366184906597E-01 -0.998658162377E+00
  0.366191306492E-01 -0.366198219028E-01 -0.998658113628E+00
  0.366191306492E-01 -0.366198219027E-01 -0.998658113628E+00
  0.366191315761E-01 -0.366191315763E-01 -0.998658138907E+00
  0.366191315761E-01 -0.366191315761E-01 -0.998658138907E+00
  0.366191304988E-01 -0.366199339204E-01 -0.998658109526E+00
  0.366191304988E-01 -0.366199339204E-01 -0.998658109526E+00
  0.366191327386E-01 -0.366182658281E-01 -0.998658170610E+00
  0.366191327386E-01 -0.366182658283E-01 -0.998658170610E+00
POINT_DATA                 160
SCALARS mu float 1
LOOKUP_TABLE default
 -0.120350954796E+01
 -0.120350954796E+01
 -0.121467585330E+01
 -0.121467585330E+01
 -0.119855532725E+01
 -0.119855532725E+01
 -0.119594906152E+01
 -0.119594906152E+01
 -0.119569284860E+01
 -0.119569284860E+01
 -0.119628156738E+01
 -0.119628156738E+01
 -0.119781195265E+01
 -0.119781195265E+01
 -0.120062866759E+01
 -0.120062866759E+01
 -0.120398331269E+01
 -0.120398331269E+01
 -0.120850880723E+01
 -0.120850880723E+01
 -0.121169420822E+01
 -0.121169420822E+01
 -0.121620040598E+01