# vtk DataFile Version 3.0
TriPan results file. Generated by TriPan, USU AeroLab (c) 2021.
ASCII
DATASET POLYDATA
POINTS                1848 float
  0.559710450636E-05  0.000000000000E+00  0.120211578351E-21
  0.147669420356E+00  0.000000000000E+00 -0.234916154167E+00
  0.147669420356E+00  0.000000000000E+00  0.234916154167E+00
  0.339643488108E+00  0.339635660470E+00  0.000000000000E+00
  0.473468632512E+00  0.000000000000E+00 -0.436287762525E+00
  0.473468632512E+00  0.000000000000E+00  0.436287762525E+00
  0.487308608206E+00  0.339636249629E+00 -0.234917183841E+00
  0.487308608206E+00  0.339636249629E+00  0.234917183841E+00
  0.735369269503E+00  0.735360558377E+00 -0.623642789854E-22
  0.813108237056E+00  0.339636920424E+00 -0.436288359745E+00
  0.813108237056E+00  0.339636920424E+00  0.436288359745E+00
  0.883034320569E+00  0.735361246371E+00 -0.234916856065E+00
  0.883034320569E+00  0.735361246371E+00  0.234916856065E+00
  0.944066647098E+00  0.000000000000E+00 -0.604286064991E+00
  0.944066647098E+00  0.000000000000E+00  0.604286064991E+00
  0.119528541420E+01  0.119527568962E+01 -0.139239588662E-21
  0.120883396323E+01  0.735362022563E+00 -0.436287920848E+00
  0.120883396323E+01  0.735362022563E+00  0.436287920848E+00
  0.128370629013E+01  0.339637445796E+00 -0.604286441728E+00
  0.128370629013E+01  0.339637445796E+00  0.604286441728E+00
  0.134295035247E+01  0.119527649041E+01 -0.234916489990E+00
  0.134295035247E+01  0.119527649041E+01  0.234916489990E+00
  0.157642143906E+01  0.000000000000E+00 -0.760511625665E+00
  0.157642143906E+01  0.000000000000E+00  0.760511625665E+00
  0.166874987392E+01  0.119527738781E+01 -0.436287408051E+00
  0.166874987392E+01  0.119527738781E+01  0.436287408051E+00
  0.167943194385E+01  0.735362620399E+00 -0.604285952066E+00
  0.167943194385E+01  0.735362620399E+00  0.604285952066E+00
  0.172824569053E+01  0.172823481255E+01 -0.389385905703E-21
  0.187591062046E+01  0.172823574089E+01 -0.234916066324E+00
  0.187591062046E+01  0.172823574089E+01  0.234916066324E+00
  0.191606115975E+01  0.339637789350E+00 -0.760511930360E+00
  0.191606115975E+01  0.339637789350E+00  0.760511930360E+00
  0.213934789061E+01  0.119527806879E+01 -0.604285440358E+00
  0.213934789061E+01  0.119527806879E+01  0.604285440358E+00
  0.220170988446E+01  0.172823677653E+01 -0.436286844900E+00
  0.220170988446E+01  0.172823677653E+01  0.436286844900E+00
  0.231178688624E+01  0.735363010380E+00 -0.760511482838E+00
  0.231178688624E+01  0.735363010380E+00  0.760511482838E+00
  0.234376538790E+01  0.234375320874E+01 -0.348769880774E-21
  0.239635655070E+01  0.000000000000E+00 -0.902050767795E+00
  0.239635655070E+01  0.000000000000E+00  0.902050767795E+00
  0.249143005586E+01  0.234375427984E+01 -0.234915581477E+00
  0.249143005586E+01  0.234375427984E+01  0.234915581477E+00
  0.267230804490E+01  0.172823755218E+01 -0.604284839933E+00
  0.267230804490E+01  0.172823755218E+01  0.604284839933E+00
  0.273599651581E+01  0.339638112717E+00 -0.902051094889E+00
  0.273599651581E+01  0.339638112717E+00  0.902051094889E+00
  0.277170289895E+01  0.119527851203E+01 -0.760510950761E+00
  0.277170289895E+01  0.119527851203E+01  0.760510950761E+00
  0.281722952122E+01  0.234375547176E+01 -0.436286196457E+00
  0.281722952122E+01  0.234375547176E+01  0.436286196457E+00
  0.305186238041E+01  0.305184874783E+01 -0.195195463795E-21
  0.313172232612E+01  0.735363369156E+00 -0.902050640810E+00
  0.313172232612E+01  0.735363369156E+00  0.902050640810E+00
  0.319952712879E+01  0.305184997693E+01 -0.234915033141E+00
  0.319952712879E+01  0.305184997693E+01  0.234915033141E+00
  0.328782757476E+01  0.234375635430E+01 -0.604284144956E+00
  0.328782757476E+01  0.234375635430E+01  0.604284144956E+00
  0.330466299259E+01  0.172823805608E+01 -0.760510326632E+00
  0.330466299259E+01  0.172823805608E+01  0.760510326632E+00
  0.342464501736E+01  0.000000000000E+00 -0.102347726804E+01
  0.342464501736E+01  0.000000000000E+00  0.102347726804E+01
  0.352532618079E+01  0.305185134378E+01 -0.436285459385E+00
  0.352532618079E+01  0.305185134378E+01  0.436285459385E+00
  0.359163829815E+01  0.119527891148E+01 -0.902050101036E+00
  0.359163829815E+01  0.119527891148E+01  0.902050101036E+00
  0.376428499675E+01  0.339638473036E+00 -0.102347755842E+01
  0.376428499675E+01  0.339638473036E+00  0.102347755842E+01
  0.386281012443E+01  0.386279488655E+01 -0.436361510624E-21
  0.392018245394E+01  0.234375692670E+01 -0.760509663821E+00
  0.392018245394E+01  0.234375692670E+01  0.760509663821E+00
  0.399592435318E+01  0.305185234589E+01 -0.604283351599E+00
  0.399592435318E+01  0.305185234589E+01  0.604283351599E+00
  0.401047470017E+01  0.386279628829E+01 -0.234914435781E+00
  0.401047470017E+01  0.386279628829E+01  0.234914435781E+00
  0.412459882225E+01  0.172823850189E+01 -0.902049467796E+00
  0.412459882225E+01  0.172823850189E+01  0.902049467796E+00
  0.416001101646E+01  0.735363758474E+00 -0.102347710272E+01
  0.416001101646E+01  0.735363758474E+00  0.102347710272E+01
  0.433627355849E+01  0.386279784882E+01 -0.436284662791E+00
  0.433627355849E+01  0.386279784882E+01  0.436284662791E+00
  0.461992719359E+01  0.119527933413E+01 -0.102347656107E+01
  0.461992719359E+01  0.119527933413E+01  0.102347656107E+01
  0.462827939417E+01  0.305185299490E+01 -0.760508898570E+00
  0.462827939417E+01  0.305185299490E+01  0.760508898570E+00
  0.466872311975E+01  0.000000000000E+00 -0.111145353779E+01
  0.466872311975E+01  0.000000000000E+00  0.111145353779E+01
  0.474011846960E+01  0.234375742494E+01 -0.902048794181E+00
  0.474011846960E+01  0.234375742494E+01  0.902048794181E+00
  0.478678312943E+01  0.478676614119E+01 -0.486485741194E-21
  0.480687159859E+01  0.386279898322E+01 -0.604282518577E+00
  0.480687159859E+01  0.386279898322E+01  0.604282518577E+00
  0.493444751927E+01  0.478676772883E+01 -0.234913791519E+00
  0.493444751927E+01  0.478676772883E+01  0.234913791519E+00
  0.500836336858E+01  0.339638975791E+00 -0.111145376435E+01
  0.500836336858E+01  0.339638975791E+00  0.111145376435E+01
  0.515288767965E+01  0.172823896258E+01 -0.102347604475E+01
  0.515288767965E+01  0.172823896258E+01  0.102347604475E+01
  0.526024664267E+01  0.478676950112E+01 -0.436283779756E+00
  0.526024664267E+01  0.478676950112E+01  0.436283779756E+00
  0.540408912163E+01  0.735364289471E+00 -0.111145330904E+01
  0.540408912163E+01  0.735364289471E+00  0.111145330904E+01
  0.543922703165E+01  0.386279971700E+01 -0.760508029793E+00
  0.543922703165E+01  0.386279971700E+01  0.760508029793E+00
  0.544821511269E+01  0.305185355186E+01 -0.902048075774E+00
  0.544821511269E+01  0.305185355186E+01  0.902048075774E+00
  0.573084453819E+01  0.478677078010E+01 -0.604281589405E+00
  0.573084453819E+01  0.478677078010E+01  0.604281589405E+00
  0.576840728392E+01  0.234375792871E+01 -0.102347530863E+01
  0.576840728392E+01  0.234375792871E+01  0.102347530863E+01
  0.583338631872E+01  0.583336745020E+01 -0.675413266973E-21
  0.586400574314E+01  0.119527989759E+01 -0.111145288712E+01
  0.586400574314E+01  0.119527989759E+01  0.111145288712E+01
  0.598105051178E+01  0.583336923462E+01 -0.234913090871E+00
  0.598105051178E+01  0.583336923462E+01  0.234913090871E+00
  0.611307647464E+01  0.000000000000E+00 -0.114006672374E+01
  0.611307647464E+01  0.000000000000E+00  0.114006672374E+01
  0.625916268514E+01  0.386280033901E+01 -0.902047251677E+00
  0.625916268514E+01  0.386280033901E+01  0.902047251677E+00
  0.630684940695E+01  0.583337123515E+01 -0.436282847598E+00
  0.630684940695E+01  0.583337123515E+01  0.436282847598E+00
  0.636319987860E+01  0.478677160653E+01 -0.760507120199E+00
  0.636319987860E+01  0.478677160653E+01  0.760507120199E+00
  0.639696619211E+01  0.172823956313E+01 -0.111145225217E+01
  0.639696619211E+01  0.172823956313E+01  0.111145225217E+01
  0.645271674047E+01  0.339639661210E+00 -0.114006685712E+01
  0.645271674047E+01  0.339639661210E+00  0.114006685712E+01
  0.647650435555E+01  0.305185410393E+01 -0.102347458652E+01
  0.647650435555E+01  0.305185410393E+01  0.102347458652E+01
  0.677744762352E+01  0.583337266991E+01 -0.604280572342E+00
  0.677744762352E+01  0.583337266991E+01  0.604280572342E+00
  0.684844294097E+01  0.735365004281E+00 -0.114006640392E+01
  0.684844294097E+01  0.735365004281E+00  0.114006640392E+01
  0.701105922061E+01  0.701103836697E+01 -0.149294341255E-21
  0.701248623121E+01  0.234375857127E+01 -0.111145163580E+01
  0.701248623121E+01  0.234375857127E+01  0.111145163580E+01
  0.715872320950E+01  0.701104035556E+01 -0.234912358162E+00
  0.715872320950E+01  0.701104035556E+01  0.234912358162E+00
  0.718313593776E+01  0.478677229970E+01 -0.902046324878E+00
  0.718313593776E+01  0.478677229970E+01  0.902046324878E+00
  0.728745235124E+01  0.386280094467E+01 -0.102347387693E+01
  0.728745235124E+01  0.386280094467E+01  0.102347387693E+01
  0.730835952869E+01  0.119528064618E+01 -0.114006598452E+01
  0.730835952869E+01  0.119528064618E+01  0.114006598452E+01
  0.740980286412E+01  0.583337359616E+01 -0.760506118674E+00
  0.740980286412E+01  0.583337359616E+01  0.760506118674E+00
  0.748452186274E+01  0.701104259801E+01 -0.436281879461E+00
  0.748452186274E+01  0.701104259801E+01  0.436281879461E+00
  0.771254505256E+01  0.000000000000E+00 -0.108924206628E+01
  0.771254505256E+01  0.000000000000E+00  0.108924206628E+01
  0.772058373250E+01  0.305185479366E+01 -0.111145091404E+01
  0.772058373250E+01  0.305185479366E+01  0.111145091404E+01
  0.784131993909E+01  0.172824035030E+01 -0.114006535249E+01
  0.784131993909E+01  0.172824035030E+01  0.114006535249E+01
  0.795511991424E+01  0.701104419785E+01 -0.604279541528E+00
  0.795511991424E+01  0.701104419785E+01  0.604279541528E+00
  0.805218527188E+01  0.339640314685E+00 -0.108924208871E+01
  0.805218527188E+01  0.339640314685E+00  0.108924208871E+01
  0.821142554516E+01  0.478677296405E+01 -0.102347294427E+01
  0.821142554516E+01  0.478677296405E+01  0.102347294427E+01
[...]
POINT_DATA                1848
SCALARS phi float 1
LOOKUP_TABLE default
 -0.559334545489E-05
 -0.138962045531E+00
 -0.156178443778E+00
 -0.339415381429E+00
 -0.457163446351E+00
 -0.489137849715E+00
 -0.478373091858E+00
 -0.495589565568E+00
 -0.734875390926E+00
 -0.796574924939E+00
 -0.828549372072E+00
 -0.873833044382E+00
 -0.891049494070E+00
 -0.921289323524E+00
 -0.965575888606E+00
 -0.119448265308E+01
 -0.119203489533E+01
 -0.122400931030E+01
 -0.126070084866E+01
 -0.130498744135E+01
 -0.133344020723E+01
 -0.135065663008E+01
 -0.154749473813E+01
 -0.160323067109E+01
 -0.165164194243E+01
 -0.168361631981E+01
 -0.165616074851E+01
 -0.170044730531E+01
 -0.172708498998E+01
 -0.186604255131E+01
 -0.188325894312E+01
 -0.188690634351E+01
 -0.194264229880E+01
 -0.211576783161E+01
 -0.216005435091E+01
 -0.218424403435E+01
 -0.221621837046E+01
 -0.228236631454E+01
 -0.233810223703E+01
 -0.234219130048E+01
 -0.236169265716E+01
 -0.242780162831E+01
 -0.248114861780E+01
 -0.249836497407E+01
 -0.264837006855E+01
 -0.269265654385E+01
 -0.270110450597E+01
 -0.276721350109E+01
 -0.274197346429E+01
 -0.279770934779E+01
 -0.279935030805E+01
 -0.283132459664E+01
 -0.304981273065E+01
 -0.309656456100E+01
 -0.316267352284E+01
 -0.318877014842E+01
 -0.320598646451E+01
 -0.326347623712E+01
 -0.330776266149E+01
 -0.327457564148E+01
 -0.333031147924E+01
 -0.338484100158E+01
 -0.345984900734E+01
 -0.350697143250E+01
 -0.353894566708E+01
 -0.355617167038E+01
 -0.362228059266E+01
 -0.372425286600E+01
 -0.379926089304E+01
 -0.386021583712E+01
 -0.388968174043E+01
 -0.394541752961E+01
 -0.397109748241E+01
 -0.401538384864E+01
 -0.399917310426E+01
 -0.401638937657E+01
 -0.408877427809E+01
 -0.415488315396E+01
 -0.411971313036E+01
 -0.419472112400E+01
 -0.431737420210E+01
 -0.434934837829E+01
 -0.457932044477E+01
 -0.465432839871E+01
 -0.459730314639E+01
 -0.465303887949E+01
 -0.462485979658E+01
 -0.470631535594E+01
 -0.470388056329E+01
 -0.476998938980E+01
 -0.478356829610E+01
 -0.478150012113E+01
 -0.482578642631E+01
 -0.492252540107E+01
 -0.493974162617E+01
 -0.496427193260E+01
 -0.504572750857E+01
 -0.511192301017E+01
 -0.518693092628E+01
 -0.524072677256E+01
 -0.527270088404E+01
 -0.535973193046E+01
 -0.544118747306E+01
 -0.540770617822E+01
 -0.546344184765E+01
 -0.541150167060E+01
 -0.547761044446E+01
 -0.570485254880E+01
 -0.574913878588E+01
 -0.572702925463E+01
 -0.580203711678E+01
 -0.582946858018E+01
 -0.581933968456E+01
 -0.590079519623E+01
 -0.596842551418E+01
 -0.598564168792E+01
 -0.606719462152E+01
 -0.615074716738E+01
 -0.622190463581E+01
 -0.628801334927E+01
 -0.628662666607E+01
 -0.631860070923E+01
 -0.633105851259E+01
 -0.638679411535E+01
 -0.635194221725E+01
 -0.643339768238E+01
 -0.640660677795E+01
 -0.649015933359E+01
 -0.643465079031E+01
 -0.650965859955E+01
 -0.675075276626E+01
 -0.679503892880E+01
 -0.680206722288E+01
 -0.688561974530E+01
 -0.700635054962E+01
 -0.696704889185E+01
 -0.704850431181E+01
 -0.714530730643E+01
 -0.716252342648E+01
 -0.714525737620E+01
 -0.721136602174E+01
 -0.724505417429E+01
 -0.732006193152E+01
 -0.726167494312E+01
 -0.734522743481E+01
 -0.737695862973E+01
 -0.743269415910E+01
 -0.746350822519E+01
 -0.749548219740E+01
 -0.766745139034E+01
 -0.774727912831E+01
 -0.767467085690E+01
 -0.775612622397E+01
 -0.779427743715E+01
 -0.787782988252E+01
 -0.792763416272E+01
 -0.797192024971E+01
 -0.800686350435E+01
 -0.808669124397E+01
 -0.816840685624E+01
 -0.824341454511E+01
 -0.819115836823E+01
 -0.825726694331E+01
 -0.832077439459E+01
 -0.840232487824E+01
 -0.848215258490E+01
 -0.840938454445E+01
 -0.849293694488E+01
 -0.845973097222E+01
 -0.847694703725E+01
 -0.848507371199E+01
 -0.856652902706E+01
 -0.855384039657E+01
 -0.860957585127E+01
 -0.877793260235E+01
 -0.880990650022E+01
 -0.886193209869E+01
 -0.894175976616E+01
 -0.911700646028E+01
 -0.920055880808E+01
 -0.921430825953E+01
 -0.928931588180E+01
 -0.924205789439E+01
 -0.928634390206E+01
 -0.935283977311E+01
 -0.942471523299E+01
 -0.936804005237E+01
 -0.943414855557E+01
 -0.939453503328E+01
 -0.947436266352E+01
 -0.940842728521E+01
 -0.948988254062E+01
 -0.969225218739E+01
 -0.976412747722E+01
 -0.977664133494E+01
 -0.986826497109E+01
 -0.992400034714E+01
 -0.991559773659E+01
 -0.993281374667E+01
 -0.992741021371E+01
 -0.100109625098E+02
 -0.100096421048E+02
 -0.100894696905E+02
 -0.100877126010E+02
 -0.101595878733E+02
 -0.102337981677E+02
 -0.102657719920E+02
 -0.103911898768E+02
 -0.104661974266E+02
 -0.104543286264E+02
 -0.105357838152E+02
 -0.105473207658E+02
 -0.106191960161E+02
 -0.106824645389E+02
 -0.107485729705E+02
 -0.106979242401E+02
 -0.107422101712E+02
 -0.107172649334E+02
 -0.107970924669E+02
 -0.108507637269E+02
 -0.109343159636E+02
 -0.110367900903E+02
 -0.110980814365E+02
 -0.110799236922E+02
 -0.111517989198E+02
 -0.113241312050E+02
 -0.113798665050E+02
 -0.113743711523E+02
 -0.113762025795E+02
 -0.114374939399E+02
 -0.115133283408E+02
 -0.115305442967E+02
 -0.115276695996E+02
 -0.116074970730E+02
 -0.116312111308E+02
 -0.117126662469E+02
 -0.116950317067E+02
 -0.117669069055E+02
 -0.117056142915E+02
 -0.117806217733E+02
 -0.117716639505E+02
 -0.118329553071E+02
 -0.118315285288E+02
 -0.118635022805E+02
 -0.118966659562E+02
 -0.119802181264E+02
 -0.121383306856E+02
 -0.122044390437E+02
 -0.122312721195E+02
 -0.122925634692E+02
 -0.122956544305E+02
 -0.123399402861E+02
 -0.124026545206E+02
 -0.124745296884E+02
 -0.124510230637E+02
 -0.125308504783E+02
 -0.126336768855E+02
 -0.126833687291E+02
 -0.127638760027E+02
 -0.128251673457E+02
 -0.129218612828E+02
 -0.129775965122E+02
 -0.129456364298E+02
 -0.130270914778E+02
 -0.129730894007E+02
 -0.130227812676E+02
 -0.131101450057E+02
 -0.130735483871E+02
 -0.131571004937E+02
 -0.131614822712E+02
 -0.132364896832E+02
 -0.132130591693E+02
 -0.132849342984E+02
 -0.132491010908E+02
 -0.132663169963E+02
 -0.133685507695E+02
 -0.134182426321E+02
 -0.133789840219E+02
 -0.134402753483E+02
 -0.134969252398E+02
 -0.135767525885E+02
 -0.135673019977E+02
 -0.135992756850E+02
 -0.137360616302E+02
 -0.138021699204E+02
 -0.138281589378E+02
 -0.138778507882E+02
 -0.140314277364E+02
 -0.140757135250E+02
 -0.140750441551E+02
 -0.141136335545E+02
 -0.140866068369E+02
 -0.141478981487E+02
 -0.141364135680E+02
 -0.142082886546E+02
 -0.143607628194E+02
 -0.144104546574E+02
 -0.143879745671E+02
 -0.144715266059E+02
 -0.144144566838E+02
 -0.144530461109E+02
 -0.144015043354E+02
 -0.144829593221E+02
 -0.146576344828E+02
 -0.147133696461E+02
 -0.146738085716E+02
 -0.147536358485E+02
 -0.147592131459E+02
 -0.148342204891E+02
 -0.148099180529E+02
 -0.148485074701E+02
 -0.148970124394E+02
 -0.149583037238E+02
 -0.149752902496E+02
 -0.149758717845E+02
 -0.150255636086E+02
 -0.151142471606E+02
 -0.151314630208E+02
 -0.151823157203E+02
 -0.152541907602E+02
 -0.152695271694E+02
 -0.153081165771E+02
 -0.153190489221E+02
 -0.153478524672E+02
 -0.154324478539E+02
 -0.154644214817E+02
 -0.154718357009E+02
 -0.155379439275E+02
 -0.156584614555E+02
 -0.156872650261E+02
 -0.156834945975E+02
 -0.157331863958E+02
 -0.158021310496E+02
 -0.158407204382E+02
 -0.158203668359E+02
 -0.158816580876E+02
 -0.158438424037E+02
 -0.159273943726E+02
 -0.158965734417E+02
 -0.159408591712E+02
 -0.159882346926E+02
 -0.160680619021E+02
 -0.159992351410E+02
 -0.160806900585E+02
 -0.160539228224E+02
 -0.160827263811E+02
 -0.163518019411E+02
 -0.163724500895E+02
 -0.163592009308E+02
 -0.164310759159E+02
 -0.164172400123E+02
 -0.164558293792E+02
 -0.164939011449E+02
 -0.165435929127E+02
 -0.165135328910E+02
 -0.165423364329E+02
 -0.164949880984E+02
 -0.165699953860E+02
 -0.165227819951E+02
 -0.165785171047E+02
 -0.166912135173E+02
 -0.167118616891E+02
 -0.168662708884E+02
 -0.169275621013E+02
 -0.169559478285E+02
 -0.170461358138E+02
 -0.170749393325E+02
 -0.170866767882E+02
 -0.171073249427E+02
 -0.170949046411E+02
 -0.171121204644E+02
 -0.171248637721E+02
 -0.171634531087E+02
 -0.171818252696E+02
 -0.171959331135E+02
 -0.173369821845E+02
 -0.174030903600E+02
 -0.174131051470E+02
 -0.174450787300E+02
 -0.174172555313E+02
 -0.174669472628E+02
 -0.174415759913E+02
 -0.175251279000E+02
 -0.174441043707E+02
 -0.175239315196E+02
 -0.175212387461E+02
 -0.175353466037E+02
 -0.175462849474E+02
 -0.175669330784E+02
 -0.176612447718E+02
 -0.176900482612E+02
 -0.176736270237E+02
 -0.177455019512E+02
 -0.177350109759E+02
 -0.178164658463E+02
 -0.178316970853E+02
 -0.178407122440E+02
 -0.178772325099E+02
 -0.179215181962E+02
 -0.179167001067E+02
 -0.179308079411E+02
 -0.179352703140E+02
 -0.179738596104E+02
 -0.180431551365E+02
 -0.181044463004E+02
 -0.180788897704E+02
 -0.180995378721E+02
 -0.181711105523E+02
 -0.181801257139E+02
 -0.183301601472E+02
 -0.183352801050E+02
 -0.183688704316E+02
 -0.183976738820E+02
 -0.183763101660E+02
 -0.183904179704E+02
 -0.183601345185E+02
 -0.184351417587E+02
 -0.184631586214E+02
 -0.185128503057E+02
 -0.185034400261E+02
 -0.185591750938E+02
 -0.185665738131E+02
 -0.185755889451E+02
 -0.186695736046E+02
 -0.186746935544E+02
 -0.186939987223E+02
 -0.187146467853E+02
 -0.187064899891E+02
 -0.187086753999E+02
 -0.188586246938E+02
 -0.188972139433E+02
 -0.189089149825E+02
 -0.189230227491E+02
 -0.189872355064E+02
 -0.190261819602E+02
 -0.190351970541E+02
 -0.190330970580E+02
 -0.190459053452E+02
 -0.190480907399E+02
 -0.190650349539E+02
 -0.190701548674E+02
 -0.190418369501E+02
 -0.191216640306E+02
 -0.191294966735E+02
 -0.192013715429E+02
 -0.191720518998E+02
 -0.191892676970E+02
 -0.191792750592E+02
 -0.192080784618E+02
 -0.191773517568E+02
 -0.192609036184E+02
 -0.193266498227E+02
 -0.193176401475E+02
 -0.193837482885E+02
 -0.193575831231E+02
 -0.194188742336E+02
 -0.194016224691E+02
 -0.194222704827E+02
 -0.194413666907E+02
 -0.194435520447E+02
 -0.194902541618E+02
 -0.195222277134E+02
 -0.195246450020E+02
 -0.195297648712E+02
 -0.195240239280E+02
 -0.195381316456E+02
 -0.195587867710E+02
 -0.195678018183E+02
 -0.196001592415E+02
 -0.196816140642E+02
 -0.196400447647E+02
 -0.196897363916E+02
 -0.197221107794E+02
 -0.199009767359E+02
 -0.199031620420E+02
 -0.199045296824E+02
 -0.199431188741E+02
 -0.199543795130E+02
 -0.199986651709E+02
 -0.200572498086E+02
 -0.200623696257E+02
 -0.201026313398E+02
 -0.201314346812E+02
 -0.201738957105E+02
 -0.201829107024E+02
 -0.201817203745E+02
 -0.202120289970E+02
 -0.202326769503E+02
 -0.202316476682E+02
 -0.202457553276E+02
 -0.203407943302E+02
 -0.204158015438E+02
 -0.204335815403E+02
 -0.204357667908E+02
 -0.205805888655E+02
 -0.206363239111E+02
 -0.206723587449E+02
 -0.206774785015E+02
 -0.207143246639E+02
 -0.207272311251E+02
 -0.207991059344E+02
 -0.207776145645E+02
 -0.208574415984E+02
 -0.208134527583E+02
 -0.208747438133E+02
 -0.208815213527E+02
 -0.208905362792E+02
 -0.209544727396E+02
 -0.210041643049E+02
 -0.210420541899E+02
 -0.210561617822E+02
 -0.210486904751E+02
 -0.210508756624E+02
 -0.210424999585E+02
 -0.211260517725E+02
 -0.210814158180E+02
 -0.211200049420E+02
 -0.211353852701E+02
 -0.211560331547E+02
 -0.211485363211E+02
 -0.211773395952E+02
 -0.211830254742E+02
 -0.213294330165E+02
 -0.213219802890E+02
 -0.213391960717E+02
 -0.213799824785E+02
 -0.213851021659E+02
 -0.213947908399E+02
 -0.214608989620E+02
 -0.215808190006E+02
 -0.216622737964E+02
 -0.216401824450E+02
 -0.216721559812E+02
 -0.216919278713E+02
 -0.217009427245E+02
 -0.217563142076E+02
 -0.217584993235E+02
 -0.219654123656E+02
 -0.219795198801E+02
 -0.220370580037E+02
 -0.221043096272E+02
 -0.221485952745E+02
 -0.221812902472E+02
 -0.222019380535E+02
 -0.221903909016E+02
 -0.221955105121E+02
 -0.223254224502E+02
 -0.223542256480E+02
 -0.223958437853E+02
 -0.224344328381E+02
 -0.224103442710E+02
 -0.224600357689E+02
 -0.224111891001E+02
 -0.224724800968E+02
 -0.224179430698E+02
 -0.224929502728E+02
 -0.224630087101E+02
 -0.225348834696E+02
 -0.225667226303E+02
 -0.225689076668E+02
 -0.226152860444E+02
 -0.226243008157E+02
 -0.226427646200E+02
 -0.227225916067E+02
 -0.227305170257E+02
 -0.227862520635E+02
 -0.228474638006E+02
 -0.230113173392E+02
 -0.230254247698E+02
 -0.230231596622E+02
 -0.231067114495E+02
 -0.231137471678E+02
 -0.231188666929E+02
 -0.233581782781E+02
 -0.233788260005E+02
 -0.233782551856E+02
 -0.234900788960E+02
 -0.234922638456E+02
 -0.235172119185E+02
 -0.235344276995E+02
 -0.235447189582E+02
 -0.236108270847E+02
 -0.236398523189E+02
 -0.236686554357E+02
 -0.236611910172E+02
 -0.236702056991E+02
 -0.236579696000E+02
 -0.237394243937E+02
 -0.237708211877E+02
 -0.238354140175E+02
 -0.238673875565E+02
 -0.238517172157E+02
 -0.238903061922E+02
 -0.240080806008E+02
 -0.240577720333E+02
 -0.241596521398E+02
 -0.241647715733E+02
 -0.241469666716E+02
 -0.242082576154E+02
 -0.241882034625E+02
 -0.242023108023E+02
 -0.242995411592E+02
 -0.243438268159E+02
 -0.243281587357E+02
 -0.244000334465E+02
 -0.245359857741E+02
 -0.245381706301E+02
 -0.245678749686E+02
 -0.246428821799E+02
 -0.246234261843E+02
 -0.247032531446E+02
 -0.246726081446E+02
 -0.246932557775E+02
 -0.248167253173E+02
 -0.248380771399E+02
 -0.248470917271E+02
 -0.249257485299E+02
 -0.249814835850E+02
 -0.250957257455E+02
 -0.251245287775E+02
 -0.251003121235E+02
 -0.251838639086E+02
 -0.253365401689E+02
 -0.253416595044E+02
 -0.254494535391E+02
 -0.254880424423E+02
 -0.255026333286E+02
 -0.255167405727E+02
 -0.255888704511E+02
 -0.257128718972E+02
 -0.257150566537E+02
 -0.257278272345E+02
 -0.257450430275E+02
 -0.257438600692E+02
 -0.257935514380E+02
 -0.257399523480E+02
 -0.258060604957E+02
 -0.258079014694E+02
 -0.258893562713E+02
 -0.259936124573E+02
 -0.260121185866E+02
 -0.260734094873E+02
 -0.260460274214E+02
 -0.260780009845E+02
 -0.261284815701E+02
 -0.261491291104E+02
 -0.261525089118E+02
 -0.261615233999E+02
 -0.263088221796E+02
 -0.263806968602E+02
 -0.265101564658E+02
 -0.265544421530E+02
 -0.266509719411E+02
 -0.266560911749E+02
 -0.266934620671E+02
 -0.267222650158E+02
 -0.267005786136E+02
 -0.267804055634E+02
 -0.267631083388E+02
 -0.268381155799E+02
 -0.269585067535E+02
 -0.269726139005E+02
 -0.270273036698E+02
 -0.270294883229E+02
 -0.271363657360E+02
 -0.271921008348E+02
 -0.271852330020E+02
 -0.272238218343E+02
 -0.272502439577E+02
 -0.273337957598E+02
 -0.273080433107E+02
 -0.276083823374E+02
 -0.276173967244E+02
 -0.276090119761E+02
 -0.276587032915E+02
 -0.277262178913E+02
 -0.277468653412E+02
 -0.277840997182E+02
 -0.279230584927E+02
 -0.279402743114E+02
 -0.279505676459E+02
 -0.280166758417E+02
 -0.279927820206E+02
 -0.280540728881E+02
 -0.280031348202E+02
 -0.280845896605E+02
 -0.281068453672E+02
 -0.281119644975E+02
 -0.282412587268E+02
 -0.282732323308E+02
 -0.283859764932E+02
 -0.284578511575E+02
 -0.284292434351E+02
 -0.284580463037E+02
 -0.284831770965E+02
 -0.284853616445E+02
 -0.285562449813E+02
 -0.285703520330E+02
 -0.287053878032E+02
 -0.287496735422E+02
 -0.287639158097E+02
 -0.288505123329E+02
 -0.289303392910E+02
 -0.289737236344E+02
 -0.290487309279E+02
 -0.290503868126E+02
 -0.290889755806E+02
 -0.292061205662E+02
 -0.292151348541E+02
 -0.293315970924E+02
 -0.293873322525E+02
 -0.294619992582E+02
 -0.294826466239E+02
 -0.294454792030E+02
 -0.295290310348E+02
 -0.295896773098E+02
 -0.296393685820E+02
 -0.297045835968E+02
 -0.297097026253E+02
 -0.299340272699E+02
 -0.300729842537E+02
 -0.300902001110E+02
 -0.300809172330E+02
 -0.300831016772E+02
 -0.300699382336E+02
 -0.301312290819E+02
 -0.301458009223E+02
 -0.302119091886E+02
 -0.302137520219E+02
 -0.302952069146E+02
 -0.302920282562E+02
 -0.303061352168E+02
 -0.302943972444E+02
 -0.303232000424E+02
 -0.303616550371E+02
 -0.303911864901E+02
 -0.304231601531E+02
 -0.305359101946E+02
 -0.306077848643E+02
 -0.308553156327E+02
 -0.308996014434E+02
 -0.309419038424E+02
 -0.309509180356E+02
 -0.310310521428E+02
 -0.310696408617E+02
 -0.310457475609E+02
 -0.311255745576E+02
 -0.311689569238E+02
 -0.312439642924E+02
 -0.313271549751E+02
 -0.313478022620E+02
 -0.314403668737E+02
 -0.314454858054E+02
 -0.314815249634E+02
 -0.315372602056E+02
 -0.316668335165E+02
 -0.317165247643E+02
 -0.316560983065E+02
 -0.317396501995E+02
 -0.318166986049E+02
 -0.318188829500E+02
 -0.320111752603E+02
 -0.320974374556E+02
 -0.321501323833E+02
 -0.321673482908E+02
 -0.321571839738E+02
 -0.321712908524E+02
 -0.322198719327E+02
 -0.322811627834E+02
 -0.322750644822E+02
 -0.323038672208E+02
 -0.322957288243E+02
 -0.323618371822E+02
 -0.324089853220E+02
 -0.324904402986E+02
 -0.324683366661E+02
 -0.325003104041E+02
 -0.327311473245E+02
 -0.328030220153E+02
 -0.328070576555E+02
 -0.328160717629E+02
 -0.329324620934E+02
 -0.329767479937E+02
 -0.331082083494E+02
 -0.331467970340E+02
 -0.332563685747E+02
 -0.333361956238E+02
 -0.333055206882E+02
 -0.333106395309E+02
 -0.333078203079E+02
 -0.333284675300E+02
 -0.333188886653E+02
 -0.333938961303E+02
 -0.335586733934E+02
 -0.336144087318E+02
 -0.336818543262E+02
 -0.336840385807E+02
 -0.338167691199E+02
 -0.338664603609E+02
 -0.338513316224E+02
 -0.339348835992E+02
 -0.339625924003E+02
 -0.339918303345E+02
 -0.341307876145E+02
 -0.341480035806E+02
 -0.341378512145E+02
 -0.341519580232E+02
 -0.343522206899E+02
 -0.343810233866E+02
 -0.343728811128E+02
 -0.344389895769E+02
 -0.344151128748E+02
 -0.344764037479E+02
 -0.344489920746E+02
 -0.344809658990E+02
 -0.345589189988E+02
 -0.346403740719E+02
 -0.347877248976E+02
 -0.347967389318E+02
 -0.349131214354E+02
 -0.349574074401E+02
 -0.349417702416E+02
 -0.350136449795E+02
 -0.352581458603E+02
 -0.352967345287E+02
 -0.352861917438E+02
 -0.352913105104E+02
 -0.353849803292E+02
 -0.354056275042E+02
 -0.353960371797E+02
 -0.354710447602E+02
 -0.354516057158E+02
 -0.355314328487E+02
 -0.355393328152E+02
 -0.355950682654E+02
 -0.356625253828E+02
 -0.356647095592E+02
 -0.358569737867E+02
 -0.359432589854E+02
 -0.359959312339E+02
 -0.360131472661E+02
 -0.360120100634E+02
 -0.360617013178E+02
 -0.360012653257E+02
 -0.360848174078E+02
 -0.362150112384E+02
 -0.362291179939E+02
 -0.363141358996E+02
 -0.363461098205E+02
 -0.363535367839E+02
 -0.364196453656E+02
 -0.365021582027E+02
 -0.365309608760E+02
 -0.366257319869E+02
 -0.366870229036E+02
 -0.366360675507E+02
 -0.367175227484E+02
 -0.367782654034E+02
 -0.368225515196E+02
 -0.368648849234E+02
 -0.368738989004E+02
 -0.371370073923E+02
 -0.372088821994E+02
 -0.373633517708E+02
 -0.373684704778E+02
 -0.373766967138E+02
 -0.374517044168E+02
 -0.374044768737E+02
 -0.374602124475E+02
 -0.374533868066E+02
 -0.374919754792E+02
 -0.375349178447E+02
 -0.375555649892E+02
 -0.375927447309E+02
 -0.376015356367E+02
 -0.376813628659E+02
 -0.377317061621E+02
 -0.377489222643E+02
 -0.377396854110E+02
 -0.377418695254E+02
 -0.380204185027E+02
 -0.380499072398E+02
 -0.380818812644E+02
 -0.380784177383E+02
 -0.381619699361E+02
 -0.382226329920E+02
 -0.382723242813E+02
 -0.382186847235E+02
 -0.382847934392E+02
 -0.383649487555E+02
 -0.383790554769E+02
 -0.385140369025E+02
 -0.385583231337E+02
 -0.386167271330E+02
 -0.386981824622E+02
 -0.386974029626E+02
 -0.387262056355E+02
 -0.388209729615E+02
 -0.388822639431E+02
 -0.390148262545E+02
 -0.390238401934E+02
 -0.391402484718E+02
 -0.391959841729E+02
 -0.391904744077E+02
 -0.392418447147E+02
 -0.393168525524E+02
 -0.392869411405E+02
 -0.393588160335E+02
 -0.393294321976E+02
 -0.393466483715E+02
 -0.395132931034E+02
 -0.395184117694E+02
 -0.396476373242E+02
 -0.396796114520E+02
 -0.396640135517E+02
 -0.397026022505E+02
 -0.396786918977E+02
 -0.397585192424E+02
 -0.397301626076E+02
 -0.397508097449E+02
 -0.398896267446E+02
 -0.398918108161E+02
 -0.399544563998E+02
 -0.400205652489E+02
 -0.400590773758E+02
 -0.401426297052E+02
 -0.401117671488E+02
 -0.401560535035E+02
 -0.401703594999E+02
 -0.404178739740E+02
 -0.404675653196E+02
 -0.404818751946E+02
 -0.405633306588E+02
 -0.405601935211E+02
 -0.405743002297E+02
 -0.406463392778E+02
 -0.407379788242E+02
 -0.407937146570E+02
 -0.407852972334E+02
 -0.408025134786E+02
 -0.409080258989E+02
 -0.409368285914E+02
 -0.409709067233E+02
 -0.410321977897E+02
 -0.409776164534E+02
 -0.410526244342E+02
 -0.411035025987E+02
 -0.411354768307E+02