# vtk DataFile Version 3.0
TriPan results file. Generated by TriPan, USU AeroLab (c) 2021.
ASCII
DATASET POLYDATA
POINTS                  20 float
  0.209237651825E+02  0.192375373840E+01  0.000000000000E+00
  0.999331203341E+04  0.192375373840E+01  0.365670877646E+03
  0.190000000000E+02  0.000000000000E+00  0.000000000000E+00
  0.999330945025E+04  0.000000000000E+00  0.365741324193E+03
  0.244703655243E+02  0.547033166885E+01  0.000000000000E+00
  0.999331679565E+04  0.547033166885E+01  0.365541004339E+03
  0.303820724487E+02  0.113820018768E+02  0.000000000000E+00
  0.999332473366E+04  0.113820018768E+02  0.365324522960E+03
  0.387563171387E+02  0.197561950684E+02  0.000000000000E+00
  0.999333597827E+04  0.197561950684E+02  0.365017865668E+03
  0.482439842224E+02  0.292438049316E+02  0.000000000000E+00
  0.999334871795E+04  0.292438049316E+02  0.364670435852E+03
  0.566182289124E+02  0.376179962158E+02  0.000000000000E+00
  0.999335996256E+04  0.376179962158E+02  0.364363778561E+03
  0.625299339294E+02  0.435296669006E+02  0.000000000000E+00
  0.999336790057E+04  0.435296669006E+02  0.364147297252E+03
  0.660765380859E+02  0.470762481689E+02  0.000000000000E+00
  0.999337266281E+04  0.470762481689E+02  0.364017423805E+03
  0.680002975464E+02  0.490000000000E+02  0.000000000000E+00
  0.999337524596E+04  0.490000000000E+02  0.363946977467E+03
POLYGONS                  18                  72
3                   0                   1                   3
3                   0                   3                   2
3                   4                   5                   1
3                   4                   1                   0
3                   6                   7                   5
3                   6                   5                   4
3                   8                   9                   7
3                   8                   7                   6
3                  10                  11                   9
3                  10                   9                   8
3                  12                  13                  11
3                  12                  11                  10
3                  14                  15                  13
3                  14                  13                  12
3                  16                  17                  15
3                  16                  15                  14
3                  18                  19                  17
3                  18                  17                  16
CELL_DATA                  18
NORMALS normals float
  0.366191312840E-01 -0.366193491253E-01 -0.998658130941E+00
  0.366191312840E-01 -0.366193491253E-01 -0.998658130941E+00
  0.366191312658E-01 -0.366193626675E-01 -0.998658130445E+00
  0.366191312658E-01 -0.366193626675E-01 -0.998658130445E+00
  0.366191312711E-01 -0.366193587068E-01 -0.998658130590E+00
  0.366191312711E-01 -0.366193587068E-01 -0.998658130590E+00
  0.366191312741E-01 -0.366193564692E-01 -0.998658130672E+00
  0.366191312741E-01 -0.366193564692E-01 -0.998658130672E+00
  0.366191312800E-01 -0.366193521327E-01 -0.998658130830E+00
  0.366191312800E-01 -0.366193521328E-01 -0.998658130830E+00
  0.366191312630E-01 -0.366193647988E-01 -0.998658130367E+00
  0.366191312630E-01 -0.366193647988E-01 -0.998658130367E+00
  0.366191312909E-01 -0.366193439576E-01 -0.998658131130E+00
  0.366191312909E-01 -0.366193439576E-01 -0.998658131130E+00
  0.366191312592E-01 -0.366193675843E-01 -0.998658130265E+00
  0.366191312592E-01 -0.366193675843E-01 -0.998658130265E+00
  0.366191313814E-01 -0.366192766091E-01 -0.998658133596E+00
  0.366191313814E-01 -0.366192766091E-01 -0.998658133596E+00
POINT_DATA                  20
SCALARS mu float 1
LOOKUP_TABLE default
 -0.106221849651E+01
 -0.106221849651E+01
 -0.104543954400E+01
 -0.104543954400E+01
 -0.109742552281E+01
 -0.109742552281E+01
 -0.114152487461E+01
 -0.114152487461E+01
 -0.116869968317E+01
 -0.116869968317E+01
 -0.113875352565E+01
 -0.113875352565E+01
 -0.100862891238E+01
 -0.100862891238E+01
 -0.760469207963E+00
 -0.760469207963E+00
 -0.417427729415E+00
 -0.417427729415E+00
  0.000000000000E+00
  0.000000000000E+00
