# vtk DataFile Version 3.0
TriPan results file. Generated by TriPan, USU AeroLab (c) 2021.
ASCII
DATASET POLYDATA
POINTS                7064 float
  0.000000000000E+00  0.000000000000E+00  0.000000000000E+00
  0.389988087118E-01  0.000000000000E+00 -0.109218262136E+00
  0.389988087118E-01  0.000000000000E+00  0.109218262136E+00
  0.147665724158E+00  0.000000000000E+00 -0.234920635819E+00
  0.147665724158E+00  0.000000000000E+00  0.234920635819E+00
  0.161138445139E+00  0.161138445139E+00  0.000000000000E+00
  0.200137257576E+00  0.161138445139E+00 -0.109218269587E+00
  0.200137257576E+00  0.161138445139E+00  0.109218269587E+00
  0.290265858173E+00  0.000000000000E+00 -0.347333192825E+00
  0.290265858173E+00  0.000000000000E+00  0.347333192825E+00
  0.308804154396E+00  0.161138445139E+00 -0.234920650721E+00
  0.308804154396E+00  0.161138445139E+00  0.234920650721E+00
  0.335006117821E+00  0.335006117821E+00  0.000000000000E+00
  0.374004930258E+00  0.335006117821E+00 -0.109218277037E+00
  0.374004930258E+00  0.335006117821E+00  0.109218277037E+00
  0.451404303312E+00  0.161138445139E+00 -0.347333222628E+00
  0.451404303312E+00  0.161138445139E+00  0.347333222628E+00
  0.473465979099E+00  0.000000000000E+00 -0.436293870211E+00
  0.473465979099E+00  0.000000000000E+00  0.436293870211E+00
  0.482671856880E+00  0.335006117821E+00 -0.234920650721E+00
  0.482671856880E+00  0.335006117821E+00  0.234920650721E+00
  0.522506594658E+00  0.522506594658E+00  0.000000000000E+00
  0.561505436897E+00  0.522506594658E+00 -0.109218284488E+00
  0.561505436897E+00  0.522506594658E+00  0.109218284488E+00
  0.625271975994E+00  0.335006117821E+00 -0.347333222628E+00
  0.625271975994E+00  0.335006117821E+00  0.347333222628E+00
  0.634604454041E+00  0.161138445139E+00 -0.436293900013E+00
  0.634604454041E+00  0.161138445139E+00  0.436293900013E+00
  0.670172333717E+00  0.522506594658E+00 -0.234920665622E+00
  0.670172333717E+00  0.522506594658E+00  0.234920665622E+00
  0.689334988594E+00  0.000000000000E+00 -0.522850036621E+00
  0.689334988594E+00  0.000000000000E+00  0.522850036621E+00
  0.724590361118E+00  0.724590361118E+00  0.000000000000E+00
  0.763589203358E+00  0.724590361118E+00 -0.109218291938E+00
  0.763589203358E+00  0.724590361118E+00  0.109218291938E+00
  0.808472156525E+00  0.335006117821E+00 -0.436293929815E+00
  0.808472156525E+00  0.335006117821E+00  0.436293929815E+00
  0.812772512436E+00  0.522506594658E+00 -0.347333252430E+00
  0.812772512436E+00  0.522506594658E+00  0.347333252430E+00
  0.850473463535E+00  0.161138445139E+00 -0.522850036621E+00
  0.850473463535E+00  0.161138445139E+00  0.522850036621E+00
  0.872256100178E+00  0.724590361118E+00 -0.234920680523E+00
  0.872256100178E+00  0.724590361118E+00  0.234920680523E+00
  0.942254066467E+00  0.942254066467E+00  0.000000000000E+00
  0.944064557552E+00  0.000000000000E+00 -0.604293465614E+00
  0.944064557552E+00  0.000000000000E+00  0.604293465614E+00
  0.981252849102E+00  0.942254066467E+00 -0.109218299389E+00
  0.981252849102E+00  0.942254066467E+00  0.109218299389E+00
  0.995972692966E+00  0.522506594658E+00 -0.436293959618E+00
  0.995972692966E+00  0.522506594658E+00  0.436293959618E+00
  0.101485633850E+01  0.724590361118E+00 -0.347333282232E+00
  0.101485633850E+01  0.724590361118E+00  0.347333282232E+00
  0.102434122562E+01  0.335006117821E+00 -0.522850096226E+00
  0.102434122562E+01  0.335006117821E+00  0.522850096226E+00
  0.108991980553E+01  0.942254066467E+00 -0.234920710325E+00
  0.108991980553E+01  0.942254066467E+00  0.234920710325E+00
  0.110520303249E+01  0.161138445139E+00 -0.604293525219E+00
  0.110520303249E+01  0.161138445139E+00  0.604293525219E+00
  0.117653930187E+01  0.117653930187E+01  0.000000000000E+00
  0.119805645943E+01  0.724590361118E+00 -0.436293989420E+00
  0.119805645943E+01  0.724590361118E+00  0.436293989420E+00
  0.121184170246E+01  0.522506594658E+00 -0.522850096226E+00
  0.121184170246E+01  0.522506594658E+00  0.522850096226E+00
  0.121553814411E+01  0.117653930187E+01 -0.109218306839E+00
  0.121553814411E+01  0.117653930187E+01  0.109218306839E+00
  0.123251998425E+01  0.942254066467E+00 -0.347333312035E+00
  0.123251998425E+01  0.942254066467E+00  0.347333312035E+00
  0.123833239079E+01  0.000000000000E+00 -0.683996438980E+00
  0.123833239079E+01  0.000000000000E+00  0.683996438980E+00
  0.127907073498E+01  0.335006117821E+00 -0.604293525219E+00
  0.127907073498E+01  0.335006117821E+00  0.604293525219E+00
  0.132420504093E+01  0.117653930187E+01 -0.234920725226E+00
  0.132420504093E+01  0.117653930187E+01  0.234920725226E+00
  0.139947092533E+01  0.161138445139E+00 -0.683996498585E+00
  0.139947092533E+01  0.161138445139E+00  0.683996498585E+00
  0.141392552853E+01  0.724590361118E+00 -0.522850155830E+00
  0.141392552853E+01  0.724590361118E+00  0.522850155830E+00
  0.141572022438E+01  0.942254066467E+00 -0.436294019222E+00
  0.141572022438E+01  0.942254066467E+00  0.436294019222E+00
  0.142853081226E+01  0.142853081226E+01  0.000000000000E+00
  0.146657133102E+01  0.522506594658E+00 -0.604293584824E+00
  0.146657133102E+01  0.522506594658E+00  0.604293584824E+00
  0.146680521965E+01  0.117653930187E+01 -0.347333341837E+00
  0.146680521965E+01  0.117653930187E+01  0.347333341837E+00
  0.146752965450E+01  0.142853081226E+01 -0.109218314290E+00
  0.146752965450E+01  0.142853081226E+01  0.109218314290E+00
  0.157333862782E+01  0.335006117821E+00 -0.683996558189E+00
  0.157333862782E+01  0.335006117821E+00  0.683996558189E+00
  0.157619655132E+01  0.142853081226E+01 -0.234920740128E+00
  0.157619655132E+01  0.142853081226E+01  0.234920740128E+00
  0.157641971111E+01  0.000000000000E+00 -0.760520398617E+00
  0.157641971111E+01  0.000000000000E+00  0.760520398617E+00
  0.163158929348E+01  0.942254066467E+00 -0.522850155830E+00
  0.163158929348E+01  0.942254066467E+00  0.522850155830E+00
  0.165000545979E+01  0.117653930187E+01 -0.436294049025E+00
  0.165000545979E+01  0.117653930187E+01  0.436294049025E+00
  0.166865515709E+01  0.724590361118E+00 -0.604293584824E+00
  0.166865515709E+01  0.724590361118E+00  0.604293584824E+00
  0.169935321808E+01  0.169935321808E+01  0.000000000000E+00
  0.171879673004E+01  0.142853081226E+01 -0.347333371639E+00
  0.171879673004E+01  0.142853081226E+01  0.347333371639E+00
  0.173755824566E+01  0.161138445139E+00 -0.760520458221E+00
  0.173755824566E+01  0.161138445139E+00  0.760520458221E+00
  0.173835194111E+01  0.169935321808E+01 -0.109218329191E+00
  0.173835194111E+01  0.169935321808E+01  0.109218329191E+00
  0.176083922386E+01  0.522506594658E+00 -0.683996558189E+00
  0.176083922386E+01  0.522506594658E+00  0.683996558189E+00
  0.184701895714E+01  0.169935321808E+01 -0.234920755029E+00
  0.184701895714E+01  0.169935321808E+01  0.234920755029E+00
  0.186587452888E+01  0.117653930187E+01 -0.522850215435E+00
  0.186587452888E+01  0.117653930187E+01  0.522850215435E+00
  0.188631892204E+01  0.942254066467E+00 -0.604293644428E+00
  0.188631892204E+01  0.942254066467E+00  0.604293644428E+00
  0.190199697018E+01  0.142853081226E+01 -0.436294078827E+00
  0.190199697018E+01  0.142853081226E+01  0.436294078827E+00
  0.191142594814E+01  0.335006117821E+00 -0.760520458221E+00
  0.191142594814E+01  0.335006117821E+00  0.760520458221E+00
  0.196138751507E+01  0.000000000000E+00 -0.833668828011E+00
  0.196138751507E+01  0.000000000000E+00  0.833668828011E+00
  0.196292304993E+01  0.724590361118E+00 -0.683996617794E+00
  0.196292304993E+01  0.724590361118E+00  0.683996617794E+00
  0.198961913586E+01  0.169935321808E+01 -0.347333401442E+00
  0.198961913586E+01  0.169935321808E+01  0.347333401442E+00
  0.199016737938E+01  0.199016737938E+01  0.000000000000E+00
  0.202916622162E+01  0.199016737938E+01 -0.109218336642E+00
  0.202916622162E+01  0.199016737938E+01  0.109218336642E+00
  0.209892654419E+01  0.522506594658E+00 -0.760520517826E+00
  0.209892654419E+01  0.522506594658E+00  0.760520517826E+00
  0.211786603928E+01  0.142853081226E+01 -0.522850275040E+00
  0.211786603928E+01  0.142853081226E+01  0.522850275040E+00
  0.212060427666E+01  0.117653930187E+01 -0.604293704033E+00
  0.212060427666E+01  0.117653930187E+01  0.604293704033E+00
  0.212252616882E+01  0.161138445139E+00 -0.833668828011E+00
  0.212252616882E+01  0.161138445139E+00  0.833668828011E+00
  0.213783311844E+01  0.199016737938E+01 -0.234920784831E+00
  0.213783311844E+01  0.199016737938E+01  0.234920784831E+00
  0.217281937599E+01  0.169935321808E+01 -0.436294138432E+00
  0.217281937599E+01  0.169935321808E+01  0.436294138432E+00
  0.218058681488E+01  0.942254066467E+00 -0.683996677399E+00
  0.218058681488E+01  0.942254066467E+00  0.683996677399E+00
  0.228043341637E+01  0.199016737938E+01 -0.347333431244E+00
  0.228043341637E+01  0.199016737938E+01  0.347333431244E+00
  0.229639387131E+01  0.335006117821E+00 -0.833668887615E+00
  0.229639387131E+01  0.335006117821E+00  0.833668887615E+00
  0.230101037025E+01  0.724590361118E+00 -0.760520577431E+00
  0.230101037025E+01  0.724590361118E+00  0.760520577431E+00
  0.230216526985E+01  0.230216526985E+01  0.000000000000E+00
  0.234116411209E+01  0.230216526985E+01 -0.109218344092E+00
  0.234116411209E+01  0.230216526985E+01  0.109218344092E+00
  0.237259578705E+01  0.142853081226E+01 -0.604293763638E+00
  0.237259578705E+01  0.142853081226E+01  0.604293763638E+00
  0.238868856430E+01  0.169935321808E+01 -0.522850275040E+00
  0.238868856430E+01  0.169935321808E+01  0.522850275040E+00
  0.239635515213E+01  0.000000000000E+00 -0.902061045170E+00
  0.239635515213E+01  0.000000000000E+00  0.902061045170E+00
  0.241487216949E+01  0.117653930187E+01 -0.683996737003E+00
  0.241487216949E+01  0.117653930187E+01  0.683996737003E+00
  0.244983124733E+01  0.230216526985E+01 -0.234920799732E+00
  0.244983124733E+01  0.230216526985E+01  0.234920799732E+00
  0.246363353729E+01  0.199016737938E+01 -0.436294168234E+00
  0.246363353729E+01  0.199016737938E+01  0.436294168234E+00
[...]
CELL_DATA               13888
SCALARS sigma float 1
LOOKUP_TABLE default
  0.783499021076E-01
  0.783514494978E-01
  0.782783740459E-01
  0.782783801217E-01
  0.781943594860E-01
  0.781932040248E-01
  0.780959485659E-01
  0.780959486179E-01
  0.779841045454E-01
  0.779841359383E-01
  0.778542845995E-01
  0.778550343480E-01
  0.777143878958E-01
  0.777137079865E-01
  0.775300523919E-01
  0.775300943950E-01
  0.772388138756E-01
  0.772393242656E-01
  0.768427313980E-01
  0.768423095128E-01
  0.766720816188E-01
  0.766722263826E-01
  0.769105826546E-01
  0.769104526884E-01
  0.771890916639E-01
  0.771890916481E-01
  0.772285305831E-01
  0.772285746729E-01
  0.786464847681E-01
  0.786465418963E-01
  0.801719133436E-01
  0.801718617188E-01
  0.822889713636E-01
  0.822889713624E-01
  0.883896839419E-01
  0.883897216931E-01
  0.938141648768E-01
  0.938142326465E-01
  0.103555602926E+00
  0.103555516091E+00
  0.113061778850E+00
  0.113061768307E+00
  0.127148882044E+00
  0.127148915803E+00
  0.143758654257E+00
  0.143758678570E+00
  0.161699885759E+00
  0.161699732642E+00
  0.190825043304E+00
  0.190825043317E+00
  0.216588736597E+00
  0.216588736583E+00
  0.241029100018E+00
  0.241029138766E+00
  0.264264263551E+00
  0.264264405666E+00
  0.286042505252E+00
  0.286042377553E+00
  0.306762515736E+00
  0.306762564950E+00
  0.330432681725E+00
  0.330432750004E+00
  0.358019820038E+00
  0.358019676715E+00
  0.387085224035E+00
  0.387085224029E+00
  0.420395813604E+00
  0.420395784091E+00
  0.453970352511E+00
  0.453970461113E+00
  0.502855115106E+00
  0.502855067407E+00
  0.545099493823E+00
  0.545099474386E+00
  0.640221185404E+00
  0.640221185563E+00
  0.688961706485E+00
  0.688961688573E+00
  0.718924011337E+00
  0.718924013622E+00
  0.628859393150E+00
  0.628859393455E+00
  0.497080680502E+00
  0.497080655326E+00
  0.394562238927E+00
  0.394562233259E+00
  0.241823504722E+00
  0.241823548960E+00
  0.182824395118E+00
  0.182824487584E+00
  0.118743573275E+00
  0.118743390110E+00
  0.768346227568E-01
  0.768346693029E-01
  0.366958029918E-01
  0.366958030005E-01
  0.272122871305E-02
  0.272143108259E-02
 -0.286982895719E-01
 -0.286983816035E-01
 -0.550586896439E-01
 -0.550587534378E-01
 -0.777048907618E-01
 -0.777047309223E-01
 -0.101094949520E+00
 -0.101095120233E+00
 -0.125603053821E+00
 -0.125603098169E+00
 -0.150903005719E+00
 -0.150903005705E+00
 -0.177059620789E+00
 -0.177059620802E+00
 -0.206015954884E+00
 -0.206015810414E+00
 -0.223537624366E+00
 -0.223537646181E+00
 -0.239549109198E+00
 -0.239549138041E+00
 -0.252972690526E+00
 -0.252972681896E+00
 -0.261950961704E+00
 -0.261950866176E+00
 -0.271084629422E+00
 -0.271084704599E+00
 -0.276141740860E+00
 -0.276141782783E+00
 -0.281804540136E+00
 -0.281804540134E+00
 -0.283763558872E+00
 -0.283763501987E+00
 -0.285173021177E+00
 -0.285173083555E+00
 -0.286481841608E+00
 -0.286481889246E+00
 -0.286518272012E+00
 -0.286518271995E+00
 -0.286775287888E+00
 -0.286775150877E+00
 -0.286994966906E+00
 -0.286995117630E+00
 -0.286838134711E+00
 -0.286837700808E+00
 -0.286471887303E+00
 -0.286472406118E+00
 -0.286203661436E+00
 -0.286203703668E+00
 -0.286034226631E+00
 -0.286033549882E+00
 -0.285903745688E+00
 -0.285904485107E+00
 -0.285784631501E+00
 -0.285784662205E+00
 -0.285681419954E+00
 -0.285681420005E+00
 -0.285591637249E+00
 -0.285590522962E+00
 -0.285512952792E+00
 -0.285512958617E+00
 -0.285445489323E+00
 -0.285446965257E+00
  0.783514410592E-01
  0.783499000557E-01
  0.782783700925E-01
  0.782783822497E-01
  0.781932019442E-01
  0.781943581064E-01
  0.780969197729E-01
  0.780959461621E-01
  0.779832314103E-01
  0.779840925819E-01
  0.778550330707E-01
  0.778542825699E-01
  0.777143719119E-01
  0.777143958456E-01
  0.775294624789E-01
  0.775300400507E-01
  0.772393230151E-01
  0.772388118669E-01
  0.768427061342E-01
  0.768427390679E-01
  0.766720796566E-01
  0.766720796586E-01
  0.769104507130E-01
  0.769105809665E-01
  0.771890367261E-01
  0.771890849090E-01
  0.772285694061E-01
  0.772285252222E-01
  0.786465402397E-01
  0.786464829421E-01
  0.801718598992E-01
  0.801719116875E-01
  0.822890917723E-01
  0.822889724217E-01
  0.883896123913E-01
  0.883896822663E-01
  0.938142356004E-01
  0.938141675919E-01
  0.103555538396E+00
  0.103555605544E+00
  0.113061767601E+00
  0.113061694869E+00
  0.127148911084E+00
  0.127148911084E+00
  0.143758674018E+00
  0.143758674018E+00
  0.161699732645E+00
  0.161699885565E+00
  0.190825042307E+00
  0.190825042307E+00
  0.216588730665E+00
  0.216588730664E+00
  0.241029128832E+00
  0.241029089919E+00
  0.264264409057E+00
  0.264264237222E+00
  0.286042388249E+00
  0.286042568630E+00
  0.306762560031E+00
  0.306762464478E+00
  0.330432775719E+00
  0.330432775721E+00
  0.358019679620E+00
  0.358019785192E+00
  0.387085201529E+00
  0.387085091759E+00
  0.420395781764E+00
  0.420395893421E+00
  0.453970461633E+00
  0.453970385529E+00
  0.502855071352E+00
  0.502855081212E+00
  0.545099456978E+00
  0.545099478819E+00
  0.640221148349E+00
  0.640221151930E+00
  0.688961641362E+00
  0.688961663129E+00
  0.718924018793E+00
  0.718924013490E+00
  0.628859398792E+00
  0.628859397672E+00
  0.497080607060E+00
  0.497080646440E+00
  0.394562259690E+00
  0.394562215993E+00
  0.241823544413E+00
  0.241823496999E+00
  0.182824415022E+00
  0.182824396552E+00
  0.118743448220E+00
  0.118743573411E+00
  0.768347946794E-01
  0.768346223315E-01
  0.366956410639E-01
  0.366958008588E-01
  0.272137538831E-02
  0.272122873513E-02
 -0.286982918030E-01
 -0.286982918053E-01
 -0.550588110784E-01
 -0.550586887610E-01
 -0.777046703578E-01
 -0.777048936671E-01
 -0.101095155364E+00
 -0.101094950818E+00
 -0.125603092882E+00
 -0.125603048644E+00
 -0.150903001596E+00
 -0.150903001596E+00
 -0.177059619851E+00
 -0.177059619851E+00
 -0.206015810167E+00
 -0.206015954888E+00
 -0.223537617288E+00
 -0.223537617288E+00
 -0.239549100307E+00
 -0.239549100307E+00
 -0.252972749142E+00
 -0.252972688946E+00
 -0.261950872796E+00
 -0.261950945851E+00
 -0.271084712444E+00
 -0.271084637912E+00
 -0.276141777548E+00
 -0.276141854185E+00
 -0.281804543758E+00
 -0.281804413004E+00
 -0.283763496125E+00
 -0.283763552494E+00
 -0.285173076934E+00
 -0.285173015101E+00
 -0.286481869360E+00
 -0.286481822147E+00
 -0.286518246922E+00
 -0.286518297825E+00
 -0.286775144583E+00
 -0.286775280606E+00
 -0.286995110293E+00
 -0.286995110295E+00
 -0.286837729438E+00
 -0.286837763048E+00
 -0.286472398667E+00
 -0.286471882665E+00
 -0.286203658110E+00
 -0.286204235273E+00
 -0.286033579141E+00
 -0.286033602835E+00
 -0.285904477654E+00
 -0.285903741013E+00
 -0.285784618363E+00
 -0.285785457123E+00
 -0.285681411211E+00
 -0.285680469479E+00
 -0.285590517923E+00
 -0.285591629373E+00
 -0.285512988540E+00
 -0.285513000164E+00
 -0.285446957781E+00
 -0.285445491403E+00
  0.783514394724E-01
  0.783514464576E-01
  0.782783598277E-01
  0.782783659101E-01
  0.781931872735E-01
  0.781931977663E-01
  0.780969435449E-01
  0.780969253945E-01
  0.779832276509E-01
  0.779832276509E-01
  0.778550111388E-01
  0.778550385505E-01
  0.777143435016E-01
  0.777143674984E-01
  0.775294584100E-01
  0.775294584100E-01
  0.772393285352E-01
  0.772393285377E-01
  0.768427356811E-01
  0.768427026946E-01
  0.766720166374E-01
  0.766720756190E-01
  0.769106348019E-01
  0.769104511395E-01
  0.771890405421E-01
  0.771890405596E-01
  0.772285290708E-01
  0.772285733400E-01
  0.786466273877E-01
  0.786465453225E-01
  0.801717835079E-01
  0.801718604226E-01
  0.822889701201E-01
  0.822890897975E-01
  0.883897181008E-01
  0.883896100315E-01
  0.938142360822E-01
  0.938142360926E-01
  0.103555536014E+00
  0.103555536010E+00
  0.113061698026E+00
  0.113061770555E+00
  0.127148916206E+00
  0.127148916207E+00
  0.143758678100E+00
  0.143758678099E+00
  0.161699885596E+00
  0.161699732858E+00
  0.190825043160E+00
  0.190825043160E+00
  0.216588735350E+00
  0.216588713906E+00
  0.241029099027E+00
  0.241029138106E+00
  0.264264231819E+00
  0.264264375836E+00
  0.286042565096E+00
  0.286042474159E+00
  0.306762457983E+00
  0.306762554499E+00
  0.330432750185E+00
  0.330432648009E+00
  0.358019792098E+00
  0.358019751379E+00
  0.387085081425E+00
  0.387085193179E+00
  0.420395880933E+00
  0.420395766800E+00
  0.453970377842E+00
  0.453970419264E+00
  0.502855065546E+00
  0.502855055309E+00
  0.545099479644E+00
  0.545099479646E+00
  0.640221161711E+00
  0.640221153801E+00
  0.688961671068E+00
  0.688961653102E+00
  0.718923964574E+00
  0.718924014845E+00
  0.628859341223E+00
  0.628859356005E+00
  0.497080654910E+00
  0.497080612788E+00
  0.394562204177E+00
  0.394562265718E+00
  0.241823544784E+00
  0.241823544779E+00
  0.182824390719E+00
  0.182824409326E+00
  0.118743512849E+00
  0.118743446209E+00
  0.768346195940E-01
  0.768347923971E-01
  0.366958000697E-01
  0.366956400843E-01
  0.272131970656E-02
  0.272137544081E-02
 -0.286984236139E-01
 -0.286982895853E-01
 -0.550586877680E-01
 -0.550588099126E-01
 -0.777047808484E-01
 -0.777046693977E-01
 -0.101094983287E+00
 -0.101095153297E+00
 -0.125603053478E+00
 -0.125603097628E+00
 -0.150903027907E+00
 -0.150903004861E+00
 -0.177059620643E+00
 -0.177059620643E+00
 -0.206015955158E+00
 -0.206015810206E+00
 -0.223537623635E+00
 -0.223537623634E+00
 -0.239549109957E+00
 -0.239549109958E+00
 -0.252972695564E+00
 -0.252972756205E+00
 -0.261950939815E+00
 -0.261950939811E+00
 -0.271084639334E+00
 -0.271084639345E+00
 -0.276141846812E+00
 -0.276141729642E+00
 -0.281804406241E+00
 -0.281804535825E+00
 -0.283763554346E+00
 -0.283763637116E+00
 -0.285173033531E+00
 -0.285172945928E+00
 -0.286481836740E+00
 -0.286481883560E+00
 -0.286518312054E+00
 -0.286518312073E+00
 -0.286775282196E+00
 -0.286775092067E+00
 -0.286995095182E+00
 -0.286995155583E+00
 -0.286837750209E+00
 -0.286837716785E+00
 -0.286471903147E+00
 -0.286471903150E+00
 -0.286204220252E+00
 -0.286204220252E+00
 -0.286033586591E+00
 -0.286033610228E+00
 -0.285903761136E+00
 -0.285903787923E+00
 -0.285785443345E+00
 -0.285785443345E+00
 -0.285680490043E+00
 -0.285680472545E+00
 -0.285591614114E+00
 -0.285591624171E+00
 -0.285512984909E+00
 -0.285512990710E+00
 -0.285445511070E+00
 -0.285445517703E+00
  0.783498891460E-01
  0.783514386314E-01
  0.782783529042E-01
  0.782783589889E-01
  0.781943311231E-01
  0.781931946137E-01
  0.780959314087E-01
  0.780969426012E-01
  0.779840972303E-01
  0.779832347688E-01
  0.778542582317E-01
  0.778550100323E-01
  0.777143670040E-01
  0.777143430184E-01
  0.775300454350E-01
  0.775294664948E-01
  0.772387780679E-01
  0.772393277734E-01
  0.768427012884E-01
  0.768427343193E-01
  0.766724924043E-01
  0.766720241100E-01
  0.769104010026E-01
  0.769106382212E-01
  0.771890395241E-01
  0.771890395050E-01
  0.772285736113E-01
  0.772285292329E-01
  0.786465441869E-01
  0.786466264541E-01
  0.801717799739E-01
  0.801717799752E-01
  0.822889692025E-01
  0.822889692150E-01
  0.883897213531E-01
  0.883897213519E-01
  0.938142352988E-01
  0.938142352895E-01
  0.103555535330E+00
  0.103555535336E+00
  0.113061767455E+00
  0.113061777926E+00
  0.127148913358E+00
  0.127148846327E+00
  0.143758674358E+00
  0.143758698529E+00
  0.161699733113E+00
  0.161699885684E+00
  0.190825042320E+00
  0.190825042320E+00
  0.216588708954E+00
  0.216588708954E+00
  0.241029130027E+00
  0.241029130027E+00
  0.264264375466E+00
  0.264264201544E+00
  0.286042481658E+00
  0.286042573284E+00
  0.306762564870E+00
  0.306762514147E+00
  0.330432654475E+00
  0.330432654477E+00
  0.358019754032E+00
  0.358019754026E+00
  0.387085222750E+00
  0.387085222754E+00
  0.420395773687E+00
  0.420395890098E+00
  0.453970407899E+00
  0.453970290269E+00
  0.502855077459E+00
  0.502855088038E+00
  0.545099505347E+00
  0.545099550760E+00
  0.640221116784E+00
  0.640221106096E+00
  0.688961700331E+00
  0.688961697759E+00
  0.718924019292E+00
  0.718924014712E+00
  0.628859346863E+00
  0.628859345112E+00
  0.497080696920E+00
  0.497080688985E+00
  0.394562118114E+00
  0.394562181364E+00
  0.241823647549E+00
  0.241823556185E+00
  0.182824417496E+00
  0.182824398772E+00
  0.118743324356E+00
  0.118743509877E+00
  0.768347940721E-01
  0.768346208527E-01
  0.366958028791E-01
  0.366958028730E-01
  0.272131971959E-02
  0.272131972673E-02
 -0.286984241732E-01
 -0.286984241754E-01
 -0.550587531548E-01
 -0.550586896295E-01
 -0.777046716199E-01
 -0.777047828858E-01
 -0.101095186895E+00
 -0.101094983145E+00
 -0.125603049268E+00
 -0.125603049268E+00
 -0.150903024456E+00
 -0.150903024457E+00
 -0.177059619864E+00
 -0.177059619864E+00
 -0.206015810318E+00
 -0.206015955483E+00
 -0.223537595781E+00
 -0.223537617817E+00
 -0.239549163226E+00
 -0.239549104589E+00
 -0.252972679789E+00
 -0.252972688626E+00
 -0.261950938096E+00
 -0.261950938102E+00
 -0.271084637055E+00
 -0.271084637045E+00
 -0.276141739799E+00
 -0.276141739798E+00
 -0.281804532725E+00
 -0.281804532739E+00
 -0.283763624612E+00
 -0.283763624613E+00
 -0.285172942543E+00
 -0.285173029482E+00
 -0.286481884161E+00
 -0.286481837670E+00
 -0.286518308223E+00
 -0.286518308203E+00
 -0.286775104816E+00
 -0.286775348411E+00
 -0.286995183554E+00
 -0.286994707501E+00
 -0.286837711702E+00
 -0.286837744949E+00
 -0.286471900325E+00
 -0.286472448468E+00
 -0.286204250098E+00
 -0.286203677844E+00
 -0.286033608449E+00
 -0.286033584932E+00
 -0.285903783860E+00
 -0.285904515561E+00
 -0.285785469431E+00
 -0.285784635605E+00
 -0.285680469093E+00
 -0.285681440896E+00
 -0.285591650981E+00
 -0.285590564517E+00
 -0.285512987650E+00
 -0.285512993440E+00
 -0.285445514639E+00
 -0.285446982941E+00
  0.783514202252E-01
  0.783498842938E-01
  0.782783501764E-01
  0.782783562631E-01
  0.781943239470E-01
  0.781943344515E-01
  0.780959082310E-01
  0.780959264556E-01
  0.779841006935E-01
  0.779841006487E-01
  0.778542533850E-01
  0.778542534222E-01
  0.777143461763E-01
  0.777143701489E-01
  0.775300482499E-01
  0.775300482831E-01
  0.772387726935E-01
  0.772387726641E-01
  0.768427383787E-01
  0.768427053050E-01
  0.766724367293E-01
  0.766724959108E-01
  0.769103950546E-01
  0.769103950353E-01
  0.771890388902E-01
  0.771890388919E-01
  0.772285273854E-01
  0.772285718657E-01
  0.786465412365E-01
  0.786465412365E-01
  0.801717794550E-01
  0.801717794414E-01
  0.822889686825E-01
  0.822889686812E-01
  0.883897208671E-01
  0.883897208683E-01
  0.938142348405E-01
  0.938142348498E-01
  0.103555534962E+00
  0.103555534953E+00
  0.113061777283E+00
  0.113061705103E+00
  0.127148846292E+00
  0.127148913169E+00
  0.143758699059E+00
  0.143758823340E+00
  0.161699885602E+00
  0.161699746936E+00
  0.190825043063E+00
  0.190825043063E+00
  0.216588713204E+00
  0.216588734733E+00
  0.241029136928E+00
  0.241029097557E+00
  0.264264202811E+00
  0.264264377652E+00
  0.286042568302E+00
  0.286042383785E+00
  0.306762524015E+00
  0.306762524017E+00
  0.330432667153E+00
  0.330432771509E+00
  0.358019752941E+00
  0.358019752947E+00
  0.387085221456E+00
  0.387085221449E+00
  0.420395917858E+00
  0.420395917860E+00
  0.453970288540E+00
  0.453970408714E+00
  0.502855048788E+00
  0.502854993761E+00
  0.545099550707E+00
  0.545099456191E+00
  0.640221168885E+00
  0.640221188282E+00
  0.688961719447E+00
  0.688961731951E+00
  0.718924111378E+00
  0.718924011603E+00
  0.628859478933E+00
  0.628859431419E+00
  0.497080660359E+00
  0.497080712567E+00
  0.394562251744E+00
  0.394562156810E+00
  0.241823463158E+00
  0.241823647526E+00
  0.182824308094E+00
  0.182824403226E+00
  0.118743510090E+00
  0.118743323903E+00
  0.768347991487E-01
  0.768347991458E-01
  0.366958027472E-01
  0.366958027560E-01
  0.272131971848E-02
  0.272131971135E-02
 -0.286982914372E-01
 -0.286984252742E-01
 -0.550587549240E-01
 -0.550587549261E-01
 -0.777048924547E-01
 -0.777046702666E-01
 -0.101094983982E+00
 -0.101095187379E+00
 -0.125603096863E+00
 -0.125603052865E+00
 -0.150903004430E+00
 -0.150903027417E+00
 -0.177059620553E+00
 -0.177059620553E+00
 -0.206015942461E+00
 -0.206015810214E+00
 -0.223537482795E+00
 -0.223537596605E+00
 -0.239549104270E+00
 -0.239549163160E+00
 -0.252972739784E+00
 -0.252972678351E+00
 -0.261950937149E+00
 -0.261950937140E+00
 -0.271084635747E+00
 -0.271084635757E+00
 -0.276141738283E+00
 -0.276141738285E+00
 -0.281804530954E+00
 -0.281804530952E+00
 -0.283763622729E+00
 -0.283763622714E+00
 -0.285173018784E+00
 -0.285173018784E+00
 -0.286481831194E+00
 -0.286481877384E+00
 -0.286518305856E+00
 -0.286518305858E+00
 -0.286775326161E+00
 -0.286775326141E+00
 -0.286994720627E+00
 -0.286994780381E+00
 -0.286837759943E+00
 -0.286837726854E+00
 -0.286472428426E+00
 -0.286472428397E+00
 -0.286203688358E+00
 -0.286203688391E+00
 -0.286033596507E+00
 -0.286033619912E+00
 -0.285904497900E+00
 -0.285904497936E+00
 -0.285784648133E+00
 -0.285784648089E+00
 -0.285681422777E+00
 -0.285681440241E+00
 -0.285590576674E+00
 -0.285590586691E+00
 -0.285513005692E+00
 -0.285513011471E+00
 -0.285446965263E+00
 -0.285445512490E+00
  0.783498666132E-01
  0.783514243062E-01
  0.782783344260E-01
  0.782783466064E-01
  0.781943204108E-01
  0.781943204102E-01
  0.780959231266E-01
  0.780959048921E-01
  0.779840656317E-01
  0.779840972327E-01
  0.778550099887E-01
  0.778542570203E-01
  0.777143255323E-01
  0.777143495560E-01
  0.775294647568E-01
  0.775300447999E-01
  0.772392899848E-01
  0.772387763613E-01
  0.768427084223E-01
  0.768427415376E-01
  0.766720218573E-01
  0.766724321922E-01
  0.769103916325E-01
  0.769103916325E-01
  0.771890354552E-01
  0.771890354727E-01
  0.772287265837E-01
  0.772285285644E-01
  0.786464588780E-01
  0.786465414617E-01
  0.801718591921E-01
  0.801717817696E-01
  0.822890194396E-01
  0.822889723574E-01
  0.883896122023E-01
  0.883897210906E-01
  0.938142672884E-01
  0.938142360318E-01
  0.103555605789E+00
  0.103555537910E+00
  0.113061709825E+00
  0.113061699413E+00
  0.127148915348E+00
  0.127148915348E+00
  0.143758822839E+00
  0.143758698748E+00
  0.161699746891E+00
  0.161699746891E+00
  0.190825042990E+00
  0.190825042990E+00
  0.216588734432E+00
  0.216588712866E+00
  0.241029096813E+00
  0.241029264423E+00
  0.264264377224E+00
  0.264264260270E+00
  0.286042375327E+00
  0.286042388560E+00
  0.306762511507E+00
  0.306762563044E+00
  0.330432760796E+00
  0.330432694556E+00
  0.358019748882E+00
  0.358019748878E+00
  0.387085215678E+00
  0.387085215680E+00
  0.420395909611E+00
  0.420395909615E+00
  0.453970430317E+00
  0.453970351967E+00
  0.502855028439E+00
  0.502855084956E+00
  0.545099430525E+00
  0.545099430519E+00
  0.640221186101E+00
  0.640221193346E+00
  0.688961669649E+00
  0.688961654547E+00
  0.718923929469E+00
  0.718924014446E+00
  0.628859358149E+00
  0.628859407089E+00
  0.497080704900E+00
  0.497080615408E+00
  0.394562281181E+00
  0.394562250400E+00
  0.241823451760E+00
  0.241823451772E+00
  0.182824416386E+00
  0.182824320702E+00
  0.118743396280E+00
  0.118743515740E+00
  0.768347976460E-01
  0.768347976411E-01
  0.366958022028E-01
  0.366958022001E-01
  0.272131968291E-02
  0.272131968758E-02
 -0.286983746312E-01
 -0.286982905068E-01
 -0.550586893011E-01
 -0.550587526787E-01
 -0.777048743452E-01
 -0.777048901570E-01
 -0.101095119003E+00
 -0.101094983818E+00
 -0.125602910068E+00
 -0.125603096476E+00
 -0.150903027182E+00
 -0.150903004221E+00
 -0.177059620485E+00
 -0.177059620485E+00
 -0.206015942404E+00
 -0.206015942404E+00
 -0.223537596121E+00
 -0.223537482016E+00
 -0.239549108375E+00
 -0.239549108375E+00
 -0.252972759281E+00
 -0.252972750351E+00
 -0.261950944600E+00
 -0.261950873401E+00
 -0.271084639200E+00
 -0.271084606289E+00
 -0.276141738983E+00
 -0.276141853594E+00
 -0.281804543538E+00
 -0.281804494074E+00
 -0.283763630907E+00
 -0.283763549997E+00
 -0.285173019601E+00
 -0.285173105323E+00
 -0.286481881758E+00
 -0.286481677793E+00
 -0.286518293172E+00
 -0.286518293190E+00
 -0.286775313381E+00
 -0.286775313381E+00
 -0.286994763398E+00
 -0.286995175113E+00
 -0.286837738646E+00
 -0.286837771589E+00
 -0.286472442000E+00
 -0.286471935178E+00
 -0.286203675655E+00
 -0.286204243695E+00
 -0.286033632351E+00
 -0.286033655713E+00