# vtk DataFile Version 3.0
TriPan results file. Generated by TriPan, USU AeroLab (c) 2021.
ASCII
DATASET POLYDATA
POINTS                1187 float
  0.743449340178E-05  0.000000000000E+00  0.912353172333E-21
  0.549553172822E-01  0.000000000000E+00 -0.132451561689E+00
  0.549553172822E-01  0.000000000000E+00  0.132451561689E+00
  0.227193546912E+00  0.000000000000E+00 -0.303487510220E+00
  0.227193546912E+00  0.000000000000E+00  0.303487510220E+00
  0.499542388506E+00  0.000000000000E+00 -0.448201985494E+00
  0.499542388506E+00  0.000000000000E+00  0.448201985494E+00
  0.579903457038E+00  0.579892184862E+00 -0.768505279905E-22
  0.634852492587E+00  0.579892790540E+00 -0.132452594726E+00
  0.634852492587E+00  0.579892790540E+00  0.132452594726E+00
  0.807091379704E+00  0.579893505035E+00 -0.303488116953E+00
  0.807091379704E+00  0.579893505035E+00  0.303488116953E+00
  0.901212614079E+00  0.000000000000E+00 -0.591211007161E+00
  0.901212614079E+00  0.000000000000E+00  0.591211007161E+00
  0.107944032599E+01  0.579894393186E+00 -0.448202100712E+00
  0.107944032599E+01  0.579894393186E+00  0.448202100712E+00
  0.132131825883E+01  0.132130421203E+01 -0.124497195403E-20
  0.137626709011E+01  0.132130502198E+01 -0.132451782277E+00
  0.137626709011E+01  0.132130502198E+01  0.132451782277E+00
  0.146172471096E+01  0.000000000000E+00 -0.735952128540E+00
  0.146172471096E+01  0.000000000000E+00  0.735952128540E+00
  0.148111055722E+01  0.579894975515E+00 -0.591210898333E+00
  0.148111055722E+01  0.579894975515E+00  0.591210898333E+00
  0.154850579301E+01  0.132130598029E+01 -0.303486822333E+00
  0.154850579301E+01  0.132130598029E+01  0.303486822333E+00
  0.182085448975E+01  0.132130711799E+01 -0.448200529152E+00
  0.182085448975E+01  0.132130711799E+01  0.448200529152E+00
  0.204162264564E+01  0.579895429833E+00 -0.735951928953E+00
  0.204162264564E+01  0.579895429833E+00  0.735951928953E+00
  0.221902168466E+01  0.000000000000E+00 -0.875936761433E+00
  0.221902168466E+01  0.000000000000E+00  0.875936761433E+00
  0.222252466697E+01  0.132130787354E+01 -0.591209210036E+00
  0.222252466697E+01  0.132130787354E+01  0.591209210036E+00
  0.226197446340E+01  0.226195703990E+01 -0.142546139048E-20
  0.231692293447E+01  0.226195809085E+01 -0.132450788321E+00
  0.231692293447E+01  0.226195809085E+01  0.132450788321E+00
  0.248916145923E+01  0.226195934651E+01 -0.303485237170E+00
  0.248916145923E+01  0.226195934651E+01  0.303485237170E+00
  0.276150985104E+01  0.226196078914E+01 -0.448198603466E+00
  0.276150985104E+01  0.226196078914E+01  0.448198603466E+00
  0.278303638571E+01  0.132130845911E+01 -0.735950185967E+00
  0.278303638571E+01  0.132130845911E+01  0.735950185967E+00
  0.279891972014E+01  0.579895871200E+00 -0.875936518337E+00
  0.279891972014E+01  0.579895871200E+00  0.875936518337E+00
  0.316317957850E+01  0.226196175604E+01 -0.591207138404E+00
  0.316317957850E+01  0.226196175604E+01  0.591207138404E+00
  0.320749607550E+01  0.000000000000E+00 -0.100189662538E+01
  0.320749607550E+01  0.000000000000E+00  0.100189662538E+01
  0.344384025523E+01  0.344381881765E+01 -0.102308792365E-20
  0.349878845071E+01  0.344382014419E+01 -0.132449599265E+00
  0.349878845071E+01  0.344382014419E+01  0.132449599265E+00
  0.354033335064E+01  0.132130901006E+01 -0.875934750319E+00
  0.354033335064E+01  0.132130901006E+01  0.875934750319E+00
  0.367102662056E+01  0.344382175476E+01 -0.303483339743E+00
  0.367102662056E+01  0.344382175476E+01  0.303483339743E+00
  0.372369137535E+01  0.226196250191E+01 -0.735948043747E+00
  0.372369137535E+01  0.226196250191E+01  0.735948043747E+00
  0.378739409695E+01  0.579896340272E+00 -0.100189635002E+01
  0.378739409695E+01  0.579896340272E+00  0.100189635002E+01
  0.394337464797E+01  0.344382356179E+01 -0.448196297100E+00
  0.394337464797E+01  0.344382356179E+01  0.448196297100E+00
  0.434504412313E+01  0.344382478099E+01 -0.591204654501E+00
  0.434504412313E+01  0.344382478099E+01  0.591204654501E+00
  0.444704603476E+01  0.000000000000E+00 -0.110027087102E+01
  0.444704603476E+01  0.000000000000E+00  0.110027087102E+01
  0.448098820615E+01  0.226196318698E+01 -0.875932573897E+00
  0.448098820615E+01  0.226196318698E+01  0.875932573897E+00
  0.452880787360E+01  0.132130957139E+01 -0.100189457467E+01
  0.452880787360E+01  0.132130957139E+01  0.100189457467E+01
  0.490555572857E+01  0.344382571827E+01 -0.735945471663E+00
  0.490555572857E+01  0.344382571827E+01  0.735945471663E+00
  0.491071955429E+01  0.491069348587E+01  0.888636208682E-21
  0.496566768604E+01  0.491069511456E+01 -0.132448216661E+00
  0.496566768604E+01  0.491069511456E+01  0.132448216661E+00
  0.502694407015E+01  0.579896957591E+00 -0.110027053667E+01
  0.502694407015E+01  0.579896957591E+00  0.110027053667E+01
  0.513790544387E+01  0.491069713715E+01 -0.303481132582E+00
  0.513790544387E+01  0.491069713715E+01  0.303481132582E+00
  0.541025304790E+01  0.491069936757E+01 -0.448193613114E+00
  0.541025304790E+01  0.491069936757E+01  0.448193613114E+00
  0.546946237741E+01  0.226196386161E+01 -0.100189238638E+01
  0.546946237741E+01  0.226196386161E+01  0.100189238638E+01
  0.566285239892E+01  0.344382656379E+01 -0.875929956880E+00
  0.566285239892E+01  0.344382656379E+01  0.875929956880E+00
  0.576835728124E+01  0.132131027743E+01 -0.110026876244E+01
  0.576835728124E+01  0.132131027743E+01  0.110026876244E+01
  0.581192246857E+01  0.491070087967E+01 -0.591201761536E+00
  0.581192246857E+01  0.491070087967E+01  0.591201761536E+00
  0.593039734541E+01  0.000000000000E+00 -0.114100460935E+01
  0.593039734541E+01  0.000000000000E+00  0.114100460935E+01
  0.637243385182E+01  0.491070203914E+01 -0.735942472732E+00
  0.637243385182E+01  0.491070203914E+01  0.735942472732E+00
  0.651029538629E+01  0.579897825737E+00 -0.114100417060E+01
  0.651029538629E+01  0.579897825737E+00  0.114100417060E+01
  0.665132643433E+01  0.344382737427E+01 -0.100188975152E+01
  0.665132643433E+01  0.344382737427E+01  0.100188975152E+01
  0.670396028741E+01  0.670392907873E+01 -0.638316120240E-21
  0.670901215264E+01  0.226196467689E+01 -0.110026657361E+01
  0.670901215264E+01  0.226196467689E+01  0.110026657361E+01
  0.675890810642E+01  0.670393102016E+01 -0.132446666410E+00
  0.675890810642E+01  0.670393102016E+01  0.132446666410E+00
  0.693114540278E+01  0.670393350423E+01 -0.303478657104E+00
  0.693114540278E+01  0.670393350423E+01  0.303478657104E+00
  0.712972985884E+01  0.491070307115E+01 -0.875926901714E+00
  0.712972985884E+01  0.491070307115E+01  0.875926901714E+00
  0.720349253232E+01  0.670393620913E+01 -0.448190601958E+00
  0.720349253232E+01  0.670393620913E+01  0.448190601958E+00
  0.725170897912E+01  0.132131124069E+01 -0.114100240331E+01
  0.725170897912E+01  0.132131124069E+01  0.114100240331E+01
  0.760516114815E+01  0.670393804923E+01 -0.591198514023E+00
  0.760516114815E+01  0.670393804923E+01  0.591198514023E+00
  0.760912276369E+01  0.000000000000E+00 -0.109399874431E+01
  0.760912276369E+01  0.000000000000E+00  0.109399874431E+01
  0.789087607816E+01  0.344382832095E+01 -0.110026393530E+01
  0.789087607816E+01  0.344382832095E+01  0.110026393530E+01
  0.811820373607E+01  0.491070403981E+01 -0.100188667164E+01
  0.811820373607E+01  0.491070403981E+01  0.100188667164E+01
  0.816567275940E+01  0.670393945754E+01 -0.735939103512E+00
  0.816567275940E+01  0.670393945754E+01  0.735939103512E+00
  0.818902024926E+01  0.579898682219E+00 -0.109399817284E+01
  0.818902024926E+01  0.579898682219E+00  0.109399817284E+01
  0.819236277949E+01  0.226196575750E+01 -0.114100022193E+01
  0.819236277949E+01  0.226196575750E+01  0.114100022193E+01
  0.885599632999E+01  0.885595969417E+01  0.749318159195E-21
  0.891094385055E+01  0.885596193405E+01 -0.132445007859E+00
  0.891094385055E+01  0.885596193405E+01  0.132445007859E+00
  0.892296808063E+01  0.670394069851E+01 -0.875923465886E+00
  0.892296808063E+01  0.670394069851E+01  0.875923465886E+00
  0.893043423920E+01  0.132131217689E+01 -0.109399641714E+01
  0.893043423920E+01  0.132131217689E+01  0.109399641714E+01
  0.908318017667E+01  0.885596491152E+01 -0.303476008204E+00
  0.908318017667E+01  0.885596491152E+01  0.303476008204E+00
  0.935552727562E+01  0.885596812385E+01 -0.448187379183E+00
  0.935552727562E+01  0.885596812385E+01  0.448187379183E+00
  0.935775322647E+01  0.491070513992E+01 -0.110026084808E+01
  0.935775322647E+01  0.491070513992E+01  0.110026084808E+01
  0.937422656357E+01  0.344382954300E+01 -0.114099759074E+01
  0.937422656357E+01  0.344382954300E+01  0.114099759074E+01
  0.939523589678E+01  0.000000000000E+00 -0.980747035457E+00
  0.939523589678E+01  0.000000000000E+00  0.980747035457E+00
  0.975719554084E+01  0.885597031456E+01 -0.591195036870E+00
  0.975719554084E+01  0.885597031456E+01  0.591195036870E+00
  0.987108794116E+01  0.226196679212E+01 -0.109399424949E+01
  0.987108794116E+01  0.226196679212E+01  0.109399424949E+01
  0.991144273400E+01  0.670394184470E+01 -0.100188320433E+01
  0.991144273400E+01  0.670394184470E+01  0.100188320433E+01
  0.997513358889E+01  0.579899081610E+00 -0.980744519637E+00
  0.997513358889E+01  0.579899081610E+00  0.980744519637E+00
  0.103177064092E+02  0.885597198884E+01 -0.735935493923E+00
  0.103177064092E+02  0.885597198884E+01  0.735935493923E+00
  0.107165466164E+02  0.132131258504E+01 -0.980743332211E+00
  0.107165466164E+02  0.132131258504E+01  0.980743332211E+00
  0.108411045000E+02  0.491070652747E+01 -0.114099450942E+01
  0.108411045000E+02  0.491070652747E+01  0.114099450942E+01
  0.110529516065E+02  0.344383069638E+01 -0.109399163384E+01
  0.110529516065E+02  0.344383069638E+01  0.109399163384E+01
  0.110750024607E+02  0.885597345324E+01 -0.875919782166E+00
  0.110750024607E+02  0.885597345324E+01  0.875919782166E+00
  0.111509910982E+02  0.670394311733E+01 -0.110025736908E+01
  0.111509910982E+02  0.670394311733E+01  0.110025736908E+01
  0.111782671362E+02  0.000000000000E+00 -0.826612480667E+00
[...]
POINT_DATA                1187
SCALARS phi float 1
LOOKUP_TABLE default
 -0.730762636868E-05
 -0.296528803170E-01
 -0.783821676438E-01
 -0.167489630960E+00
 -0.279143505758E+00
 -0.408570511482E+00
 -0.573465232640E+00
 -0.570007607017E+00
 -0.599654122767E+00
 -0.648383790151E+00
 -0.737491598096E+00
 -0.849145696113E+00
 -0.777079672213E+00
 -0.994587798742E+00
 -0.978572671943E+00
 -0.114346743549E+01
 -0.129877042408E+01
 -0.132841688850E+01
 -0.137714625699E+01
 -0.130140150109E+01
 -0.157216027716E+01
 -0.134708187945E+01
 -0.156458996594E+01
 -0.146625427145E+01
 -0.157790789317E+01
 -0.170733515095E+01
 -0.187222933631E+01
 -0.187140371670E+01
 -0.214216241934E+01
 -0.202002510407E+01
 -0.234228460470E+01
 -0.207584432684E+01
 -0.229335179220E+01
 -0.222337465895E+01
 -0.225302095215E+01
 -0.230174995495E+01
 -0.239085826875E+01
 -0.250251130728E+01
 -0.263193891117E+01
 -0.279683238807E+01
 -0.260016581079E+01
 -0.287092387217E+01
 -0.259002742676E+01
 -0.291228683796E+01
 -0.300044767182E+01
 -0.321795437502E+01
 -0.296846103745E+01
 -0.333706151228E+01
 -0.338507232369E+01
 -0.341471856473E+01
 -0.346344713007E+01
 -0.331878941774E+01
 -0.364104817848E+01
 -0.355255566279E+01
 -0.366420800325E+01
 -0.352476924553E+01
 -0.379552651879E+01
 -0.353846335229E+01
 -0.390706372581E+01
 -0.379363602224E+01
 -0.395852865062E+01
 -0.416214456755E+01
 -0.437965035692E+01
 -0.416876243410E+01
 -0.457355505963E+01
 -0.424339272693E+01
 -0.456565068696E+01
 -0.426722548828E+01
 -0.463582520865E+01
 -0.468646596935E+01
 -0.495722229633E+01
 -0.482691983967E+01
 -0.485656627239E+01
 -0.490529432908E+01
 -0.473876477349E+01
 -0.514355727601E+01
 -0.499440311715E+01
 -0.510605464559E+01
 -0.523548314815E+01
 -0.540037478909E+01
 -0.519182845396E+01
 -0.556042736925E+01
 -0.540508930130E+01
 -0.572734629852E+01
 -0.546752635337E+01
 -0.587231820314E+01
 -0.560399167836E+01
 -0.582149640340E+01
 -0.561930784636E+01
 -0.603908652425E+01
 -0.612831288123E+01
 -0.639906810490E+01
 -0.618931021036E+01
 -0.660908872683E+01
 -0.635352489808E+01
 -0.672212284400E+01
 -0.658955954579E+01
 -0.639212968045E+01
 -0.679692072495E+01
 -0.661920595629E+01
 -0.666793344263E+01
 -0.675704251763E+01
 -0.686869313534E+01
 -0.684693557154E+01
 -0.716919144475E+01
 -0.699812218079E+01
 -0.716301271391E+01
 -0.691807216418E+01
 -0.733785003046E+01
 -0.736662996336E+01
 -0.758413349363E+01
 -0.727803319387E+01
 -0.768051828703E+01
 -0.755382599605E+01
 -0.795861606991E+01
 -0.779537101737E+01
 -0.816396783019E+01
 -0.789095141274E+01
 -0.816170539686E+01
 -0.784803503644E+01
 -0.825051991936E+01
 -0.784267443715E+01
 -0.826245150089E+01
 -0.870487184468E+01
 -0.873451826691E+01
 -0.878324514307E+01
 -0.860957344120E+01
 -0.893182805037E+01
 -0.857679737847E+01
 -0.897928161546E+01
 -0.887235405676E+01
 -0.898400369994E+01
 -0.911343379541E+01
 -0.927832314287E+01
 -0.899567196589E+01
 -0.940046090395E+01
 -0.900437061241E+01
 -0.942414670814E+01
 -0.905449973477E+01
 -0.941531921833E+01
 -0.948194128015E+01
 -0.969944353116E+01
 -0.950139955217E+01
 -0.990388299168E+01
 -0.955800965573E+01
 -0.992660519291E+01
 -0.962450213802E+01
 -0.998532069600E+01
 -0.100062620237E+02
 -0.102770146799E+02
 -0.103532634295E+02
 -0.107140815506E+02
 -0.104462173558E+02
 -0.108659923179E+02
 -0.106630956078E+02
 -0.110655780850E+02
 -0.107248847836E+02
 -0.110471380375E+02
 -0.107583094994E+02
 -0.111630971576E+02
 -0.108354574282E+02
 -0.111395703927E+02
 -0.111877926297E+02
 -0.112174391114E+02
 -0.112661653737E+02
 -0.113552745969E+02
 -0.114669232596E+02
 -0.112778664116E+02
 -0.116386839576E+02
 -0.114054585907E+02
 -0.117095715293E+02
 -0.115963539402E+02
 -0.117612420946E+02
 -0.116733198808E+02
 -0.120419140491E+02
 -0.119648611257E+02
 -0.121823620892E+02
 -0.121342207637E+02
 -0.124383334025E+02
 -0.121049412741E+02
 -0.125074226238E+02
 -0.122088547053E+02
 -0.126286283890E+02
 -0.124395623282E+02
 -0.128003791251E+02
 -0.124891816313E+02
 -0.127599329503E+02
 -0.125085603511E+02
 -0.127510238967E+02
 -0.128736204829E+02
 -0.132784067665E+02
 -0.130785624610E+02
 -0.133210260233E+02
 -0.130588227512E+02
 -0.133629349302E+02
 -0.132078041845E+02
 -0.135300560730E+02
 -0.138073236948E+02
 -0.140497869309E+02
 -0.140275270415E+02
 -0.138814078523E+02
 -0.142422237022E+02
 -0.138675794034E+02
 -0.142700594810E+02
 -0.139877399702E+02
 -0.141727399835E+02
 -0.140571736398E+02
 -0.141058993342E+02
 -0.141950088439E+02
 -0.143066565995E+02
 -0.141562391009E+02
 -0.145248318894E+02
 -0.142205186116E+02
 -0.145246301184E+02
 -0.144360878216E+02
 -0.146009748722E+02
 -0.143241654917E+02
 -0.147439378014E+02
 -0.145577420887E+02
 -0.147427421182E+02
 -0.147319266167E+02
 -0.149743893531E+02
 -0.148045947307E+02
 -0.150220945026E+02
 -0.152274254511E+02
 -0.153634129277E+02
 -0.152865042673E+02
 -0.154715039209E+02
 -0.153289150164E+02
 -0.155996650976E+02
 -0.153565395233E+02
 -0.157613244203E+02
 -0.156623640789E+02
 -0.159664746787E+02
 -0.156440458418E+02
 -0.160048605547E+02
 -0.157974266449E+02
 -0.159334140922E+02
 -0.158936215330E+02
 -0.161360835492E+02
 -0.159828890834E+02
 -0.163853677932E+02
 -0.160475383159E+02
 -0.163697889401E+02
 -0.162208469147E+02
 -0.163174106871E+02
 -0.162111062614E+02
 -0.163961053473E+02
 -0.165261897754E+02
 -0.166621767728E+02
 -0.167908481272E+02
 -0.168874117881E+02
 -0.168070833960E+02
 -0.172268543191E+02
 -0.169887389882E+02
 -0.170549498328E+02
 -0.169959721282E+02
 -0.173645636382E+02
 -0.171805194646E+02
 -0.172101652996E+02
 -0.172588905297E+02
 -0.173480002738E+02
 -0.174596472876E+02
 -0.173354688618E+02
 -0.175779299257E+02
 -0.173728021233E+02
 -0.175578004175E+02
 -0.174507908481E+02
 -0.175867771940E+02
 -0.175196112754E+02
 -0.176161744025E+02
 -0.174250029451E+02
 -0.177291124263E+02
 -0.175659502666E+02
 -0.176094507263E+02
 -0.175587402205E+02
 -0.176249508617E+02
 -0.175890789527E+02
 -0.177539651004E+02
 -0.177593553888E+02
 -0.181201688209E+02
 -0.179907939657E+02
 -0.180176184303E+02
 -0.179575856356E+02
 -0.181750844328E+02
 -0.181359515128E+02
 -0.181794517025E+02
 -0.182986666854E+02
 -0.183134277386E+02
 -0.182875015092E+02
 -0.183537115481E+02
 -0.181962733218E+02
 -0.186010569335E+02
 -0.184442123642E+02
 -0.185407747640E+02
 -0.185192713891E+02
 -0.185253995072E+02
 -0.185607952191E+02
 -0.185876193814E+02
 -0.184819057416E+02
 -0.187526548102E+02
 -0.184658077547E+02
 -0.188682850836E+02
 -0.186760612886E+02
 -0.186124867232E+02
 -0.187484722034E+02
 -0.188686698157E+02
 -0.188834305565E+02
 -0.188647146858E+02
 -0.189082142322E+02
 -0.188146475806E+02
 -0.189996448628E+02
 -0.190892745197E+02
 -0.190954023252E+02
 -0.190981058321E+02
 -0.193405657427E+02
 -0.192121044844E+02
 -0.192783137453E+02
 -0.192460638079E+02
 -0.192895583966E+02
 -0.193163818955E+02
 -0.192005279479E+02
 -0.195227775374E+02
 -0.195974311208E+02
 -0.196121911889E+02
 -0.196059082512E+02
 -0.197024697285E+02
 -0.195403124250E+02
 -0.198444206415E+02
 -0.197893157929E+02
 -0.198328145337E+02
 -0.198180358258E+02
 -0.198241629544E+02
 -0.196468160734E+02
 -0.200665857105E+02
 -0.199748235926E+02
 -0.200543321889E+02
 -0.201903166022E+02
 -0.202141595072E+02
 -0.202409821870E+02
 -0.201489634987E+02
 -0.205175539621E+02
 -0.203738003801E+02
 -0.204400086838E+02
 -0.202422739406E+02
 -0.206030860309E+02
 -0.205220341078E+02
 -0.205367933506E+02
 -0.205681930355E+02
 -0.205978409641E+02
 -0.206465658885E+02
 -0.205772845486E+02
 -0.207622806342E+02
 -0.207426388138E+02
 -0.207487651141E+02
 -0.207356757869E+02
 -0.208473223122E+02
 -0.208994247282E+02
 -0.209510116934E+02
 -0.209945094589E+02
 -0.209767542691E+02
 -0.211416398223E+02
 -0.210477537253E+02
 -0.211443140968E+02
 -0.212134152843E+02
 -0.214558739066E+02
 -0.213758554102E+02
 -0.214026771056E+02
 -0.213452608032E+02
 -0.215627589586E+02
 -0.213055402742E+02
 -0.217080163222E+02
 -0.213492626816E+02
 -0.217540452409E+02
 -0.216837300123E+02
 -0.216984882663E+02
 -0.218156458604E+02
 -0.218818530353E+02
 -0.218169710359E+02
 -0.219529542152E+02
 -0.219043347190E+02
 -0.219104600285E+02
 -0.218695807911E+02
 -0.221403291927E+02
 -0.220611184301E+02
 -0.220232309032E+02
 -0.223273378073E+02
 -0.223928590523E+02
 -0.224363556766E+02
 -0.225882028947E+02
 -0.229104518026E+02
 -0.226925958690E+02
 -0.228775906373E+02
 -0.228177008963E+02
 -0.228445214444E+02
 -0.228103925778E+02
 -0.229069516894E+02
 -0.227998071577E+02
 -0.232195757415E+02
 -0.231255754995E+02
 -0.231403326031E+02
 -0.230820063625E+02
 -0.234428171636E+02
 -0.233461802069E+02
 -0.233523043645E+02
 -0.235029613747E+02
 -0.235782847178E+02
 -0.236444906172E+02
 -0.235366364811E+02
 -0.239052262550E+02
 -0.236963337320E+02
 -0.239387910268E+02
 -0.239322804828E+02
 -0.240682623197E+02
 -0.240819422909E+02
 -0.241115885829E+02
 -0.241603134004E+02
 -0.241554960381E+02
 -0.241989913785E+02
 -0.242494252275E+02
 -0.243610715821E+02
 -0.244905017661E+02
 -0.246553871115E+02
 -0.245803397586E+02
 -0.246071590184E+02
 -0.244585312292E+02
 -0.248610062278E+02
 -0.248882124880E+02
 -0.249029683012E+02
 -0.247369374494E+02
 -0.251417193150E+02
 -0.248590101230E+02
 -0.250765080540E+02
 -0.249257020285E+02
 -0.250222597803E+02
 -0.248629632481E+02
 -0.251670689167E+02
 -0.251088171961E+02
 -0.251149400621E+02
 -0.252655974127E+02
 -0.251755143076E+02
 -0.253605077294E+02
 -0.253833300696E+02
 -0.256540782380E+02
 -0.256935941724E+02
 -0.257597987015E+02
 -0.261019502627E+02
 -0.264241989322E+02
 -0.262708054954E+02
 -0.263142994596E+02
 -0.261874799516E+02
 -0.266072478412E+02
 -0.262349972515E+02
 -0.265958069501E+02
 -0.264151989205E+02
 -0.265511793945E+02
 -0.265360660469E+02
 -0.267785220970E+02
 -0.266956492173E+02
 -0.267224670979E+02
 -0.270035238225E+02
 -0.270182782548E+02
 -0.272241266563E+02
 -0.272302481408E+02
 -0.270503856926E+02
 -0.274189752252E+02
 -0.273809038857E+02
 -0.274086204687E+02
 -0.275051768459E+02
 -0.275956906220E+02
 -0.276253371380E+02
 -0.276740620624E+02
 -0.277631719607E+02
 -0.278748184860E+02
 -0.278462039381E+02
 -0.282486782448E+02
 -0.280042504430E+02
 -0.281691359961E+02
 -0.280152466127E+02
 -0.282002387776E+02
 -0.280159540622E+02
 -0.283200587103E+02
 -0.281765126159E+02
 -0.282427157632E+02
 -0.282506847548E+02
 -0.286554663778E+02
 -0.283727569771E+02
 -0.285902551324E+02
 -0.287537239411E+02
 -0.287972165195E+02
 -0.288970769652E+02
 -0.291678253665E+02
 -0.291785676645E+02
 -0.292053841570E+02
 -0.292549312240E+02
 -0.293909104303E+02
 -0.294864403957E+02
 -0.295011934388E+02
 -0.297070451049E+02
 -0.297131651996E+02
 -0.296156990688E+02
 -0.299379479763E+02
 -0.296226699333E+02
 -0.299834788499E+02
 -0.296890568357E+02
 -0.299315118600E+02
 -0.298638193772E+02
 -0.297012290972E+02
 -0.301209967439E+02
 -0.302483527738E+02
 -0.303449078757E+02
 -0.305641345300E+02
 -0.309327243035E+02
 -0.309833615478E+02
 -0.310130101179E+02
 -0.310617353479E+02
 -0.310162449237E+02
 -0.310824467908E+02
 -0.311508450920E+02
 -0.312624921057E+02
 -0.311682373928E+02
 -0.313532285246E+02
 -0.313919218962E+02
 -0.315568080437E+02
 -0.314036248041E+02
 -0.317077287765E+02
 -0.313599530538E+02
 -0.317624271186E+02
 -0.315934562508E+02
 -0.316369475462E+02
 -0.317604304540E+02
 -0.319779292509E+02
 -0.317644354983E+02
 -0.321692173635E+02
 -0.320182999753E+02
 -0.320451151834E+02
 -0.323261745819E+02
 -0.323409263399E+02
 -0.322847505602E+02
 -0.325554996283E+02
 -0.324079220024E+02
 -0.325439001688E+02
 -0.325467792917E+02
 -0.325528981007E+02
 -0.327035490159E+02
 -0.330033727666E+02
 -0.333256223554E+02
 -0.330767294355E+02
 -0.333191837813E+02
 -0.331364190644E+02
 -0.334972276249E+02
 -0.332149798752E+02
 -0.336347477644E+02
 -0.334013416785E+02
 -0.334978957357E+02
 -0.339518083174E+02
 -0.343203987800E+02
 -0.341363499536E+02
 -0.341659986376E+02
 -0.342147243319E+02
 -0.341692357051E+02
 -0.342354365244E+02
 -0.343038319667E+02
 -0.344154797223E+02
 -0.345449109447E+02
 -0.347097979951E+02
 -0.345559081118E+02
 -0.347408985611E+02
 -0.347464470337E+02
 -0.347899372795E+02
 -0.349134197287E+02
 -0.351309195001E+02
 -0.349173757625E+02
 -0.352214794980E+02
 -0.348737001119E+02
 -0.352761744184E+02
 -0.351712907590E+02
 -0.351981049165E+02
 -0.351521056254E+02
 -0.355568881838E+02
 -0.354791653662E+02
 -0.354939160731E+02
 -0.354377400146E+02
 -0.357084900951E+02
 -0.356997663267E+02
 -0.357058840844E+02
 -0.358565376938E+02
 -0.357955964697E+02
 -0.359315739502E+02
 -0.361563623770E+02
 -0.364786130002E+02
 -0.365904766384E+02
 -0.368329307462E+02
 -0.366026501014E+02
 -0.370224186844E+02
 -0.366501661774E+02
 -0.370109748596E+02
 -0.367890161463E+02
 -0.368855695149E+02
 -0.369760775781E+02
 -0.370057263051E+02
 -0.370544525672E+02
 -0.371435636652E+02
 -0.372552123278E+02
 -0.371047943145E+02
 -0.374733858232E+02
 -0.373846430088E+02
 -0.375495311629E+02
 -0.375569064246E+02
 -0.376231065537E+02
 -0.377531483198E+02
 -0.379706492826E+02
 -0.381341215036E+02
 -0.381776110582E+02
 -0.380696590623E+02
 -0.382546492724E+02
 -0.382774688257E+02
 -0.385482201437E+02
 -0.382613741727E+02
 -0.386638491708E+02
 -0.383050955079E+02
 -0.387098791182E+02
 -0.385589652294E+02
 -0.385857786952E+02
 -0.384311228529E+02
 -0.387352268243E+02
 -0.388668360875E+02
 -0.388815861023E+02
 -0.390874407980E+02
 -0.390935578634E+02
 -0.389960913790E+02
 -0.393183432661E+02
 -0.392442108830E+02
 -0.393093436700E+02
 -0.394453209102E+02
 -0.394589930528E+02
 -0.394886417598E+02
 -0.395373686358E+02
 -0.396264794240E+02
 -0.397381290671E+02
 -0.398675591632E+02
 -0.400324485102E+02
 -0.397556401341E+02
 -0.401754097700E+02
 -0.399445272330E+02
 -0.403131200197E+02
 -0.400378403249E+02
 -0.403986495896E+02
 -0.401042274843E+02
 -0.403466818287E+02
 -0.402360647735E+02
 -0.404535670237E+02
 -0.403027633467E+02
 -0.403993164743E+02
 -0.407603855174E+02
 -0.410311381722E+02
 -0.410706573750E+02
 -0.411368572627E+02
 -0.411448285926E+02
 -0.415496134877E+02
 -0.415743014784E+02
 -0.414143643346E+02
 -0.418168403818E+02
 -0.416039501188E+02
 -0.416526776049E+02
 -0.414790082775E+02
 -0.418012615296E+02
 -0.416478687049E+02
 -0.416913580177E+02
 -0.415834061607E+02
 -0.417683966086E+02
 -0.417417843360E+02
 -0.418534349536E+02
 -0.418187970060E+02
 -0.421229016521E+02
 -0.419828644685E+02
 -0.421477550010E+02
 -0.420727124307E+02
 -0.420995256547E+02
 -0.423805870386E+02
 -0.423953368115E+02
 -0.423513741263E+02
 -0.425688776555E+02
 -0.426011917491E+02
 -0.426073085726E+02
 -0.424274443120E+02
 -0.427960384782E+02
 -0.427579577994E+02
 -0.425953734023E+02
 -0.430151443238E+02
 -0.428230907688E+02
 -0.429590682482E+02
 -0.428756951073E+02
 -0.431464490898E+02
 -0.433369376554E+02
 -0.431908305946E+02
 -0.435516408220E+02
 -0.433665824513E+02
 -0.434153105078E+02
 -0.435044207014E+02
 -0.436160722297E+02
 -0.434919016545E+02
 -0.437343566756E+02
 -0.435943180735E+02
 -0.439165726804E+02
 -0.437455012019E+02
 -0.439103928421E+02
 -0.436277458513E+02
 -0.440325321327E+02
 -0.438165141950E+02
 -0.439130675628E+02
 -0.441140073891E+02
 -0.443315121129E+02
 -0.442540977606E+02
 -0.446565750885E+02
 -0.445844044732E+02
 -0.446506046018E+02
 -0.445427542880E+02
 -0.449113498226E+02
 -0.446383285924E+02
 -0.449090838141E+02
 -0.447787807692E+02
 -0.448084254586E+02
 -0.448571540236E+02
 -0.449462639617E+02
 -0.450579163020E+02
 -0.449710803367E+02
 -0.451560714654E+02
 -0.449717873091E+02
 -0.452758929743E+02
 -0.451616158027E+02
 -0.452051053570E+02
 -0.451873447909E+02
 -0.453522374183E+02
 -0.450782908596E+02
 -0.454980631674E+02
 -0.453569517516E+02
 -0.456792076223E+02
 -0.455864595285E+02
 -0.456132729941E+02
 -0.455558549770E+02
 -0.457733607649E+02
 -0.458943341361E+02
 -0.459090841508E+02
 -0.459404727723E+02
 -0.457430522565E+02
 -0.461478399120E+02
 -0.459701211050E+02
 -0.460188501074E+02
 -0.461149388464E+02
 -0.461210559119E+02
 -0.461079598264E+02
 -0.462196128647E+02
 -0.460305603891E+02
 -0.463913718369E+02
 -0.460801763793E+02
 -0.463509327041E+02
 -0.462717056480E+02
 -0.462107649462E+02
 -0.463467431103E+02
 -0.463490371891E+02
 -0.465139306650E+02
 -0.463053881348E+02
 -0.466739849447E+02
 -0.466448882334E+02
 -0.468873442782E+02
 -0.467175475908E+02
 -0.469350542922E+02
 -0.468650740747E+02
 -0.468947223096E+02
 -0.469434516775E+02
 -0.467370116385E+02
 -0.471394903472E+02
 -0.467987959618E+02
 -0.471210529562E+02
 -0.470325574647E+02
 -0.471442110861E+02
 -0.472041883716E+02
 -0.473007424273E+02
 -0.472736388141E+02
 -0.474385329983E+02
 -0.472418691648E+02
 -0.475126264356E+02
 -0.471935974619E+02
 -0.476133711434E+02
 -0.475938340089E+02
 -0.476234821583E+02
 -0.476722118250E+02
 -0.475056900204E+02
 -0.479104789555E+02
 -0.476421493966E+02
 -0.478596568601E+02
 -0.477613212134E+02
 -0.478729753111E+02
 -0.477472324958E+02
 -0.481158304386E+02
 -0.478115171604E+02
 -0.481156240593E+02
 -0.479720786486E+02
 -0.480382794670E+02
 -0.480023990079E+02
 -0.481672937701E+02
 -0.479604926463E+02
 -0.482827506033E+02
 -0.481638341251E+02
 -0.481240706738E+02
 -0.483090628336E+02
 -0.481934828861E+02
 -0.482422130943E+02
 -0.481664711153E+02
 -0.484372291741E+02
 -0.482926778345E+02
 -0.483271355634E+02
 -0.483480398985E+02
 -0.483313187362E+02
 -0.484429735792E+02
 -0.483709097391E+02
 -0.485884178235E+02
 -0.485492899770E+02
 -0.485927802223E+02
 -0.485586102499E+02
 -0.486375625254E+02
 -0.485724008296E+02
 -0.487372963415E+02
 -0.486854594487E+02
 -0.485134781363E+02
 -0.488742909257E+02
 -0.489080726554E+02
 -0.490246717864E+02
 -0.489741337022E+02
 -0.490009478595E+02
 -0.488952315764E+02
 -0.491659902765E+02
 -0.488850947221E+02
 -0.492073534798E+02
 -0.489409119717E+02
 -0.491584206928E+02
 -0.488523221594E+02
 -0.492548022357E+02
 -0.489089293104E+02
 -0.492775282225E+02
 -0.490954107803E+02
 -0.489475345307E+02
 -0.493523246015E+02
 -0.489562354096E+02
 -0.493760103694E+02
 -0.492820083096E+02
 -0.492967590163E+02
 -0.493637552849E+02
 -0.494997344874E+02
 -0.493836872700E+02
 -0.495374895101E+02
 -0.495026130197E+02
 -0.495087307773E+02
 -0.494652341205E+02
 -0.497359933028E+02
 -0.494846218645E+02
 -0.497270791512E+02
 -0.496307975617E+02
 -0.496593815046E+02
 -0.496138552863E+02
 -0.499361146947E+02
 -0.498335314953E+02
 -0.502021312126E+02
 -0.500164097694E+02
 -0.502078657104E+02
 -0.501092277241E+02
 -0.505140187657E+02
 -0.503240162507E+02
 -0.501838580648E+02
 -0.505061177900E+02
 -0.503571749596E+02
 -0.504537300590E+02
 -0.502944349818E+02
 -0.505985431903E+02
 -0.503980800837E+02
 -0.508178561770E+02
 -0.505622921487E+02
 -0.509308925195E+02
 -0.506287887729E+02
 -0.509896029001E+02
 -0.506149602646E+02
 -0.510174416129E+02
 -0.508398706187E+02
 -0.510677428328E+02
 -0.509638005651E+02
 -0.511487939791E+02
 -0.511250689841E+02
 -0.511912708498E+02
 -0.512059897397E+02
 -0.510338300163E+02
 -0.514386218634E+02
 -0.511322950907E+02
 -0.515008956242E+02
 -0.517022803110E+02
 -0.517457716056E+02
 -0.515597734175E+02
 -0.519795504790E+02
 -0.517625907571E+02
 -0.521673832573E+02
 -0.518826436551E+02
 -0.521432836766E+02
 -0.519675397167E+02
 -0.522099983267E+02
 -0.521271240354E+02
 -0.521539392431E+02
 -0.520568050785E+02
 -0.524592875543E+02
 -0.522034851777E+02
 -0.523394656457E+02
 -0.523014053819E+02
 -0.524349986421E+02
 -0.524497503998E+02
 -0.523325937972E+02
 -0.527373863410E+02
 -0.524097457035E+02
 -0.527138551731E+02
 -0.523914269883E+02
 -0.527522423511E+02
 -0.526555996022E+02
 -0.526617184112E+02
 -0.524843758264E+02
 -0.529041536906E+02
 -0.528123742338E+02
 -0.531969086002E+02
 -0.532934649735E+02
 -0.531566203591E+02
 -0.534428519141E+02
 -0.532184985319E+02
 -0.536209819701E+02
 -0.532131366621E+02
 -0.536329151768E+02
 -0.534467184264E+02
 -0.536317131828E+02
 -0.536165024422E+02
 -0.537831397335E+02
 -0.542029182397E+02
 -0.539647988723E+02
 -0.540310020174E+02
 -0.538332719084E+02
 -0.541940883382E+02
 -0.540828504663E+02
 -0.543253103589E+02
 -0.541723840102E+02
 -0.544764945943E+02
 -0.541431010401E+02
 -0.545455852759E+02
 -0.545420101973E+02