# vtk DataFile Version 3.0
TriPan results file. Generated by TriPan, USU AeroLab (c) 2021.
ASCII
DATASET POLYDATA
POINTS                  50 float
  0.190003013611E+02  0.000000000000E+00  0.000000000000E+00
  0.989364690009E+02  0.000000000000E+00  0.149596471557E+02
  0.195801982880E+02  0.579897820950E+00  0.000000000000E+00
  0.989560916107E+02  0.579897820950E+00  0.148547946673E+02
  0.203216114044E+02  0.132131123543E+01  0.000000000000E+00
  0.989811796215E+02  0.132131123543E+01  0.147207380675E+02
  0.212622661591E+02  0.226196575165E+01  0.000000000000E+00
  0.990130095906E+02  0.226196575165E+01  0.145506561319E+02
  0.224441299438E+02  0.344382953644E+01  0.000000000000E+00
  0.990530016148E+02  0.344382953644E+01  0.143369606404E+02
  0.239110069275E+02  0.491070652008E+01  0.000000000000E+00
  0.991026379439E+02  0.491070652008E+01  0.140717312611E+02
  0.257042465210E+02  0.670394468307E+01  0.000000000000E+00
  0.991633177635E+02  0.670394468307E+01  0.137474915126E+02
  0.278562793732E+02  0.885597801208E+01  0.000000000000E+00
  0.992361384651E+02  0.885597801208E+01  0.133583775351E+02
  0.303823032379E+02  0.113820018768E+02  0.000000000000E+00
  0.993216143117E+02  0.113820018768E+02  0.129016413880E+02
  0.332713356018E+02  0.142710342407E+02  0.000000000000E+00
  0.994193736760E+02  0.142710342407E+02  0.123792688447E+02
  0.364790649414E+02  0.174787635803E+02  0.000000000000E+00
  0.995279171402E+02  0.174787635803E+02  0.117992719731E+02
  0.399255523682E+02  0.209252490997E+02  0.000000000000E+00
  0.996445397243E+02  0.209252490997E+02  0.111761047061E+02
  0.435003013611E+02  0.245000000000E+02  0.000000000000E+00
  0.997655024360E+02  0.245000000000E+02  0.105297461722E+02
  0.470750503540E+02  0.280747509003E+02  0.000000000000E+00
  0.998864651477E+02  0.280747509003E+02  0.988338763834E+01
  0.505215377808E+02  0.315212364197E+02  0.000000000000E+00
  0.100003087732E+03  0.315212364197E+02  0.926022037134E+01
  0.537292671204E+02  0.347289657593E+02  0.000000000000E+00
  0.100111631196E+03  0.347289657593E+02  0.868022349965E+01
  0.566182975769E+02  0.376179962158E+02  0.000000000000E+00
  0.100209390496E+03  0.376179962158E+02  0.815785130126E+01
  0.591443214417E+02  0.401440200806E+02  0.000000000000E+00
  0.100294866342E+03  0.401440200806E+02  0.770111515420E+01
  0.612963562012E+02  0.422960548401E+02  0.000000000000E+00
  0.100367687108E+03  0.422960548401E+02  0.731200083184E+01
  0.630895957947E+02  0.440892944336E+02  0.000000000000E+00
  0.100428366928E+03  0.440892944336E+02  0.698776108332E+01
  0.645564727783E+02  0.455561714172E+02  0.000000000000E+00
  0.100478003257E+03  0.455561714172E+02  0.672253170404E+01
  0.657383346558E+02  0.467380332947E+02  0.000000000000E+00
  0.100517995217E+03  0.467380332947E+02  0.650883655736E+01
  0.666789932251E+02  0.476786880493E+02  0.000000000000E+00
  0.100549825315E+03  0.476786880493E+02  0.633875393201E+01
  0.674204025269E+02  0.484201011658E+02  0.000000000000E+00
  0.100574913197E+03  0.484201011658E+02  0.620469802200E+01
  0.680002975464E+02  0.490000000000E+02  0.000000000000E+00
  0.100594535742E+03  0.490000000000E+02  0.609984587844E+01
POLYGONS                  48                 192
3                   0                   1                   3
3                   0                   3                   2
3                   2                   3                   5
3                   2                   5                   4
3                   4                   5                   7
3                   4                   7                   6
3                   6                   7                   9
3                   6                   9                   8
3                   8                   9                  11
3                   8                  11                  10
3                  10                  11                  13
3                  10                  13                  12
3                  12                  13                  15
3                  12                  15                  14
3                  14                  15                  17
3                  14                  17                  16
3                  16                  17                  19
3                  16                  19                  18
3                  18                  19                  21
3                  18                  21                  20
3                  20                  21                  23
3                  20                  23                  22
3                  22                  23                  25
3                  22                  25                  24
3                  24                  25                  27
3                  24                  27                  26
3                  26                  27                  29
3                  26                  29                  28
3                  28                  29                  31
3                  28                  31                  30
3                  30                  31                  33
3                  30                  33                  32
3                  32                  33                  35
3                  32                  35                  34
3                  34                  35                  37
3                  34                  37                  36
3                  36                  37                  39
3                  36                  39                  38
3                  38                  39                  41
3                  38                  41                  40
3                  40                  41                  43
3                  40                  43                  42
3                  42                  43                  45
3                  42                  45                  44
3                  44                  45                  47
3                  44                  47                  46
3                  46                  47                  49
3                  46                  49                  48
POINT_DATA                  50
SCALARS mu float 1
LOOKUP_TABLE default
 -0.128434552740E-02
 -0.128434552740E-02
 -0.128584154609E-03
 -0.128584154609E-03
 -0.131542656870E-03
 -0.131542656870E-03
 -0.147551817200E-03
 -0.147551817200E-03
 -0.169689618893E-03
 -0.169689618893E-03
 -0.196455459992E-03
 -0.196455459992E-03
 -0.226606349482E-03
 -0.226606349482E-03
 -0.258287856607E-03
 -0.258287856607E-03
 -0.289077383865E-03
 -0.289077383865E-03
 -0.317007874671E-03
 -0.317007874671E-03
 -0.338022737232E-03
 -0.338022737232E-03
 -0.350251161223E-03
 -0.350251161223E-03
 -0.350479959181E-03
 -0.350479959181E-03
 -0.339518200697E-03
 -0.339518200697E-03
 -0.317115156584E-03
 -0.317115156584E-03
 -0.285159817587E-03
 -0.285159817587E-03
 -0.246716513388E-03
 -0.246716513388E-03
 -0.204046138137E-03
 -0.204046138137E-03
 -0.163551909466E-03
 -0.163551909466E-03
 -0.123882352725E-03
 -0.123882352725E-03
 -0.908042416299E-04
 -0.908042416299E-04
 -0.633174045959E-04
 -0.633174045959E-04
 -0.355015530005E-04
 -0.355015530005E-04
 -0.204046646694E-02
 -0.204046646694E-02
  0.000000000000E+00
  0.000000000000E+00
