# vtk DataFile Version 3.0
TriPan results file. Generated by TriPan, USU AeroLab (c) 2021.
ASCII
DATASET POLYDATA
POINTS                 144 float
  0.000000000000E+00  0.000000000000E+00  0.000000000000E+00
  0.113538098335E+01  0.000000000000E+00 -0.658124566078E+00
  0.113538098335E+01  0.000000000000E+00  0.658124566078E+00
  0.192375373840E+01  0.192375373840E+01  0.000000000000E+00
  0.305913543701E+01  0.192375373840E+01 -0.658124983311E+00
  0.305913543701E+01  0.192375373840E+01  0.658124983311E+00
  0.423028087616E+01  0.000000000000E+00 -0.108747220039E+01
  0.423028087616E+01  0.000000000000E+00  0.108747220039E+01
  0.547033166885E+01  0.547033166885E+01  0.000000000000E+00
  0.615403699875E+01  0.192375373840E+01 -0.108747279644E+01
  0.615403699875E+01  0.192375373840E+01  0.108747279644E+01
  0.660571479797E+01  0.547033166885E+01 -0.658125698566E+00
  0.660571479797E+01  0.547033166885E+01  0.658125698566E+00
  0.939508819580E+01  0.000000000000E+00 -0.980745851994E+00
  0.939508819580E+01  0.000000000000E+00  0.980745851994E+00
  0.970061969757E+01  0.547033166885E+01 -0.108747410774E+01
  0.970061969757E+01  0.547033166885E+01  0.108747410774E+01
  0.113188476562E+02  0.192375373840E+01 -0.980746448040E+00
  0.113188476562E+02  0.192375373840E+01  0.980746448040E+00
  0.113820018768E+02  0.113820018768E+02  0.000000000000E+00
  0.125173873901E+02  0.113820018768E+02 -0.658127009869E+00
  0.125173873901E+02  0.113820018768E+02  0.658127009869E+00
  0.145402030945E+02  0.000000000000E+00 -0.479613035917E+00
  0.145402030945E+02  0.000000000000E+00  0.479613035917E+00
  0.148654365540E+02  0.547033166885E+01 -0.980747580528E+00
  0.148654365540E+02  0.547033166885E+01  0.980747580528E+00
  0.156122989655E+02  0.113820018768E+02 -0.108747613430E+01
  0.156122989655E+02  0.113820018768E+02  0.108747613430E+01
  0.164639663696E+02  0.192375373840E+01 -0.479613333941E+00
  0.164639663696E+02  0.192375373840E+01  0.479613333941E+00
  0.176505107880E+02  0.000000000000E+00 -0.144198849797E+00
  0.176505107880E+02  0.000000000000E+00  0.144198849797E+00
  0.190000000000E+02  0.000000000000E+00  0.000000000000E+00
  0.195742740631E+02  0.192375373840E+01 -0.144198939204E+00
  0.195742740631E+02  0.192375373840E+01  0.144198939204E+00
  0.197561950684E+02  0.197561950684E+02  0.000000000000E+00
  0.200105609894E+02  0.547033166885E+01 -0.479613870382E+00
  0.200105609894E+02  0.547033166885E+01  0.479613870382E+00
  0.207771244049E+02  0.113820018768E+02 -0.980749428272E+00
  0.207771244049E+02  0.113820018768E+02  0.980749428272E+00
  0.208915824890E+02  0.197561950684E+02 -0.658128738403E+00
  0.208915824890E+02  0.197561950684E+02  0.658128738403E+00
  0.209237651825E+02  0.192375373840E+01  0.000000000000E+00
  0.231208724976E+02  0.547033166885E+01 -0.144199103117E+00
  0.231208724976E+02  0.547033166885E+01  0.144199103117E+00
  0.239865016937E+02  0.197561950684E+02 -0.108747911453E+01
  0.239865016937E+02  0.197561950684E+02  0.108747911453E+01
  0.244703655243E+02  0.547033166885E+01  0.000000000000E+00
  0.259222583771E+02  0.113820018768E+02 -0.479614794254E+00
  0.259222583771E+02  0.113820018768E+02  0.479614794254E+00
  0.290325775146E+02  0.113820018768E+02 -0.144199386239E+00
  0.290325775146E+02  0.113820018768E+02  0.144199386239E+00
  0.291513423920E+02  0.197561950684E+02 -0.980752110481E+00
  0.291513423920E+02  0.197561950684E+02  0.980752110481E+00
  0.292438049316E+02  0.292438049316E+02  0.000000000000E+00
  0.303791980743E+02  0.292438049316E+02 -0.658130764961E+00
  0.303791980743E+02  0.292438049316E+02  0.658130764961E+00
  0.303820724487E+02  0.113820018768E+02  0.000000000000E+00
  0.334741249084E+02  0.292438049316E+02 -0.108748245239E+01
  0.334741249084E+02  0.292438049316E+02  0.108748245239E+01
  0.342964897156E+02  0.197561950684E+02 -0.479616105556E+00
  0.342964897156E+02  0.197561950684E+02  0.479616105556E+00
  0.374068183899E+02  0.197561950684E+02 -0.144199773669E+00
  0.374068183899E+02  0.197561950684E+02  0.144199773669E+00
  0.376179962158E+02  0.376179962158E+02  0.000000000000E+00
  0.386389808655E+02  0.292438049316E+02 -0.980755090714E+00
  0.386389808655E+02  0.292438049316E+02  0.980755090714E+00
  0.387533912659E+02  0.376179962158E+02 -0.658132553101E+00
  0.387533912659E+02  0.376179962158E+02  0.658132553101E+00
  0.387563171387E+02  0.197561950684E+02  0.000000000000E+00
  0.418483314514E+02  0.376179962158E+02 -0.108748543262E+01
  0.418483314514E+02  0.376179962158E+02  0.108748543262E+01
  0.435296669006E+02  0.435296669006E+02  0.000000000000E+00
  0.437841453552E+02  0.292438049316E+02 -0.479617565870E+00
  0.437841453552E+02  0.292438049316E+02  0.479617565870E+00
  0.446650657654E+02  0.435296669006E+02 -0.658133804798E+00
  0.446650657654E+02  0.435296669006E+02  0.658133804798E+00
  0.468944816589E+02  0.292438049316E+02 -0.144200220704E+00
  0.468944816589E+02  0.292438049316E+02  0.144200220704E+00
  0.470131988525E+02  0.376179962158E+02 -0.980757772923E+00
  0.470131988525E+02  0.376179962158E+02  0.980757772923E+00
  0.470762481689E+02  0.470762481689E+02  0.000000000000E+00
  0.477600097656E+02  0.435296669006E+02 -0.108748745918E+01
  0.477600097656E+02  0.435296669006E+02  0.108748745918E+01
  0.482116432190E+02  0.470762481689E+02 -0.658134579659E+00
  0.482116432190E+02  0.470762481689E+02  0.658134579659E+00
  0.482439842224E+02  0.292438049316E+02  0.000000000000E+00
  0.490000000000E+02  0.490000000000E+02  0.000000000000E+00
  0.501353988647E+02  0.490000000000E+02 -0.658134996891E+00
  0.501353988647E+02  0.490000000000E+02  0.658134996891E+00
  0.506007728577E+02  0.494653701782E+02 -0.465371757746E+00
  0.506007728577E+02  0.494653701782E+02  0.465371757746E+00
  0.507935333252E+02  0.496581344604E+02 -0.771266485397E-15
  0.513065910339E+02  0.470762481689E+02 -0.108748877048E+01
  0.513065910339E+02  0.470762481689E+02  0.108748877048E+01
  0.521583786011E+02  0.376179962158E+02 -0.479618877172E+00
  0.521583786011E+02  0.376179962158E+02  0.479618877172E+00
  0.529248886108E+02  0.435296669006E+02 -0.980759620667E+00
  0.529248886108E+02  0.435296669006E+02  0.980759620667E+00
  0.532303466797E+02  0.490000000000E+02 -0.108748936653E+01
  0.532303466797E+02  0.490000000000E+02  0.108748936653E+01
  0.539993209839E+02  0.497689704895E+02 -0.768971264362E+00
  0.539993209839E+02  0.497689704895E+02  0.768971264362E+00
  0.543178405762E+02  0.500874900818E+02 -0.157378642191E-15
  0.552687225342E+02  0.376179962158E+02 -0.144200608134E+00
  0.552687225342E+02  0.376179962158E+02  0.144200608134E+00
  0.564714775085E+02  0.470762481689E+02 -0.980760753155E+00
  0.564714775085E+02  0.470762481689E+02  0.980760753155E+00
  0.566182289124E+02  0.376179962158E+02  0.000000000000E+00
  0.580700759888E+02  0.435296669006E+02 -0.479619771242E+00
  0.580700759888E+02  0.435296669006E+02  0.479619771242E+00
  0.583952369690E+02  0.490000000000E+02 -0.980761349201E+00
  0.583952369690E+02  0.490000000000E+02  0.980761349201E+00
  0.590887413025E+02  0.496935043335E+02 -0.693503141403E+00
  0.590887413025E+02  0.496935043335E+02  0.693503141403E+00
  0.593759994507E+02  0.499807624817E+02  0.000000000000E+00
  0.611804275513E+02  0.435296669006E+02 -0.144200876355E+00
  0.611804275513E+02  0.435296669006E+02  0.144200876355E+00
  0.616166725159E+02  0.470762481689E+02 -0.479620337486E+00
  0.616166725159E+02  0.470762481689E+02  0.479620337486E+00
  0.625299339294E+02  0.435296669006E+02  0.000000000000E+00
  0.635404319763E+02  0.490000000000E+02 -0.479620635509E+00
  0.635404319763E+02  0.490000000000E+02  0.479620635509E+00
  0.638795776367E+02  0.493391418457E+02 -0.339143037796E+00
  0.638795776367E+02  0.493391418457E+02  0.339143037796E+00
  0.640200576782E+02  0.494796218872E+02  0.296956834055E-15
  0.647270278931E+02  0.470762481689E+02 -0.144201040268E+00
  0.647270278931E+02  0.470762481689E+02  0.144201040268E+00
  0.660765380859E+02  0.470762481689E+02  0.000000000000E+00
  0.666507873535E+02  0.490000000000E+02 -0.144201144576E+00
  0.666507873535E+02  0.490000000000E+02  0.144201144576E+00
  0.667527542114E+02  0.491019668579E+02 -0.101965606213E+00
  0.667527542114E+02  0.491019668579E+02  0.101965606213E+00
  0.667949905396E+02  0.491441993713E+02 -0.260488604752E-16
  0.680002975464E+02  0.490000000000E+02  0.000000000000E+00
  0.190000000000E+02  0.000000000000E+00  0.000000000000E+00
  0.209237651825E+02  0.192375373840E+01  0.000000000000E+00
  0.244703655243E+02  0.547033166885E+01  0.000000000000E+00
  0.303820724487E+02  0.113820018768E+02  0.000000000000E+00
  0.387563171387E+02  0.197561950684E+02  0.000000000000E+00
  0.482439842224E+02  0.292438049316E+02  0.000000000000E+00
  0.566182289124E+02  0.376179962158E+02  0.000000000000E+00
  0.625299339294E+02  0.435296669006E+02  0.000000000000E+00
  0.660765380859E+02  0.470762481689E+02  0.000000000000E+00
POLYGONS                 256                1024
3                 135                  33                 136
3                  32                  30                  33
3                  30                  28                  33
3                  30                  22                  28
3                  22                  17                  28
3                  22                  13                  17
3                  13                   6                  17
3                  17                   6                   9
3                   6                   1                   9
3                   9                   1                   4
3                   1                   0                   4
3                   4                   0                   3
3                   0                   5                   3
3                   0                   2                   5
3                   2                  10                   5
3                   2                   7                  10
[...]
CELL_DATA                 256
SCALARS sigma float 1
LOOKUP_TABLE default
  0.000000000000E+00
  0.000000000000E+00
  0.000000000000E+00
  0.000000000000E+00
  0.000000000000E+00
  0.000000000000E+00
  0.000000000000E+00
  0.000000000000E+00
  0.000000000000E+00
  0.000000000000E+00
  0.000000000000E+00
  0.000000000000E+00
  0.000000000000E+00
  0.000000000000E+00
  0.000000000000E+00
  0.000000000000E+00
  0.000000000000E+00
  0.000000000000E+00
  0.000000000000E+00
  0.000000000000E+00
  0.000000000000E+00
  0.000000000000E+00
  0.000000000000E+00
  0.000000000000E+00
  0.000000000000E+00
  0.000000000000E+00
  0.000000000000E+00
  0.000000000000E+00
  0.000000000000E+00
  0.000000000000E+00
  0.000000000000E+00
  0.000000000000E+00
  0.000000000000E+00
  0.000000000000E+00
  0.000000000000E+00
  0.000000000000E+00
  0.000000000000E+00
  0.000000000000E+00
  0.000000000000E+00
  0.000000000000E+00
  0.000000000000E+00
  0.000000000000E+00
  0.000000000000E+00
  0.000000000000E+00
  0.000000000000E+00
  0.000000000000E+00
  0.000000000000E+00
  0.000000000000E+00
  0.000000000000E+00
  0.000000000000E+00
  0.000000000000E+00
  0.000000000000E+00
  0.000000000000E+00
  0.000000000000E+00
  0.000000000000E+00
  0.000000000000E+00
  0.000000000000E+00
  0.000000000000E+00
  0.000000000000E+00
  0.000000000000E+00
  0.000000000000E+00
  0.000000000000E+00
  0.000000000000E+00
  0.000000000000E+00
  0.000000000000E+00
  0.000000000000E+00
  0.000000000000E+00
  0.000000000000E+00
  0.000000000000E+00
  0.000000000000E+00
  0.000000000000E+00
  0.000000000000E+00
  0.000000000000E+00
  0.000000000000E+00
  0.000000000000E+00
  0.000000000000E+00
  0.000000000000E+00
  0.000000000000E+00
  0.000000000000E+00
  0.000000000000E+00
  0.000000000000E+00
  0.000000000000E+00
  0.000000000000E+00
  0.000000000000E+00
  0.000000000000E+00
  0.000000000000E+00
  0.000000000000E+00
  0.000000000000E+00
  0.000000000000E+00
  0.000000000000E+00
  0.000000000000E+00
  0.000000000000E+00
  0.000000000000E+00
  0.000000000000E+00
  0.000000000000E+00
  0.000000000000E+00
  0.000000000000E+00
  0.000000000000E+00
  0.000000000000E+00
  0.000000000000E+00
  0.000000000000E+00
  0.000000000000E+00
  0.000000000000E+00
  0.000000000000E+00
  0.000000000000E+00
  0.000000000000E+00
  0.000000000000E+00
  0.000000000000E+00
  0.000000000000E+00
  0.000000000000E+00
  0.000000000000E+00
  0.000000000000E+00
  0.000000000000E+00
  0.000000000000E+00
  0.000000000000E+00
  0.000000000000E+00
  0.000000000000E+00
  0.000000000000E+00
  0.000000000000E+00
  0.000000000000E+00
  0.000000000000E+00
  0.000000000000E+00
  0.000000000000E+00
  0.000000000000E+00
  0.000000000000E+00
  0.000000000000E+00
  0.000000000000E+00
  0.000000000000E+00
  0.000000000000E+00
  0.000000000000E+00
  0.000000000000E+00
  0.000000000000E+00
  0.000000000000E+00
  0.000000000000E+00
  0.000000000000E+00
  0.000000000000E+00
  0.000000000000E+00
  0.000000000000E+00
  0.000000000000E+00
  0.000000000000E+00
  0.000000000000E+00
  0.000000000000E+00
  0.000000000000E+00
  0.000000000000E+00
  0.000000000000E+00
  0.000000000000E+00
  0.000000000000E+00
  0.000000000000E+00
  0.000000000000E+00
  0.000000000000E+00
  0.000000000000E+00
  0.000000000000E+00
  0.000000000000E+00
  0.000000000000E+00
  0.000000000000E+00
  0.000000000000E+00
  0.000000000000E+00
  0.000000000000E+00
  0.000000000000E+00
  0.000000000000E+00
  0.000000000000E+00
  0.000000000000E+00
  0.000000000000E+00
  0.000000000000E+00
  0.000000000000E+00
  0.000000000000E+00
  0.000000000000E+00
  0.000000000000E+00
  0.000000000000E+00
  0.000000000000E+00
  0.000000000000E+00
  0.000000000000E+00
  0.000000000000E+00
  0.000000000000E+00
  0.000000000000E+00
  0.000000000000E+00
  0.000000000000E+00
  0.000000000000E+00
  0.000000000000E+00
  0.000000000000E+00
  0.000000000000E+00
  0.000000000000E+00
  0.000000000000E+00
  0.000000000000E+00
  0.000000000000E+00
  0.000000000000E+00
  0.000000000000E+00
  0.000000000000E+00
  0.000000000000E+00
  0.000000000000E+00
  0.000000000000E+00
  0.000000000000E+00
  0.000000000000E+00
  0.000000000000E+00
  0.000000000000E+00
  0.000000000000E+00
  0.000000000000E+00
  0.000000000000E+00
  0.000000000000E+00
  0.000000000000E+00
  0.000000000000E+00
  0.000000000000E+00
  0.000000000000E+00
  0.000000000000E+00
  0.000000000000E+00
  0.000000000000E+00
  0.000000000000E+00
  0.000000000000E+00
  0.000000000000E+00
  0.000000000000E+00
  0.000000000000E+00
  0.000000000000E+00
  0.000000000000E+00
  0.000000000000E+00
  0.000000000000E+00
  0.000000000000E+00
  0.000000000000E+00
  0.000000000000E+00
  0.000000000000E+00
  0.000000000000E+00
  0.000000000000E+00
  0.000000000000E+00
  0.000000000000E+00
  0.000000000000E+00
  0.000000000000E+00
  0.000000000000E+00
  0.000000000000E+00
  0.000000000000E+00
  0.000000000000E+00
  0.000000000000E+00
  0.000000000000E+00
  0.000000000000E+00
  0.000000000000E+00
  0.000000000000E+00
  0.000000000000E+00
  0.000000000000E+00
  0.000000000000E+00
  0.000000000000E+00
  0.000000000000E+00
  0.000000000000E+00
  0.000000000000E+00
  0.000000000000E+00
  0.000000000000E+00
  0.000000000000E+00
  0.000000000000E+00
  0.000000000000E+00
  0.000000000000E+00
  0.000000000000E+00
  0.000000000000E+00
  0.000000000000E+00
  0.000000000000E+00
  0.000000000000E+00
  0.000000000000E+00
  0.000000000000E+00
  0.000000000000E+00
  0.000000000000E+00
SCALARS C_p_inc float 1
LOOKUP_TABLE default
 -0.943542598458E+00
 -0.176757313097E+01
 -0.397707580487E+00
 -0.310365333351E+00
 -0.175291299671E+00
 -0.142753425736E+00
 -0.883913258685E-02
 -0.568820560160E-01
  0.237986117817E+00
  0.155359299810E+00
  0.597238696014E+00
  0.600703574887E+00
 -0.513110382951E+00
  0.153193212653E-01
 -0.578772389819E+00
 -0.419693401843E+00
 -0.331577291502E+00
 -0.373833993882E+00
 -0.140566522008E+00
 -0.397742936164E-01
  0.208863970398E+00
  0.357500821474E+00
  0.655050254724E+00
  0.538638884421E+00
 -0.738324941452E+00
 -0.911050518110E+00
 -0.329662431912E+00
 -0.416069904332E+00
 -0.201670764201E+00
 -0.178922690185E+00
 -0.541597040178E-01
 -0.983914756610E-01
  0.149687332106E+00
  0.123432441716E+00
  0.519893635808E+00
  0.514315081474E+00
 -0.716502904559E+00
 -0.488975807238E+00
 -0.659557178114E+00
 -0.581164585712E+00
 -0.296520761112E+00
 -0.351847312139E+00
 -0.361327831124E-01
  0.427877592234E-01
  0.334341167175E+00
  0.315464756158E+00
  0.534064541415E+00
  0.506405716735E+00
 -0.680292287634E+00
 -0.733329139211E+00
 -0.296637693163E+00
 -0.331487238131E+00
 -0.191966993883E+00
 -0.206420607186E+00
 -0.972394265242E-01
 -0.111776276707E+00
  0.121106694016E+00
  0.108248142070E+00
  0.508004077904E+00
  0.506938703190E+00
 -0.771799682987E+00
 -0.713749884158E+00
 -0.665683630774E+00
 -0.668849035642E+00
 -0.265596047110E+00
 -0.309967394365E+00
  0.432173297416E-01
  0.568578858222E-01
  0.310623101048E+00
  0.300444697224E+00
  0.505966557104E+00
  0.498722530968E+00
 -0.657736891766E+00
 -0.678691179726E+00
 -0.284911661501E+00
 -0.296781092176E+00
 -0.185453237175E+00
 -0.193068722945E+00
 -0.112537663510E+00
 -0.111601633153E+00
  0.108472575238E+00
  0.105222002234E+00
  0.511016103400E+00
  0.511338815676E+00
 -0.758280994184E+00
 -0.773175922543E+00
 -0.654840417095E+00
 -0.671849973352E+00
 -0.258049985837E+00
 -0.269208463596E+00
  0.567001078345E-01
  0.577397684362E-01
  0.299749489042E+00
  0.296871243842E+00
  0.498903190329E+00
  0.496325500540E+00
 -0.631950481985E+00
 -0.656081596818E+00
 -0.275817370652E+00
 -0.284450840034E+00
 -0.182754293393E+00
 -0.185352729546E+00
 -0.111831264683E+00
 -0.112736259720E+00
  0.105357192821E+00
  0.102490073809E+00
  0.512609794341E+00
  0.512870062656E+00
 -0.743583010579E+00
 -0.758932447170E+00
 -0.647085449837E+00
 -0.656272968404E+00
 -0.254274459637E+00
 -0.258488493268E+00
  0.576985574421E-01
  0.586621436188E-01
  0.296803138041E+00
  0.295235647830E+00
  0.496517320751E+00
  0.493664443769E+00
 -0.551344809883E+00
 -0.628539824212E+00
 -0.249834455617E+00
 -0.273832193049E+00
 -0.181467464504E+00
 -0.181560571709E+00
 -0.111940413816E+00
 -0.121399750187E+00
  0.102041694945E+00
  0.928564370470E-01
  0.509959517287E+00
  0.510458804063E+00
 -0.724877331755E+00
 -0.743396331397E+00
 -0.636765496716E+00
 -0.646915407065E+00
 -0.248392451879E+00
 -0.254301394623E+00
  0.586243907336E-01
  0.617243870549E-01
  0.295338371634E+00
  0.294622161384E+00
  0.494378723671E+00
  0.487660351445E+00
 -0.202598100842E+00
 -0.538679931522E+00
 -0.193129451207E+00
 -0.242935639122E+00
 -0.188396278398E+00
 -0.177584940011E+00
 -0.118363099388E+00
 -0.153733206971E+00
  0.908035084079E-01
  0.621300691091E-01
  0.499718731261E+00
  0.501479146314E+00
 -0.691997762723E+00
 -0.723865166486E+00
 -0.620622446912E+00
 -0.635200633211E+00
 -0.240631771559E+00
 -0.247913874043E+00
  0.615396697506E-01
  0.588571488101E-01
  0.292855009529E+00
  0.283230179382E+00
  0.482462102395E+00
  0.503942630077E+00
 -0.244071434333E+02
 -0.101128406447E+01
  0.851190003198E+00
 -0.230000237451E+00
 -0.493274107566E+00
 -0.185271461955E+00
 -0.150296333004E+00
 -0.206413762054E+00
  0.534522552216E-01
 -0.113112788605E-01
  0.470016984020E+00
  0.476834757342E+00
 -0.637771534283E+00
 -0.689927620242E+00
 -0.588807773921E+00
 -0.617994475499E+00
 -0.229423084926E+00
 -0.240111642266E+00
  0.586863417787E-01
 -0.224770648274E+00
  0.181776779479E+00
  0.608985778406E+00
  0.478280962988E+00
 -0.195326615943E+02
 -0.398649916914E+08
 -0.207301892768E+05
 -0.116853672127E+05
  0.962299635870E+00
 -0.132053241704E+00
 -0.491606260255E+00
 -0.237283709751E+00
 -0.284201198814E+00
 -0.455664101901E-01
 -0.713556339001E-01
  0.337607040621E+00
  0.379040002369E+00
 -0.529343720291E+00
 -0.633843121879E+00
 -0.429086390760E+00
 -0.611210408244E+00
 -0.274514517063E+00
 -0.229603092819E+00
 -0.227077019478E+00
 -0.251411692977E+00
  0.852203556872E+00
 -0.116565887444E+05
 -0.207861365521E+05
 -0.398671942434E+08
 -0.830292612587E+08
 -0.470681111985E+06
 -0.176648442644E+05
 -0.271201081256E+02
 -0.234604819759E+00
 -0.489744066152E+00
 -0.401347150790E+00
 -0.220438444561E+00
 -0.246821439493E+00
 -0.549301282554E-01
 -0.530902580952E+00
 -0.385667294381E+00
 -0.508038033982E+00
 -0.427822926785E+00
 -0.291709194174E+00
  0.563753210079E+00
 -0.344349489215E+02
 -0.177573863816E+05
 -0.469868039948E+06
 -0.830230396409E+08
 -0.567468924954E+08
 -0.563066703632E+06
 -0.211101335197E+05
 -0.406428099329E+02
  0.222346451494E-01
 -0.657759898908E+00
 -0.566196191837E+00
 -0.392295718582E+00
 -0.427399185747E+00
 -0.293054824273E+00
 -0.453487468802E+00
 -0.479612600113E+00
 -0.468165593811E+00
 -0.602054685509E+00
 -0.460739111496E+00
  0.996237446901E+00
 -0.548368121687E+02
 -0.212156411946E+05
 -0.561594255779E+06
 -0.567407442021E+08
SCALARS inclination float 1
LOOKUP_TABLE default
  0.100000000000E+01
  0.100000000000E+01
  0.100000000000E+01
  0.100000000000E+01
  0.100000000000E+01
  0.100000000000E+01
  0.100000000000E+01
  0.100000000000E+01
  0.100000000000E+01
  0.100000000000E+01
  0.100000000000E+01
  0.100000000000E+01
  0.100000000000E+01
  0.100000000000E+01
  0.100000000000E+01
  0.100000000000E+01
  0.100000000000E+01
  0.100000000000E+01
  0.100000000000E+01
  0.100000000000E+01
  0.100000000000E+01
  0.100000000000E+01
  0.100000000000E+01
  0.100000000000E+01
  0.100000000000E+01
  0.100000000000E+01
  0.100000000000E+01
  0.100000000000E+01
  0.100000000000E+01
  0.100000000000E+01
  0.100000000000E+01
  0.100000000000E+01
  0.100000000000E+01
  0.100000000000E+01
  0.100000000000E+01
  0.100000000000E+01
  0.100000000000E+01
  0.100000000000E+01
  0.100000000000E+01
  0.100000000000E+01
  0.100000000000E+01
  0.100000000000E+01
  0.100000000000E+01
  0.100000000000E+01
  0.100000000000E+01
  0.100000000000E+01
  0.100000000000E+01
  0.100000000000E+01
  0.100000000000E+01
  0.100000000000E+01
  0.100000000000E+01
  0.100000000000E+01
  0.100000000000E+01
  0.100000000000E+01
  0.100000000000E+01
  0.100000000000E+01
  0.100000000000E+01
  0.100000000000E+01
  0.100000000000E+01
  0.100000000000E+01
  0.100000000000E+01
  0.100000000000E+01
  0.100000000000E+01
  0.100000000000E+01
  0.100000000000E+01
  0.100000000000E+01
  0.100000000000E+01
  0.100000000000E+01
  0.100000000000E+01
  0.100000000000E+01
  0.100000000000E+01
  0.100000000000E+01
  0.100000000000E+01
  0.100000000000E+01
  0.100000000000E+01
  0.100000000000E+01
  0.100000000000E+01
  0.100000000000E+01
  0.100000000000E+01
  0.100000000000E+01
  0.100000000000E+01
  0.100000000000E+01
  0.100000000000E+01
  0.100000000000E+01
  0.100000000000E+01
  0.100000000000E+01
  0.100000000000E+01
  0.100000000000E+01
  0.100000000000E+01
  0.100000000000E+01
  0.100000000000E+01
  0.100000000000E+01
  0.100000000000E+01
  0.100000000000E+01
  0.100000000000E+01
  0.100000000000E+01
  0.100000000000E+01
  0.100000000000E+01
  0.100000000000E+01
  0.100000000000E+01
  0.100000000000E+01
  0.100000000000E+01
  0.100000000000E+01
  0.100000000000E+01
  0.100000000000E+01
  0.100000000000E+01
  0.100000000000E+01
  0.100000000000E+01
  0.100000000000E+01
  0.100000000000E+01
  0.100000000000E+01
  0.100000000000E+01
  0.100000000000E+01
  0.100000000000E+01
  0.100000000000E+01
  0.100000000000E+01
  0.100000000000E+01
  0.100000000000E+01
  0.100000000000E+01
  0.100000000000E+01
  0.100000000000E+01
  0.100000000000E+01
  0.100000000000E+01
  0.100000000000E+01
  0.100000000000E+01
  0.100000000000E+01
  0.100000000000E+01
  0.100000000000E+01
  0.100000000000E+01
  0.100000000000E+01
  0.100000000000E+01
  0.100000000000E+01
  0.100000000000E+01
  0.100000000000E+01
  0.100000000000E+01
  0.100000000000E+01
  0.100000000000E+01
  0.100000000000E+01
  0.100000000000E+01
  0.100000000000E+01
  0.100000000000E+01
  0.100000000000E+01
  0.100000000000E+01
  0.100000000000E+01
  0.100000000000E+01
  0.100000000000E+01
  0.100000000000E+01
  0.100000000000E+01
  0.100000000000E+01
  0.100000000000E+01
  0.100000000000E+01
  0.100000000000E+01
  0.100000000000E+01
  0.100000000000E+01
  0.100000000000E+01
  0.100000000000E+01
  0.100000000000E+01
  0.100000000000E+01
  0.100000000000E+01
  0.100000000000E+01
  0.100000000000E+01
  0.100000000000E+01
  0.100000000000E+01
  0.100000000000E+01
  0.100000000000E+01
  0.100000000000E+01
  0.100000000000E+01
  0.100000000000E+01
  0.100000000000E+01
  0.100000000000E+01
  0.100000000000E+01
  0.100000000000E+01
  0.100000000000E+01
  0.100000000000E+01
  0.100000000000E+01
  0.100000000000E+01
  0.100000000000E+01
  0.100000000000E+01
  0.100000000000E+01
  0.100000000000E+01
  0.100000000000E+01
  0.100000000000E+01
  0.100000000000E+01
  0.100000000000E+01
  0.100000000000E+01
  0.100000000000E+01
  0.100000000000E+01
  0.100000000000E+01
  0.100000000000E+01
  0.100000000000E+01
  0.100000000000E+01
  0.100000000000E+01
  0.100000000000E+01
  0.100000000000E+01
  0.100000000000E+01
  0.100000000000E+01
  0.100000000000E+01
  0.100000000000E+01
  0.100000000000E+01
  0.100000000000E+01
  0.100000000000E+01
  0.100000000000E+01
  0.100000000000E+01
  0.100000000000E+01
  0.100000000000E+01
  0.100000000000E+01
  0.100000000000E+01
  0.100000000000E+01
  0.100000000000E+01
  0.100000000000E+01
  0.100000000000E+01
  0.100000000000E+01
  0.100000000000E+01
  0.100000000000E+01
  0.100000000000E+01
  0.100000000000E+01
  0.100000000000E+01
  0.100000000000E+01
  0.100000000000E+01
  0.100000000000E+01
  0.100000000000E+01
  0.100000000000E+01
  0.100000000000E+01
  0.100000000000E+01
  0.100000000000E+01
  0.100000000000E+01
  0.100000000000E+01
  0.100000000000E+01
  0.100000000000E+01
  0.100000000000E+01
  0.100000000000E+01
  0.100000000000E+01
  0.100000000000E+01
  0.100000000000E+01
  0.100000000000E+01
  0.100000000000E+01
  0.100000000000E+01
  0.100000000000E+01
  0.100000000000E+01
  0.100000000000E+01
  0.100000000000E+01
  0.100000000000E+01
  0.100000000000E+01
  0.100000000000E+01
  0.100000000000E+01
  0.100000000000E+01
  0.100000000000E+01
  0.100000000000E+01
  0.100000000000E+01
  0.100000000000E+01
  0.100000000000E+01
  0.100000000000E+01
  0.100000000000E+01
  0.100000000000E+01
  0.100000000000E+01
  0.100000000000E+01
VECTORS v float
  0.216865851354E+03 -0.610359735325E+02  0.296950458829E+02
  0.258725460274E+03 -0.730477918979E+02  0.354514713643E+02
  0.191442397453E+03 -0.576439619196E+01  0.212667087198E+02
  0.185147769400E+03 -0.969135410915E+01  0.210113703402E+02
  0.175873002948E+03 -0.416542274131E+00  0.171705523367E+02
  0.173319721118E+03 -0.464943516775E+01  0.173341510467E+02
  0.163607712350E+03  0.506259813165E+01  0.327619799558E+01
  0.167311256771E+03 -0.860397971287E+01  0.363513920832E+01
  0.140050978626E+03  0.186563258727E+02 -0.168407757102E+02
  0.148266071019E+03 -0.372229479431E+01 -0.210849583668E+02
  0.809959917270E+02  0.635478118887E+02 -0.101138525764E+02
  0.822846155725E+02  0.606730496072E+02 -0.125271628983E+02
  0.166169776609E+03 -0.232121114290E+02  0.109775375151E+03
  0.144182628077E+03  0.258385297388E+02  0.685982586891E+02
  0.200062334066E+03 -0.300411890724E+02  0.319216708877E+02
  0.192044085268E+03 -0.819878783340E+01  0.277791861877E+02
  0.188004287251E+03 -0.415897497222E+01 -0.397088912632E+01
  0.190530527254E+03 -0.134811411634E+02 -0.421573253471E+01
  0.173253814319E+03  0.379562696648E+01 -0.165051798840E+02
  0.165043488486E+03 -0.981565403892E+01 -0.170312375112E+02
  0.143825397639E+03  0.114025415676E+02 -0.142804135204E+02
  0.129904018590E+03  0.271757564460E+01 -0.137157358923E+02
  0.528499388455E+02  0.797720366010E+02  0.287679036152E+01
  0.854555470942E+02  0.703751124657E+02 -0.161136466628E+01
  0.207688675956E+03 -0.480049782270E+02  0.273219932369E+02
  0.216931650488E+03 -0.536595587167E+02  0.289138719368E+02
  0.185315561782E+03 -0.220432875289E+02  0.223615113511E+02
  0.191247643307E+03 -0.227057730356E+02  0.230726697281E+02
  0.177528608761E+03 -0.898667467288E+01  0.181665429760E+02
  0.175784956319E+03 -0.978558396179E+01  0.180745244488E+02
  0.167314367945E+03 -0.131497405226E+01  0.348458011353E+01
  0.170539999753E+03 -0.924497616572E+01  0.371510658345E+01
  0.148576505108E+03  0.127185396664E+02 -0.188472319416E+02
  0.151105453824E+03  0.785862259596E+01 -0.198722754483E+02
  0.855011937058E+02  0.734629117764E+02 -0.697799816916E+01
  0.829427101538E+02  0.775559131860E+02 -0.312246097950E+01
  0.179176053782E+03 -0.186774304420E+02  0.114685923349E+03
  0.170714569775E+03 -0.514095158174E+01  0.101934805174E+03
  0.203739808563E+03 -0.381661899009E+02  0.335590080365E+02
  0.200043057596E+03 -0.310620900697E+02  0.320606229827E+02
  0.184871673970E+03 -0.158906726584E+02 -0.414858866667E+01
  0.187996001304E+03 -0.235716243107E+02 -0.437187116302E+01
  0.165129110113E+03 -0.704658645771E+00 -0.161521628246E+02
  0.158646491836E+03 -0.367487356099E+01 -0.158100587507E+02
  0.130158030721E+03  0.248137209409E+02 -0.113602738207E+02
  0.132090831253E+03  0.245978686039E+02 -0.115919822563E+02
  0.854651286088E+02  0.712238403429E+02 -0.152169570604E+01
  0.931952296181E+02  0.664891916121E+02 -0.285360951565E+01
  0.204816644291E+03 -0.445407111430E+02  0.266449444083E+02
  0.207677959124E+03 -0.467299118440E+02  0.271846010249E+02
  0.182966901582E+03 -0.220187090415E+02  0.221055705063E+02
  0.185303357187E+03 -0.231049514641E+02  0.224746849373E+02
  0.176415662815E+03 -0.142172168403E+02  0.185675986442E+02
  0.177478251680E+03 -0.143451723204E+02  0.186835575879E+02
  0.170540783971E+03 -0.740768859755E+01  0.367715590806E+01
  0.171573594234E+03 -0.934393932051E+01  0.373850979431E+01
  0.151165971949E+03  0.110637062960E+02 -0.194360380332E+02
  0.152360474554E+03  0.921317092505E+01 -0.198584588639E+02
  0.831587480877E+02  0.784149290956E+02 -0.274975736680E+01
  0.824538311030E+02  0.793618236203E+02 -0.179228430808E+01