# vtk DataFile Version 3.0
TriPan results file. Generated by TriPan, USU AeroLab (c) 2021.
ASCII
DATASET POLYDATA
POINTS                 144 float
      0.000000000000      0.000000000000      0.000000000000
      0.750993072987      0.000000000000     -0.543790996075
      0.750993072987      0.000000000000      0.543790996075
      1.923753738400      1.923753738400      0.000000000000
      2.674746751790      1.923753738400     -0.543790996075
      2.674746751790      1.923753738400      0.543790996075
      3.592464447020      0.000000000000     -1.038844943050
      3.592464447020      0.000000000000      1.038844943050
      5.470331668850      5.470331668850      0.000000000000
      5.516218185420      1.923753738400     -1.038844943050
      5.516218185420      1.923753738400      1.038844943050
      6.221324920650      5.470331668850     -0.543790996075
      6.221324920650      5.470331668850      0.543790996075
      9.062796592710      5.470331668850     -1.038844943050
      9.062796592710      5.470331668850      1.038844943050
      9.395236968990      0.000000000000     -0.980761349201
      9.395236968990      0.000000000000      0.980761349201
     11.318990707400      1.923753738400     -0.980761349201
     11.318990707400      1.923753738400      0.980761349201
     11.382001876800     11.382001876800      0.000000000000
     12.132995605500     11.382001876800     -0.543790996075
     12.132995605500     11.382001876800      0.543790996075
     14.865568161000      5.470331668850     -0.980761349201
     14.865568161000      5.470331668850      0.980761349201
     14.974466323900     11.382001876800     -1.038844943050
     14.974466323900     11.382001876800      1.038844943050
     15.176529884300      0.000000000000     -0.411069482565
     15.176529884300      0.000000000000      0.411069482565
     17.100284576400      1.923753738400     -0.411069482565
     17.100284576400      1.923753738400      0.411069482565
     18.049325943000      0.000000000000     -0.101516798139
     18.049325943000      0.000000000000      0.101516798139
     19.000301361100      0.000000000000      0.000000000000
     19.756195068400     19.756195068400      0.000000000000
     19.973079681400      1.923753738400     -0.101516798139
     19.973079681400      1.923753738400      0.101516798139
     20.507186889600     19.756195068400     -0.543790996075
     20.507186889600     19.756195068400      0.543790996075
     20.646862030000      5.470331668850     -0.411069482565
     20.646862030000      5.470331668850      0.411069482565
     20.777238845800     11.382001876800     -0.980761349201
     20.777238845800     11.382001876800      0.980761349201
     20.924055099500      1.923753738400      0.000000000000
     23.348659515400     19.756195068400     -1.038844943050
     23.348659515400     19.756195068400      1.038844943050
     23.519659042400      5.470331668850     -0.101516798139
     23.519659042400      5.470331668850      0.101516798139
     24.470632553100      5.470331668850      0.000000000000
     26.558532714800     11.382001876800     -0.411069482565
     26.558532714800     11.382001876800      0.411069482565
     29.151432037400     19.756195068400     -0.980761349201
     29.151432037400     19.756195068400      0.980761349201
     29.243804931600     29.243804931600      0.000000000000
     29.431327819800     11.382001876800     -0.101516798139
     29.431327819800     11.382001876800      0.101516798139
     29.994798660300     29.243804931600     -0.543790996075
     29.994798660300     29.243804931600      0.543790996075
     30.382303237900     11.382001876800      0.000000000000
     32.836269378700     29.243804931600     -1.038844943050
     32.836269378700     29.243804931600      1.038844943050
     34.932723999000     19.756195068400     -0.411069482565
     34.932723999000     19.756195068400      0.411069482565
     37.617996215800     37.617996215800      0.000000000000
     37.805519104000     19.756195068400     -0.101516798139
     37.805519104000     19.756195068400      0.101516798139
     38.368991851800     37.617996215800     -0.543790996075
     38.368991851800     37.617996215800      0.543790996075
     38.639041900600     29.243804931600     -0.980761349201
     38.639041900600     29.243804931600      0.980761349201
     38.756496429400     19.756195068400      0.000000000000
     41.210460662800     37.617996215800     -1.038844943050
     41.210460662800     37.617996215800      1.038844943050
     43.529666900600     43.529666900600      0.000000000000
     44.280662536600     43.529666900600     -0.543790996075
     44.280662536600     43.529666900600      0.543790996075
     44.420333862300     29.243804931600     -0.411069482565
     44.420333862300     29.243804931600      0.411069482565
     47.013233184800     37.617996215800     -0.980761349201
     47.013233184800     37.617996215800      0.980761349201
     47.076248168900     47.076248168900      0.000000000000
     47.122131347700     43.529666900600     -1.038844943050
     47.122131347700     43.529666900600      1.038844943050
     47.293132782000     29.243804931600     -0.101516798139
     47.293132782000     29.243804931600      0.101516798139
     47.827239990200     47.076248168900     -0.543790996075
     47.827239990200     47.076248168900      0.543790996075
     48.244106292700     29.243804931600      0.000000000000
     49.000000000000     49.000000000000      0.000000000000
     49.750991821300     49.000000000000     -0.543790996075
     49.750991821300     49.000000000000      0.543790996075
     50.135513305700     49.384517669700     -0.384518325329
     50.135513305700     49.384517669700      0.384518325329
     50.294784545900     49.543792724600     -0.000000000000
     50.668708801300     47.076248168900     -1.038844943050
     50.668708801300     47.076248168900      1.038844943050
     52.592464447000     49.000000000000     -1.038844943050
     52.592464447000     49.000000000000      1.038844943050
     52.794528961200     37.617996215800     -0.411069482565
     52.794528961200     37.617996215800      0.411069482565
     52.924903869600     43.529666900600     -0.980761349201
     52.924903869600     43.529666900600      0.980761349201
     53.327037811300     49.734573364300     -0.734574317932
     53.327037811300     49.734573364300      0.734574317932
     53.631309509300     50.038845062300     -0.000000000000
     55.667324066200     37.617996215800     -0.101516798139
     55.667324066200     37.617996215800      0.101516798139
     56.471481323200     47.076248168900     -0.980761349201
     56.471481323200     47.076248168900      0.980761349201
     56.618297576900     37.617996215800      0.000000000000
     58.395236969000     49.000000000000     -0.980761349201
     58.395236969000     49.000000000000      0.980761349201
     58.706199646000     43.529666900600     -0.411069482565
     58.706199646000     43.529666900600      0.411069482565
     59.088741302500     49.693504333500     -0.693503022194
     59.088741302500     49.693504333500      0.693503022194
     59.375999450700     49.980762481700      0.000000000000
     61.578994751000     43.529666900600     -0.101516798139
     61.578994751000     43.529666900600      0.101516798139
     62.252777099600     47.076248168900     -0.411069482565
     62.252777099600     47.076248168900      0.411069482565
     62.529968261700     43.529666900600      0.000000000000
     64.176528930700     49.000000000000     -0.411069482565
     64.176528930700     49.000000000000      0.411069482565
     64.467201232900     49.290668487500     -0.290670007467
     64.467201232900     49.290668487500      0.290670007467
     64.587600708000     49.411067962600      0.000000000000
     65.125572204600     47.076248168900     -0.101516798139
     65.125572204600     47.076248168900      0.101516798139
     66.076545715300     47.076248168900      0.000000000000
     67.049324035600     49.000000000000     -0.101516798139
     67.049324035600     49.000000000000      0.101516798139
     67.121109008800     49.071784973100     -0.071783214807
     67.121109008800     49.071784973100      0.071783214807
     67.150840759300     49.101516723600     -0.000000000000
     68.000297546400     49.000000000000      0.000000000000
     20.924055099500      1.923753738400      0.000000000000
     19.000301361100      0.000000000000      0.000000000000
     24.470632553100      5.470331668850      0.000000000000
     30.382303237900     11.382001876800      0.000000000000
     38.756496429400     19.756195068400      0.000000000000
     48.244106292700     29.243804931600      0.000000000000
     56.618297576900     37.617996215800      0.000000000000
     62.529968261700     43.529666900600      0.000000000000
     66.076545715300     47.076248168900      0.000000000000
POLYGONS                 256                1024
3                  32                  34                  42
3                  32                  30                  34
3                  30                  28                  34
3                  30                  26                  28
3                  26                  17                  28
3                  26                  15                  17
3                  15                   6                  17
3                  17                   6                   9
3                   6                   1                   9
3                   9                   1                   4
3                   1                   0                   4
3                   4                   0                   3
3                   0                   5                   3
3                   0                   2                   5
3                   2                  10                   5
3                   2                   7                  10
[...]
CELL_DATA                 256
SCALARS sigma float 1
LOOKUP_TABLE default
      0.000000000000
      0.000000000000
      0.000000000000
      0.000000000000
      0.000000000000
      0.000000000000
      0.000000000000
      0.000000000000
      0.000000000000
      0.000000000000
      0.000000000000
      0.000000000000
      0.000000000000
      0.000000000000
      0.000000000000
      0.000000000000
      0.000000000000
      0.000000000000
      0.000000000000
      0.000000000000
      0.000000000000
      0.000000000000
      0.000000000000
      0.000000000000
      0.000000000000
      0.000000000000
      0.000000000000
      0.000000000000
      0.000000000000
      0.000000000000
      0.000000000000
      0.000000000000
      0.000000000000
      0.000000000000
      0.000000000000
      0.000000000000
      0.000000000000
      0.000000000000
      0.000000000000
      0.000000000000
      0.000000000000
      0.000000000000
      0.000000000000
      0.000000000000
      0.000000000000
      0.000000000000
      0.000000000000
      0.000000000000
      0.000000000000
      0.000000000000
      0.000000000000
      0.000000000000
      0.000000000000
      0.000000000000
      0.000000000000
      0.000000000000
      0.000000000000
      0.000000000000
      0.000000000000
      0.000000000000
      0.000000000000
      0.000000000000
      0.000000000000
      0.000000000000
      0.000000000000
      0.000000000000
      0.000000000000
      0.000000000000
      0.000000000000
      0.000000000000
      0.000000000000
      0.000000000000
      0.000000000000
      0.000000000000
      0.000000000000
      0.000000000000
      0.000000000000
      0.000000000000
      0.000000000000
      0.000000000000
      0.000000000000
      0.000000000000
      0.000000000000
      0.000000000000
      0.000000000000
      0.000000000000
      0.000000000000
      0.000000000000
      0.000000000000
      0.000000000000
      0.000000000000
      0.000000000000
      0.000000000000
      0.000000000000
      0.000000000000
      0.000000000000
      0.000000000000
      0.000000000000
      0.000000000000
      0.000000000000
      0.000000000000
      0.000000000000
      0.000000000000
      0.000000000000
      0.000000000000
      0.000000000000
      0.000000000000
      0.000000000000
      0.000000000000
      0.000000000000
      0.000000000000
      0.000000000000
      0.000000000000
      0.000000000000
      0.000000000000
      0.000000000000
      0.000000000000
      0.000000000000
      0.000000000000
      0.000000000000
      0.000000000000
      0.000000000000
      0.000000000000
      0.000000000000
      0.000000000000
      0.000000000000
      0.000000000000
      0.000000000000
      0.000000000000
      0.000000000000
      0.000000000000
      0.000000000000
      0.000000000000
      0.000000000000
      0.000000000000
      0.000000000000
      0.000000000000
      0.000000000000
      0.000000000000
      0.000000000000
      0.000000000000
      0.000000000000
      0.000000000000
      0.000000000000
      0.000000000000
      0.000000000000
      0.000000000000
      0.000000000000
      0.000000000000
      0.000000000000
      0.000000000000
      0.000000000000
      0.000000000000
      0.000000000000
      0.000000000000
      0.000000000000
      0.000000000000
      0.000000000000
      0.000000000000
      0.000000000000
      0.000000000000
      0.000000000000
      0.000000000000
      0.000000000000
      0.000000000000
      0.000000000000
      0.000000000000
      0.000000000000
      0.000000000000
      0.000000000000
      0.000000000000
      0.000000000000
      0.000000000000
      0.000000000000
      0.000000000000
      0.000000000000
      0.000000000000
      0.000000000000
      0.000000000000
      0.000000000000
      0.000000000000
      0.000000000000
      0.000000000000
      0.000000000000
      0.000000000000
      0.000000000000
      0.000000000000
      0.000000000000
      0.000000000000
      0.000000000000
      0.000000000000
      0.000000000000
      0.000000000000
      0.000000000000
      0.000000000000
      0.000000000000
      0.000000000000
      0.000000000000
      0.000000000000
      0.000000000000
      0.000000000000
      0.000000000000
      0.000000000000
      0.000000000000
      0.000000000000
      0.000000000000
      0.000000000000
      0.000000000000
      0.000000000000
      0.000000000000
      0.000000000000
      0.000000000000
      0.000000000000
      0.000000000000
      0.000000000000
      0.000000000000
      0.000000000000
      0.000000000000
      0.000000000000
      0.000000000000
      0.000000000000
      0.000000000000
      0.000000000000
      0.000000000000
      0.000000000000
      0.000000000000
      0.000000000000
      0.000000000000
      0.000000000000
      0.000000000000
      0.000000000000
      0.000000000000
      0.000000000000
      0.000000000000
      0.000000000000
      0.000000000000
      0.000000000000
      0.000000000000
      0.000000000000
      0.000000000000
      0.000000000000
      0.000000000000
      0.000000000000
      0.000000000000
      0.000000000000
      0.000000000000
      0.000000000000
      0.000000000000
      0.000000000000
      0.000000000000
      0.000000000000
      0.000000000000
      0.000000000000
      0.000000000000
      0.000000000000
      0.000000000000
SCALARS C_p float 1
LOOKUP_TABLE default
      0.211930093531
      0.460265560334
      0.179568672062
      0.165228480920
      0.095469678256
      0.078905765442
      0.141105185292
      0.116075226792
      0.374521579203
      0.326361947571
      0.635647929299
      0.601390064500
     -0.832701807308
     -0.037313126233
     -0.799774057486
     -0.519912877853
     -0.528171189940
     -0.530091304714
     -0.381287031574
     -0.320507281420
     -0.217269067920
     -0.127438423978
     -0.494429289125
      0.064840037157
      0.163898007539
      0.219230080620
      0.127717155555
      0.177044948621
      0.094037638786
      0.095660131480
      0.116453033987
      0.112964117407
      0.308605924845
      0.323166628590
      0.514383080151
      0.431738542997
     -1.274020445076
     -0.803014087117
     -0.994503061840
     -0.786318711235
     -0.558180072070
     -0.549101033777
     -0.321742248962
     -0.256257879077
     -0.127258499805
     -0.024931252214
      0.067279881742
      0.133651707478
      0.157329988503
      0.164989329465
      0.110870072775
      0.127983706311
      0.079996657949
      0.093718313312
      0.112415277512
      0.119244853644
      0.319969926595
      0.343046783480
      0.438023832284
      0.356752796692
     -1.587316594183
     -1.266989804948
     -1.117074715837
     -0.996141384496
     -0.564467948965
     -0.578427220112
     -0.257661649546
     -0.214534373216
     -0.024614667200
      0.003339168529
      0.131708627010
      0.139274589203
      0.148654884363
      0.156540544336
      0.100779499785
      0.110481574205
      0.070745283424
      0.079743182596
      0.118576006069
      0.118958308171
      0.343706397004
      0.357038916982
      0.369697783699
      0.320576513787
     -1.739256677719
     -1.587372175016
     -1.168071013797
     -1.125176690715
     -0.566628275531
     -0.577310725637
     -0.215565547649
     -0.199396324045
      0.003334004936
      0.016897611419
      0.140018470931
      0.150995870211
      0.136010844559
      0.146833009830
      0.084206619675
      0.099836000568
      0.055567928278
      0.070362639589
      0.117996871811
      0.108415461315
      0.356058240883
      0.355082230225
      0.324532955307
      0.317480116614
     -1.759129617653
     -1.740107574692
     -1.167047840065
     -1.173474016869
     -0.553365710353
     -0.573581996165
     -0.200821139749
     -0.179845700866
      0.016825885760
      0.040018636064
      0.152774838630
      0.172612895195
      0.116799718885
      0.131506091907
      0.055394077241
      0.081802774634
      0.022659099548
      0.054741716440
      0.106234586434
      0.078354869127
      0.350782963025
      0.335071958274
      0.312500350138
      0.342712957664
     -1.669593343009
     -1.760141577048
     -1.114771899076
     -1.173220676334
     -0.510188123544
     -0.562393094128
     -0.181656894985
     -0.132700953513
      0.039571294133
      0.098345170465
      0.175902698344
      0.231738710483
      0.211919290829
      0.104360137182
      0.037306661410
      0.046992435150
     -0.032221100393
      0.019677295308
      0.071747503944
      0.016264488688
      0.323300481352
      0.289859999716
      0.324518435592
      0.384284399446
     -1.501348341854
     -1.670795428010
     -1.021133910778
     -1.124792763681
     -0.435136140875
     -0.527309851854
     -0.134444386132
     -0.052806294360
      0.096914633080
      0.217428231205
      0.236531935080
      0.449268500264
    -21.381821615840
     -0.330864020495
      0.176260611933
     -0.111977724383
     -0.382488363843
     -0.045705815889
     -0.005908465437
     -0.068231918996
      0.256623243724
      0.200355749619
      0.336268431628
      0.423748575060
     -1.285068190650
     -1.502052729737
     -0.893995689046
     -1.038920554045
     -0.334556182496
     -0.471578370027
     -0.054735602524
     -0.193191440619
      0.200237517028
      0.198096350324
     -0.682954220392
    -20.717761814495
********************
 -30136.309014679111
 -17657.989633232137
      0.639995290285
     -0.495297491803
     -0.375890646888
     -0.171854128892
     -0.178008997320
      0.093804657555
      0.072650902422
      0.225836592050
      0.426404410127
     -0.958253596229
     -1.282268004366
     -0.605492082575
     -0.973276501721
     -0.299221347874
     -0.413401618348
     -0.264056836017
     -2.152286224269
      0.024238267694
 -17515.073297981562
 -29910.516608691996
********************
********************
-762807.607703844435
 -30144.674122018878
    -67.898310839567
     -0.802001883681
     -0.628008391482
     -0.406372200065
     -0.267585724401
     -0.307730202271
     -0.216054751261
     -0.956895580311
     -0.559259653520
     -0.809267395152
     -0.498312158562
     -0.539116089556
      0.844384446210
    -99.009230507509
 -30488.720107059547
-758501.890862426255
********************
********************
********************
 -31569.225726450310
    -84.404860143897
     -1.057975513371
     -0.988808341032
     -0.721353402222
     -0.600275108997
     -0.681579704265
     -0.556145515496
     -0.813535894871
     -0.763667220303
     -0.756624943880
     -0.762576486343
     -0.794601496481
      0.877063245674
   -133.422758284450
 -31890.225004675412
********************
********************
VECTORS v float
    142.479158983332     21.719526103342     12.891112683975
    113.934660698969     35.912778728794      8.328850032965
    146.795171153581      3.052268274182     15.488748701938
    148.065563094305      3.689957389320     15.556919054522
    154.233138145097     -2.477620719045     15.442364194235
    155.686319710099      0.394902631710     15.302503879998
    150.969243461059      5.111978880774      1.459976947869
    153.192459634054     -3.820673863888      1.571643044856
    125.429063798416     23.942721971750    -17.681407789105
    131.816098969629      7.079325380534    -21.732202363862
     66.545899899658     72.349522428464      4.202377585724
     62.340599986009     80.783512825549     13.354438409842
    168.435766468301    -25.311653656743    140.291721358593
    141.583421197428     28.542391686930     81.852545285405
    210.438815989714    -40.313000972249     43.687110350895
    197.667914573580     -6.594574641365     35.587531315254
    201.231969108909    -10.158629176695     -2.115941234610
    201.336915892310    -10.580294502890     -2.121212425889
    190.648542110256      0.108079279219    -18.775964741804
    186.109810056149     -8.863691418721    -19.212796135255
    178.778590493390     -1.532468221513    -19.429075838166
    171.950357879071     -4.959988489265    -19.062644783033
    195.719342781749    -28.728973391942    -23.959898407434
    156.365329076363     -9.160878245145    -17.669952614490
    147.791041917121     12.831197543084     14.407016913901
    142.422958732065     16.731569525869     13.417577844680
    151.243395338865      7.911129361251     15.444490689361
    146.859938933242      8.695302508644     14.887673118574
    154.405711420095      1.149531036347     15.101948031483
    154.267172785668      1.061438653684     15.096977029017
    153.193056344595      2.135554950338      1.512029386345
    153.504422287958      1.314558599403      1.523364157304
    132.271781854875     22.547201887230    -19.116709831924
    130.231388134600     26.364795114839    -18.096103671029
     65.788569447306     90.807618134144     18.116196133869
     57.302533842400    103.434648861491     33.404066837020
    188.040192166348    -27.303009462457    155.929089683610
    174.619651302477     -7.333550040112    131.751575715148
    219.229804028012    -51.943705764455     47.245066486664
    210.573319510906    -35.747354292628     42.915097693436
    201.675826263562    -26.849859849009     -2.287457500213
    201.230414596848    -25.675417488449     -2.271242917481
    186.093701728971    -10.538706655756    -19.376265158784
    181.168458391505    -13.670514779817    -19.199539028361
    171.956117437762     -4.458175064706    -19.009193358293
    164.006716984501     -3.036079355364    -17.999373494517
    156.518707428604      4.451933220903    -16.233155499895
    150.707923970945      8.673966647669    -15.162181207603
    148.496917246762     11.059529396565     14.671465952773
    147.777851409987     11.660504107795     14.530580926035
    152.744288556681      6.694068162917     15.737369576636
    151.238165734366      7.455490735593     15.493023921130
    155.589693454654      3.103962664300     15.026027466357
    154.424646292755      3.118455760405     14.909794922700
    153.504695170310      4.038406957056      1.496102174212
    152.874612411948      5.287150574718      1.477295582926
    130.276189987803     27.885571176362    -17.838953521009
    126.863213514066     33.064362749235    -16.342061761074
     57.095331299982    102.832250591560     33.117913310693
     49.826445002063    112.127847716056     45.112150133874
    197.496878054458    -35.542585336339    168.742769851662
    188.960820042664    -24.626510381066    154.657672305385
    224.116401092836    -59.782094267271     49.462087413278
    219.217860447367    -52.349131160763     47.313619310602
    200.989084104161    -34.120356287658     -2.353357991273
    201.674961705600    -35.479678165753     -2.373830123384
    181.156050209410    -14.960765014457    -19.325458584655
    178.002526370801    -14.921535423109    -19.010842911375
    164.030663662464     -0.949671587767    -17.777136866088
    161.793065765364      0.181550696312    -17.414147723347
    150.736811330636     11.237802455565    -14.891574624621
    150.037153113569     11.822555820568    -14.754433195003
    149.247196777177     11.306253960717     14.725191098668
    148.507068946244     11.960528409695     14.576368226722
    153.604268359423      6.863330157511     15.811796581123
    152.752588737092      7.417239425828     15.660339982465
    156.361387795750      3.808441189150     15.032656019549
    155.598675454101      4.037947776693     14.934877177276
    152.874760152544      6.761863078250      1.462535734037
    152.838841953197      6.822676975010      1.461567481722
    126.855599699863     32.805919228034    -16.385762917778
    124.789835077633     35.622915016238    -15.535057185563
     49.431900659047    110.980832269557     44.567271072916
     45.442497773934    115.739340392670     50.901739525589
    201.390499304665    -40.208661138061    174.941250223077
    197.491564492183    -35.558041312478    168.750108060597
    225.786976480091    -63.853446855168     50.462434961811
    224.065612160820    -61.506097807829     49.753601629096
    200.454538072556    -37.895023719847     -2.385790428407
    200.988615356902    -38.799281767933     -2.400187629955
    177.994033118896    -15.804699529927    -19.097033338230
    176.830143383134    -15.454474355796    -18.947837529624
    161.786269328429     -0.410603727651    -17.477221867886
    160.690009171154      0.302374070197    -17.282270820201
    150.027489592156     10.964891220579    -14.844957832153
    149.003318126072     11.870259939799    -14.638949441027
    150.286951136585     12.341518596067     14.725729446545
    149.269154699808     13.255091355574     14.519496209572
    154.991973275751      7.532270478587     15.889224127382
    153.622808968146      8.478719281096     15.639730975929
    157.622397069286      4.479131179914     15.090826338680
    156.372435278909      4.957201836499     14.920545018290
    152.839009052896      8.490628062512      1.444873584553
    153.742900163509      7.033758160588      1.468503923921
    124.800249224436     35.976409099966    -15.475282865527
    124.955022927818     35.772016146635    -15.537867648533
     45.326108878494    115.400946205488     50.741002938950
     44.776936070917    116.043019875081     51.603433180881
    201.800522797362    -40.980566851365    175.796635208648
    201.318733214146    -40.417294589897    175.040361365791
    225.497637177226    -64.596203414186     50.541470048346
    225.755078928193    -64.936176286103     50.645518080533
    199.435364571906    -38.616461929538     -2.382810208976
    200.454301267325    -40.258759531641     -2.409448174056
    176.818902329400    -16.623360593716    -19.061912905098
    175.311847394760    -16.046959980823    -18.856607985436
    160.670406864120     -1.405519450029    -17.464189487116
    158.784827641208     -0.102095264658    -17.120541636635
    148.978908631407      9.703827687930    -14.867609883225
    147.117247537262     11.374854059263    -14.490554155872
    151.729381031337     15.217770429598     14.572668387877
    150.333264282330     16.451940274562     14.291884254351
    157.334009807737      9.451194749153     15.934837226012
    155.031187336196     10.948887428131     15.525298643443
    160.320525716646      5.659546638225     15.240372367366
    157.641501532409      6.465689718536     14.896952271743
    153.743233791579     10.363957459366      1.435173207534
    156.364327774189      5.926124922665      1.505830435482
    124.999762783260     37.290689913219    -15.281073434570
    127.478672026475     33.910306155869    -16.301915697061
     44.922579923659    116.466417061603     51.804572259725
     47.277509636188    113.657482457995     48.065301327799
    199.423701401610    -38.488709307428    172.270810370025
    201.716811607563    -41.223927176250    175.912243188579
    223.126957343975    -62.634077789022     49.786622625872
    225.461649489042    -65.817796100702     50.748029278549
    196.816846711374    -37.172993323376     -2.342151235779
    199.435065076468    -41.605957088083     -2.412730945339
    175.298171221314    -17.469063232929    -18.995395207511
    171.705071257528    -16.387868033052    -18.534775953822
    158.746638326806     -3.429429199367    -17.474956980702
    153.883395904940     -0.266507001900    -16.610135601306
    147.062929317417      6.553959585624    -14.999388054965
    141.743413035897     11.256422033057    -13.929537864467
    140.376186806390     33.198495265567     11.441260933909
    151.824170505566     23.630602325967     13.684714071612
    158.276849715610     17.177923115924     15.203851963734
    157.427620770269     17.607252585420     15.066083283740
    164.575351686629     10.459521669059     15.186653351878