# vtk DataFile Version 3.0
TriPan results file. Generated by TriPan, USU AeroLab (c) 2021.
ASCII
DATASET POLYDATA
POINTS                 309 float
  0.145119197349E-04  0.000000000000E+00  0.702222613473E-21
  0.420138497918E+00  0.000000000000E+00 -0.412059144854E+00
  0.420138497918E+00  0.000000000000E+00  0.412059144854E+00
  0.928185622804E+00  0.928162653334E+00  0.370492718948E-21
  0.134831331777E+01  0.928166164882E+00 -0.412060979457E+00
  0.134831331777E+01  0.928166164882E+00  0.412060979457E+00
  0.181353533969E+01  0.000000000000E+00 -0.806793832730E+00
  0.181353533969E+01  0.000000000000E+00  0.806793832730E+00
  0.226198092881E+01  0.226195057449E+01  0.000000000000E+00
  0.268210702775E+01  0.226195568206E+01 -0.412057187748E+00
  0.268210702775E+01  0.226195568206E+01  0.412057187748E+00
  0.274171014569E+01  0.928169171587E+00 -0.806795197448E+00
  0.274171014569E+01  0.928169171587E+00  0.806795197448E+00
  0.407550250541E+01  0.226195991982E+01 -0.806790662114E+00
  0.407550250541E+01  0.226195991982E+01  0.806790662114E+00
  0.413895454185E+01  0.413891468269E+01  0.321459894060E-20
  0.455907863241E+01  0.413892179865E+01 -0.412052224685E+00
  0.455907863241E+01  0.413892179865E+01  0.412052224685E+00
  0.479629669423E+01  0.000000000000E+00 -0.111703721841E+01
  0.479629669423E+01  0.000000000000E+00  0.111703721841E+01
  0.572447154981E+01  0.928172726805E+00 -0.111703822838E+01
  0.572447154981E+01  0.928172726805E+00  0.111703822838E+01
  0.595247250490E+01  0.413892764158E+01 -0.806784693282E+00
  0.595247250490E+01  0.413892764158E+01  0.806784693282E+00
  0.670397027304E+01  0.670391909310E+01  0.247656500064E-20
  0.705826345133E+01  0.226196417166E+01 -0.111703365070E+01
  0.705826345133E+01  0.226196417166E+01  0.111703365070E+01
  0.712409204420E+01  0.670392852846E+01 -0.412046181935E+00
  0.712409204420E+01  0.670392852846E+01  0.412046181935E+00
  0.851748444622E+01  0.670393631870E+01 -0.806777388893E+00
  0.851748444622E+01  0.670393631870E+01  0.806777388893E+00
  0.893523301137E+01  0.413893280970E+01 -0.111702761222E+01
  0.893523301137E+01  0.413893280970E+01  0.111702761222E+01
  0.939523493126E+01  0.000000000000E+00 -0.980728882398E+00
  0.939523493126E+01  0.000000000000E+00  0.980728882398E+00
  0.100722457449E+02  0.100721825083E+02  0.305997667590E-20
  0.103234084887E+02  0.928176637223E+00 -0.980721530569E+00
  0.103234084887E+02  0.928176637223E+00  0.980721530569E+00
  0.104923656357E+02  0.100721943008E+02 -0.412039541942E+00
  0.104923656357E+02  0.100721943008E+02  0.412039541942E+00
  0.115002433555E+02  0.670394260715E+01 -0.111702019620E+01
  0.115002433555E+02  0.670394260715E+01  0.111702019620E+01
  0.116572000425E+02  0.226196842976E+01 -0.980718679272E+00
  0.116572000425E+02  0.226196842976E+01  0.980718679272E+00
  0.118857549503E+02  0.100722042248E+02 -0.806769331235E+00
  0.118857549503E+02  0.100722042248E+02  0.806769331235E+00
  0.135341681758E+02  0.413893754088E+01 -0.980714688122E+00
  0.135341681758E+02  0.413893754088E+01  0.980714688122E+00
  0.139772048849E+02  0.000000000000E+00 -0.540117955762E+00
  0.139772048849E+02  0.000000000000E+00  0.540117955762E+00
  0.142710712716E+02  0.142709972098E+02  0.358380602499E-20
  0.146911892142E+02  0.142710109506E+02 -0.412033276042E+00
  0.146911892142E+02  0.142710109506E+02  0.412033276042E+00
  0.148685126249E+02  0.100722117480E+02 -0.111701198563E+01
  0.148685126249E+02  0.100722117480E+02  0.111701198563E+01
  0.149053790802E+02  0.928177214295E+00 -0.540120306661E+00
  0.149053790802E+02  0.928177214295E+00  0.540120306661E+00
  0.160845774727E+02  0.142710228843E+02 -0.806761707262E+00
  0.160845774727E+02  0.142710228843E+02  0.806761707262E+00
  0.160991788626E+02  0.670394794941E+01 -0.980709307171E+00
  0.160991788626E+02  0.670394794941E+01  0.980709307171E+00
  0.162391706293E+02  0.226196901156E+01 -0.540118505948E+00
  0.162391706293E+02  0.226196901156E+01  0.540118505948E+00
  0.169605804506E+02  0.000000000000E+00 -0.218323365097E+00
  0.169605804506E+02  0.000000000000E+00  0.218323365097E+00
  0.178887555873E+02  0.928176256456E+00 -0.218324870062E+00
  0.178887555873E+02  0.928176256456E+00  0.218324870062E+00
  0.181161386856E+02  0.413893819960E+01 -0.540115296205E+00
  0.181161386856E+02  0.413893819960E+01  0.540115296205E+00
  0.184032178921E+02  0.000000000000E+00 -0.636706128239E-01
  0.184032178921E+02  0.000000000000E+00  0.636706128239E-01
  0.190002907528E+02 -0.840944481527E-07 -0.788455474777E-06
  0.190673339798E+02  0.142710315750E+02 -0.111700419411E+01
  0.190673339798E+02  0.142710315750E+02  0.111700419411E+01
  0.191785074010E+02  0.191784261928E+02  0.261974574614E-20
  0.192225469940E+02  0.226196819618E+01 -0.218321837191E+00
  0.192225469940E+02  0.226196819618E+01  0.218321837191E+00
  0.193313927253E+02  0.928175608321E+00 -0.636692985335E-01
  0.193313927253E+02  0.928175608321E+00  0.636692985335E-01
  0.194674474091E+02  0.100722178131E+02 -0.980702613060E+00
  0.194674474091E+02  0.100722178131E+02  0.980702613060E+00
  0.195986242999E+02  0.191784409772E+02 -0.412028700899E+00
  0.195986242999E+02  0.191784409772E+02  0.412028700899E+00
  0.199284648759E+02  0.928183688477E+00 -0.100715878959E-05
  0.206651820729E+02  0.226196769971E+01 -0.636648302229E-01
  0.206651820729E+02  0.226196769971E+01  0.636648302229E-01
  0.206811482308E+02  0.670394879607E+01 -0.540110142948E+00
  0.206811482308E+02  0.670394879607E+01  0.540110142948E+00
  0.209920110930E+02  0.191784543764E+02 -0.806756130456E+00
  0.209920110930E+02  0.191784543764E+02  0.806756130456E+00
  0.210995148431E+02  0.413893759147E+01 -0.218316865234E+00
  0.210995148431E+02  0.413893759147E+01  0.218316865234E+00
  0.212622529717E+02  0.226197893907E+01 -0.139070631409E-05
  0.225421517127E+02  0.413893721166E+01 -0.636587391445E-01
  0.225421517127E+02  0.413893721166E+01  0.636587391445E-01
  0.231392185671E+02  0.413895249540E+01 -0.188590327224E-05
  0.236645241797E+02  0.670394839650E+01 -0.218310037539E+00
  0.236645241797E+02  0.670394839650E+01  0.218310037539E+00
  0.236662670754E+02  0.142710383750E+02 -0.980695478375E+00
  0.236662670754E+02  0.142710383750E+02  0.980695478375E+00
  0.239747667464E+02  0.191784639207E+02 -0.111699848317E+01
  0.239747667464E+02  0.191784639207E+02  0.111699848317E+01
  0.240494184145E+02  0.100722189299E+02 -0.540103376168E+00
  0.240494184145E+02  0.100722189299E+02  0.540103376168E+00
  0.245000413633E+02  0.244999586367E+02  0.000000000000E+00
  0.249201584372E+02  0.244999732461E+02 -0.412027011240E+00
  0.249201584372E+02  0.244999732461E+02  0.412027011240E+00
  0.251071609793E+02  0.670394808665E+01 -0.636512186147E-01
  0.251071609793E+02  0.670394808665E+01  0.636512186147E-01
  0.257042230406E+02  0.670396816347E+01 -0.247617573531E-05
  0.263135446900E+02  0.244999871856E+02 -0.806754065860E+00
  0.263135446900E+02  0.244999871856E+02  0.806754065860E+00
  0.270327922951E+02  0.100722186912E+02 -0.218302122370E+00
  0.270327922951E+02  0.100722186912E+02  0.218302122370E+00
  0.282482359082E+02  0.142710397571E+02 -0.540096384726E+00
  0.282482359082E+02  0.142710397571E+02  0.540096384726E+00
  0.284754290580E+02  0.100722184182E+02 -0.636429141243E-01
  0.284754290580E+02  0.100722184182E+02  0.636429141243E-01
  0.285736992607E+02  0.191784713021E+02 -0.980689568383E+00
  0.285736992607E+02  0.191784713021E+02  0.980689568383E+00
  0.290724860452E+02  0.100722435691E+02 -0.310492037916E-05
  0.292962981203E+02  0.244999970457E+02 -0.111699636567E+01
  0.292962981203E+02  0.244999970457E+02  0.111699636567E+01
  0.298215722923E+02  0.298214941139E+02 -0.252200432150E-20
  0.302416907090E+02  0.298215073806E+02 -0.412028695858E+00
  0.302416907090E+02  0.298215073806E+02  0.412028695858E+00
  0.312316115874E+02  0.142710396272E+02 -0.218294479658E+00
  0.312316115874E+02  0.142710396272E+02  0.218294479658E+00
  0.316350755952E+02  0.298215207793E+02 -0.806756113011E+00
  0.316350755952E+02  0.298215207793E+02  0.806756113011E+00
  0.326742502400E+02  0.142710393718E+02 -0.636350629714E-01
  0.326742502400E+02  0.142710393718E+02  0.636350629714E-01
  0.331556679204E+02  0.191784728572E+02 -0.540091052704E+00
  0.331556679204E+02  0.191784728572E+02  0.540091052704E+00
  0.332713008060E+02  0.142710690365E+02 -0.366946003233E-05
  0.338952322807E+02  0.245000046883E+02 -0.980686650712E+00
  0.338952322807E+02  0.245000046883E+02  0.980686650712E+00
  0.346178312461E+02  0.298215303261E+02 -0.111699846182E+01
  0.346178312461E+02  0.298215303261E+02  0.111699846182E+01
  0.347290001994E+02  0.347289313192E+02 -0.111102197025E-20
  0.351491207386E+02  0.347289424633E+02 -0.412033265542E+00
  0.351491207386E+02  0.347289424633E+02  0.412033265542E+00
  0.361390435369E+02  0.191784727900E+02 -0.218288838176E+00
  0.361390435369E+02  0.191784727900E+02  0.218288838176E+00
  0.365425070906E+02  0.347289543962E+02 -0.806761672327E+00
  0.365425070906E+02  0.347289543962E+02  0.806761672327E+00
  0.375816821825E+02  0.191784725416E+02 -0.636293256172E-01
  0.375816821825E+02  0.191784725416E+02  0.636293256172E-01
  0.381787298283E+02  0.191785051266E+02 -0.404213918334E-05
  0.384772009150E+02  0.245000062688E+02 -0.540089009297E+00
  0.384772009150E+02  0.245000062688E+02  0.540089009297E+00
  0.389278125514E+02  0.389277553808E+02 -0.922149802381E-21
  0.392167655509E+02  0.298215378243E+02 -0.980687720153E+00
  0.392167655509E+02  0.298215378243E+02  0.980687720153E+00
  0.393479354844E+02  0.389277641311E+02 -0.412039525323E+00
  0.393479354844E+02  0.389277641311E+02  0.412039525323E+00
  0.395252635926E+02  0.347289630920E+02 -0.111700415312E+01
  0.395252635926E+02  0.347289630920E+02  0.111700415312E+01
  0.407413276606E+02  0.389277740545E+02 -0.806769279584E+00
  0.407413276606E+02  0.389277740545E+02  0.806769279584E+00
  0.414605765133E+02  0.245000062199E+02 -0.218286729666E+00
[...]
POINT_DATA                 309
SCALARS phi float 1
LOOKUP_TABLE default
 -0.142642788918E-04
 -0.337170144914E+00
 -0.488767817371E+00
 -0.912346459227E+00
 -0.124950564806E+01
 -0.140110399547E+01
 -0.163417717711E+01
 -0.193099880751E+01
 -0.222338101403E+01
 -0.256053933156E+01
 -0.271213628399E+01
 -0.254651275308E+01
 -0.284333488556E+01
 -0.385754524616E+01
 -0.415436571007E+01
 -0.406832472771E+01
 -0.440548198410E+01
 -0.455707711061E+01
 -0.450896906076E+01
 -0.491993007078E+01
 -0.542130475072E+01
 -0.583226613231E+01
 -0.570248650592E+01
 -0.599930477389E+01
 -0.658956936102E+01
 -0.673233680120E+01
 -0.714329649865E+01
 -0.692672544915E+01
 -0.707831835252E+01
 -0.822372875769E+01
 -0.852054433835E+01
 -0.857727764182E+01
 -0.898823511770E+01
 -0.905450212500E+01
 -0.941531493000E+01
 -0.990036638795E+01
 -0.996683807718E+01
 -0.103276481774E+02
 -0.102375218493E+02
 -0.103891123098E+02
 -0.110985183442E+02
 -0.115094730917E+02
 -0.112778694682E+02
 -0.116386785195E+02
 -0.115345223839E+02
 -0.118313350001E+02
 -0.131228085299E+02
 -0.134836161128E+02
 -0.136393333362E+02
 -0.138380441911E+02
 -0.140275404231E+02
 -0.143646951221E+02
 -0.145162832774E+02
 -0.144093107848E+02
 -0.148202625117E+02
 -0.145516681305E+02
 -0.147503798503E+02
 -0.156616948684E+02
 -0.159585046798E+02
 -0.156440491947E+02
 -0.160048547979E+02
 -0.158626993237E+02
 -0.160614103811E+02
 -0.166309931892E+02
 -0.167113149449E+02
 -0.175433290643E+02
 -0.176236513738E+02
 -0.177076381659E+02
 -0.179063480424E+02
 -0.180774611091E+02
 -0.181008856995E+02
 -0.186760572800E+02
 -0.185364821527E+02
 -0.189474310130E+02
 -0.188512328684E+02
 -0.188543603442E+02
 -0.189346815379E+02
 -0.189897972046E+02
 -0.190132213115E+02
 -0.189548406459E+02
 -0.193156437864E+02
 -0.191883873831E+02
 -0.193399738551E+02
 -0.195883923955E+02
 -0.203008267246E+02
 -0.203242491876E+02
 -0.202288776668E+02
 -0.204275856473E+02
 -0.204853858732E+02
 -0.207821936329E+02
 -0.206992993070E+02
 -0.207796186714E+02
 -0.208994197926E+02
 -0.221457676533E+02
 -0.221691878754E+02
 -0.227443555344E+02
 -0.232205389107E+02
 -0.233008557633E+02
 -0.230820102331E+02
 -0.234428107486E+02
 -0.233601723431E+02
 -0.237711191023E+02
 -0.235396707406E+02
 -0.237383762317E+02
 -0.240819567116E+02
 -0.244191117091E+02
 -0.245706975595E+02
 -0.246670073157E+02
 -0.246904247710E+02
 -0.252655889935E+02
 -0.257161097372E+02
 -0.260129167373E+02
 -0.265313301628E+02
 -0.266116441033E+02
 -0.276668381658E+02
 -0.278655410847E+02
 -0.279777986033E+02
 -0.280012130033E+02
 -0.279056998887E+02
 -0.282664982299E+02
 -0.285763736503E+02
 -0.285908940316E+02
 -0.290018400118E+02
 -0.293126775733E+02
 -0.296498335808E+02
 -0.298014200510E+02
 -0.306584994758E+02
 -0.307388106046E+02
 -0.309468301990E+02
 -0.312436379522E+02
 -0.321049698120E+02
 -0.321283813236E+02
 -0.324905275450E+02
 -0.326892285022E+02
 -0.327035369994E+02
 -0.331364233424E+02
 -0.334972206102E+02
 -0.338216166670E+02
 -0.342325634184E+02
 -0.341363619366E+02
 -0.344735191898E+02
 -0.346251073411E+02
 -0.354821888502E+02
 -0.355624979034E+02
 -0.357705170667E+02
 -0.360673268652E+02
 -0.369286591973E+02
 -0.369520685981E+02
 -0.375272223903E+02
 -0.377212508130E+02
 -0.379199510184E+02
 -0.382635230218E+02
 -0.383671463086E+02
 -0.387279439699E+02
 -0.386006814765E+02
 -0.387522719308E+02
 -0.386453043470E+02
 -0.390562531922E+02
 -0.398976848303E+02
 -0.401944974275E+02
 -0.407129121123E+02
 -0.407932203898E+02
 -0.415743097088E+02
 -0.419114691589E+02
 -0.420630620537E+02
 -0.421593787121E+02
 -0.421827873325E+02
 -0.427579447348E+02
 -0.427724732245E+02
 -0.431834249306E+02
 -0.429519737524E+02
 -0.431506746511E+02
 -0.432084705999E+02
 -0.435052861566E+02
 -0.431908346612E+02
 -0.435516340692E+02
 -0.440955436383E+02
 -0.444327038374E+02
 -0.445842989530E+02
 -0.457297069587E+02
 -0.460265252000E+02
 -0.459404780736E+02
 -0.459436350496E+02
 -0.460239440780E+02
 -0.460832601765E+02
 -0.464942149002E+02
 -0.462776388040E+02
 -0.464292357440E+02
 -0.472515078701E+02
 -0.473901016428E+02
 -0.474135110391E+02
 -0.473180006473E+02
 -0.476788026253E+02
 -0.475886689634E+02
 -0.477402672983E+02
 -0.475746470636E+02
 -0.478714675017E+02
 -0.477756622561E+02
 -0.479743650419E+02
 -0.479886700863E+02
 -0.481638373258E+02
 -0.485009999100E+02
 -0.486525998903E+02
 -0.486044976128E+02
 -0.490154550655E+02
 -0.488096086180E+02
 -0.489168067087E+02
 -0.489818406170E+02
 -0.488856745423E+02
 -0.491824966532E+02
 -0.497980071071E+02
 -0.500948307789E+02
 -0.504022503330E+02
 -0.506121370330E+02
 -0.504494386042E+02
 -0.508603982823E+02
 -0.507394736984E+02
 -0.507673235481E+02
 -0.508476346192E+02
 -0.506287922527E+02
 -0.509895969455E+02
 -0.517604667608E+02
 -0.521714281284E+02
 -0.519028322830E+02
 -0.521015375432E+02
 -0.522137901247E+02
 -0.522372016261E+02
 -0.528123636284E+02
 -0.526728000896E+02
 -0.530837627896E+02
 -0.531500305488E+02
 -0.535108375690E+02
 -0.535093986568E+02
 -0.537999936092E+02
 -0.539762961255E+02
 -0.548944898012E+02
 -0.549748036321E+02
 -0.549949685467E+02
 -0.553557772994E+02
 -0.552136204938E+02
 -0.554123281593E+02
 -0.563409600972E+02
 -0.563643744785E+02
 -0.563060010653E+02
 -0.566668110180E+02
 -0.569395362724E+02
 -0.572183349318E+02
 -0.575791456197E+02
 -0.577348591281E+02
 -0.579335687071E+02
 -0.579528449315E+02
 -0.582079755158E+02
 -0.582052817076E+02
 -0.582855983652E+02
 -0.583627661733E+02
 -0.596517519532E+02
 -0.596751693752E+02
 -0.595797974071E+02
 -0.597785082815E+02
 -0.602503346494E+02
 -0.607265202659E+02
 -0.608068393269E+02
 -0.608908301511E+02
 -0.610895417879E+02
 -0.618031641089E+02
 -0.620018764347E+02
 -0.621729904354E+02
 -0.621964105978E+02
 -0.622076936102E+02
 -0.623482044147E+02
 -0.624334526555E+02
 -0.625714584610E+02
 -0.626517793020E+02
 -0.627715788982E+02
 -0.638824911238E+02
 -0.639628131619E+02
 -0.640179247896E+02
 -0.640413471446E+02
 -0.646165216306E+02
 -0.647948287674E+02
 -0.648751518492E+02
 -0.649583456020E+02
 -0.650151429067E+02
 -0.650496028334E+02
 -0.653289573690E+02
 -0.653523813007E+02
 -0.659275576534E+02
 -0.662412949311E+02
 -0.662647202787E+02
 -0.662889856202E+02
 -0.663055507065E+02
 -0.663156039081E+02
 -0.668398941295E+02
 -0.186760577045E+02
 -0.195883930511E+02
 -0.208994206978E+02
 -0.227443567619E+02
 -0.252655906052E+02
 -0.285763756713E+02
 -0.327035393878E+02
 -0.375272250213E+02
 -0.427579474173E+02
 -0.479886726144E+02
 -0.528123658409E+02
 -0.569395380874E+02
 -0.602503360625E+02
 -0.627715799566E+02
 -0.646165224042E+02
 -0.659275582144E+02
SCALARS phi_mu float 1
LOOKUP_TABLE default
 -0.142642788918E-04
 -0.337170144914E+00
 -0.488767817371E+00
 -0.912346459227E+00
 -0.124950564806E+01
 -0.140110399547E+01
 -0.163417717711E+01
 -0.193099880751E+01
 -0.222338101403E+01
 -0.256053933156E+01
 -0.271213628399E+01
 -0.254651275308E+01
 -0.284333488556E+01
 -0.385754524616E+01
 -0.415436571007E+01
 -0.406832472771E+01
 -0.440548198410E+01
 -0.455707711061E+01
 -0.450896906076E+01
 -0.491993007078E+01
 -0.542130475072E+01
 -0.583226613231E+01
 -0.570248650592E+01
 -0.599930477389E+01
 -0.658956936102E+01
 -0.673233680120E+01
 -0.714329649865E+01
 -0.692672544915E+01
 -0.707831835252E+01
 -0.822372875769E+01
 -0.852054433835E+01
 -0.857727764182E+01
 -0.898823511770E+01
 -0.905450212500E+01
 -0.941531493000E+01
 -0.990036638795E+01
 -0.996683807718E+01
 -0.103276481774E+02
 -0.102375218493E+02
 -0.103891123098E+02
 -0.110985183442E+02
 -0.115094730917E+02
 -0.112778694682E+02
 -0.116386785195E+02
 -0.115345223839E+02
 -0.118313350001E+02
 -0.131228085299E+02
 -0.134836161128E+02
 -0.136393333362E+02
 -0.138380441911E+02
 -0.140275404231E+02
 -0.143646951221E+02
 -0.145162832774E+02
 -0.144093107848E+02
 -0.148202625117E+02
 -0.145516681305E+02
 -0.147503798503E+02
 -0.156616948684E+02
 -0.159585046798E+02
 -0.156440491947E+02
 -0.160048547979E+02
 -0.158626993237E+02
 -0.160614103811E+02
 -0.166309931892E+02
 -0.167113149449E+02
 -0.175433290643E+02
 -0.176236513738E+02
 -0.177076381659E+02
 -0.179063480424E+02
 -0.180774611091E+02
 -0.181008856995E+02
 -0.186760572800E+02
 -0.185364821527E+02
 -0.189474310130E+02
 -0.188512328684E+02
 -0.188543603442E+02
 -0.189346815379E+02
 -0.189897972046E+02
 -0.190132213115E+02
 -0.189548406459E+02
 -0.193156437864E+02
 -0.191883873831E+02
 -0.193399738551E+02
 -0.195883923955E+02
 -0.203008267246E+02
 -0.203242491876E+02
 -0.202288776668E+02
 -0.204275856473E+02
 -0.204853858732E+02
 -0.207821936329E+02
 -0.206992993070E+02
 -0.207796186714E+02
 -0.208994197926E+02
 -0.221457676533E+02
 -0.221691878754E+02
 -0.227443555344E+02
 -0.232205389107E+02
 -0.233008557633E+02
 -0.230820102331E+02
 -0.234428107486E+02
 -0.233601723431E+02
 -0.237711191023E+02
 -0.235396707406E+02
 -0.237383762317E+02
 -0.240819567116E+02
 -0.244191117091E+02
 -0.245706975595E+02
 -0.246670073157E+02
 -0.246904247710E+02
 -0.252655889935E+02
 -0.257161097372E+02
 -0.260129167373E+02
 -0.265313301628E+02
 -0.266116441033E+02
 -0.276668381658E+02
 -0.278655410847E+02
 -0.279777986033E+02
 -0.280012130033E+02
 -0.279056998887E+02
 -0.282664982299E+02
 -0.285763736503E+02
 -0.285908940316E+02
 -0.290018400118E+02
 -0.293126775733E+02
 -0.296498335808E+02
 -0.298014200510E+02
 -0.306584994758E+02
 -0.307388106046E+02
 -0.309468301990E+02
 -0.312436379522E+02
 -0.321049698120E+02
 -0.321283813236E+02
 -0.324905275450E+02
 -0.326892285022E+02
 -0.327035369994E+02
 -0.331364233424E+02
 -0.334972206102E+02
 -0.338216166670E+02
 -0.342325634184E+02
 -0.341363619366E+02
 -0.344735191898E+02
 -0.346251073411E+02
 -0.354821888502E+02
 -0.355624979034E+02
 -0.357705170667E+02
 -0.360673268652E+02
 -0.369286591973E+02
 -0.369520685981E+02
 -0.375272223903E+02
 -0.377212508130E+02
 -0.379199510184E+02
 -0.382635230218E+02
 -0.383671463086E+02
 -0.387279439699E+02
 -0.386006814765E+02
 -0.387522719308E+02
 -0.386453043470E+02
 -0.390562531922E+02
 -0.398976848303E+02
 -0.401944974275E+02
 -0.407129121123E+02
 -0.407932203898E+02
 -0.415743097088E+02
 -0.419114691589E+02
 -0.420630620537E+02
 -0.421593787121E+02
 -0.421827873325E+02
 -0.427579447348E+02
 -0.427724732245E+02
 -0.431834249306E+02
 -0.429519737524E+02
 -0.431506746511E+02
 -0.432084705999E+02
 -0.435052861566E+02
 -0.431908346612E+02
 -0.435516340692E+02
 -0.440955436383E+02
 -0.444327038374E+02
 -0.445842989530E+02
 -0.457297069587E+02
 -0.460265252000E+02
 -0.459404780736E+02
 -0.459436350496E+02
 -0.460239440780E+02
 -0.460832601765E+02
 -0.464942149002E+02
 -0.462776388040E+02
 -0.464292357440E+02
 -0.472515078701E+02
 -0.473901016428E+02
 -0.474135110391E+02
 -0.473180006473E+02
 -0.476788026253E+02
 -0.475886689634E+02
 -0.477402672983E+02
 -0.475746470636E+02
 -0.478714675017E+02
 -0.477756622561E+02
 -0.479743650419E+02
 -0.479886700863E+02
 -0.481638373258E+02
 -0.485009999100E+02
 -0.486525998903E+02
 -0.486044976128E+02
 -0.490154550655E+02
 -0.488096086180E+02
 -0.489168067087E+02
 -0.489818406170E+02
 -0.488856745423E+02
 -0.491824966532E+02
 -0.497980071071E+02
 -0.500948307789E+02
 -0.504022503330E+02
 -0.506121370330E+02
 -0.504494386042E+02
 -0.508603982823E+02
 -0.507394736984E+02
 -0.507673235481E+02
 -0.508476346192E+02
 -0.506287922527E+02
 -0.509895969455E+02
 -0.517604667608E+02
 -0.521714281284E+02
 -0.519028322830E+02
 -0.521015375432E+02
 -0.522137901247E+02
 -0.522372016261E+02
 -0.528123636284E+02
 -0.526728000896E+02
 -0.530837627896E+02
 -0.531500305488E+02
 -0.535108375690E+02
 -0.535093986568E+02
 -0.537999936092E+02
 -0.539762961255E+02
 -0.548944898012E+02
 -0.549748036321E+02
 -0.549949685467E+02
 -0.553557772994E+02
 -0.552136204938E+02
 -0.554123281593E+02
 -0.563409600972E+02
 -0.563643744785E+02
 -0.563060010653E+02
 -0.566668110180E+02
 -0.569395362724E+02
 -0.572183349318E+02
 -0.575791456197E+02
 -0.577348591281E+02
 -0.579335687071E+02
 -0.579528449315E+02
 -0.582079755158E+02
 -0.582052817076E+02
 -0.582855983652E+02
 -0.583627661733E+02
 -0.596517519532E+02
 -0.596751693752E+02
 -0.595797974071E+02
 -0.597785082815E+02
 -0.602503346494E+02
 -0.607265202659E+02
 -0.608068393269E+02
 -0.608908301511E+02
 -0.610895417879E+02
 -0.618031641089E+02
 -0.620018764347E+02
 -0.621729904354E+02
 -0.621964105978E+02
 -0.622076936102E+02
 -0.623482044147E+02
 -0.624334526555E+02
 -0.625714584610E+02
 -0.626517793020E+02
 -0.627715788982E+02
 -0.638824911238E+02
 -0.639628131619E+02
 -0.640179247896E+02
 -0.640413471446E+02
 -0.646165216306E+02
 -0.647948287674E+02
 -0.648751518492E+02
 -0.649583456020E+02
 -0.650151429067E+02
 -0.650496028334E+02
 -0.653289573690E+02
 -0.653523813007E+02
 -0.659275576534E+02
 -0.662412949311E+02
 -0.662647202787E+02
 -0.662889856202E+02
 -0.663055507065E+02
 -0.663156039081E+02
 -0.668398941295E+02
 -0.186760577045E+02
 -0.195883930511E+02
 -0.208994206978E+02
 -0.227443567619E+02
 -0.252655906052E+02
 -0.285763756713E+02
 -0.327035393878E+02
 -0.375272250213E+02
 -0.427579474173E+02
 -0.479886726144E+02
 -0.528123658409E+02
 -0.569395380874E+02
 -0.602503360625E+02
 -0.627715799566E+02
 -0.646165224042E+02
 -0.659275582144E+02
SCALARS phi_sigma float 1
LOOKUP_TABLE default
  0.000000000000E+00
  0.000000000000E+00
  0.000000000000E+00
  0.000000000000E+00
  0.000000000000E+00
  0.000000000000E+00
  0.000000000000E+00
  0.000000000000E+00
  0.000000000000E+00
  0.000000000000E+00
  0.000000000000E+00
  0.000000000000E+00
  0.000000000000E+00
  0.000000000000E+00
  0.000000000000E+00
  0.000000000000E+00
  0.000000000000E+00
  0.000000000000E+00
  0.000000000000E+00
  0.000000000000E+00
  0.000000000000E+00
  0.000000000000E+00
  0.000000000000E+00
  0.000000000000E+00
  0.000000000000E+00
  0.000000000000E+00
  0.000000000000E+00
  0.000000000000E+00
  0.000000000000E+00
  0.000000000000E+00
  0.000000000000E+00
  0.000000000000E+00
  0.000000000000E+00
  0.000000000000E+00
  0.000000000000E+00
  0.000000000000E+00
  0.000000000000E+00
  0.000000000000E+00
  0.000000000000E+00
  0.000000000000E+00
  0.000000000000E+00
  0.000000000000E+00
  0.000000000000E+00
  0.000000000000E+00
  0.000000000000E+00
  0.000000000000E+00
  0.000000000000E+00
  0.000000000000E+00
  0.000000000000E+00
  0.000000000000E+00
  0.000000000000E+00
  0.000000000000E+00
  0.000000000000E+00
  0.000000000000E+00
  0.000000000000E+00
  0.000000000000E+00
  0.000000000000E+00
  0.000000000000E+00
  0.000000000000E+00
  0.000000000000E+00
  0.000000000000E+00
  0.000000000000E+00
  0.000000000000E+00
  0.000000000000E+00
  0.000000000000E+00
  0.000000000000E+00
  0.000000000000E+00
  0.000000000000E+00
  0.000000000000E+00
  0.000000000000E+00
  0.000000000000E+00
  0.000000000000E+00
  0.000000000000E+00
  0.000000000000E+00
  0.000000000000E+00
  0.000000000000E+00
  0.000000000000E+00
  0.000000000000E+00
  0.000000000000E+00
  0.000000000000E+00
  0.000000000000E+00
  0.000000000000E+00
  0.000000000000E+00
  0.000000000000E+00
  0.000000000000E+00
  0.000000000000E+00
  0.000000000000E+00
  0.000000000000E+00
  0.000000000000E+00
  0.000000000000E+00
  0.000000000000E+00
  0.000000000000E+00
  0.000000000000E+00
  0.000000000000E+00
  0.000000000000E+00
  0.000000000000E+00
  0.000000000000E+00
  0.000000000000E+00
  0.000000000000E+00
  0.000000000000E+00
  0.000000000000E+00
  0.000000000000E+00
  0.000000000000E+00
  0.000000000000E+00
  0.000000000000E+00
  0.000000000000E+00
  0.000000000000E+00
  0.000000000000E+00
  0.000000000000E+00
  0.000000000000E+00
  0.000000000000E+00
  0.000000000000E+00
  0.000000000000E+00
  0.000000000000E+00
  0.000000000000E+00
  0.000000000000E+00
  0.000000000000E+00
  0.000000000000E+00
  0.000000000000E+00
  0.000000000000E+00
  0.000000000000E+00
  0.000000000000E+00
  0.000000000000E+00
  0.000000000000E+00
  0.000000000000E+00
  0.000000000000E+00
  0.000000000000E+00
  0.000000000000E+00
  0.000000000000E+00
  0.000000000000E+00
  0.000000000000E+00
  0.000000000000E+00
  0.000000000000E+00
  0.000000000000E+00
  0.000000000000E+00
  0.000000000000E+00
  0.000000000000E+00
  0.000000000000E+00
  0.000000000000E+00
  0.000000000000E+00
  0.000000000000E+00
  0.000000000000E+00
  0.000000000000E+00
  0.000000000000E+00
  0.000000000000E+00
  0.000000000000E+00
  0.000000000000E+00
  0.000000000000E+00
  0.000000000000E+00
  0.000000000000E+00
  0.000000000000E+00
  0.000000000000E+00
  0.000000000000E+00
  0.000000000000E+00
  0.000000000000E+00
  0.000000000000E+00
  0.000000000000E+00
  0.000000000000E+00
  0.000000000000E+00
  0.000000000000E+00
  0.000000000000E+00
  0.000000000000E+00
  0.000000000000E+00
  0.000000000000E+00
  0.000000000000E+00
  0.000000000000E+00
  0.000000000000E+00
  0.000000000000E+00
  0.000000000000E+00
  0.000000000000E+00
  0.000000000000E+00
  0.000000000000E+00
  0.000000000000E+00
  0.000000000000E+00
  0.000000000000E+00
  0.000000000000E+00
  0.000000000000E+00
  0.000000000000E+00
  0.000000000000E+00
  0.000000000000E+00
  0.000000000000E+00
  0.000000000000E+00
  0.000000000000E+00
  0.000000000000E+00
  0.000000000000E+00
  0.000000000000E+00
  0.000000000000E+00
  0.000000000000E+00
  0.000000000000E+00
  0.000000000000E+00
  0.000000000000E+00
  0.000000000000E+00
  0.000000000000E+00
  0.000000000000E+00
  0.000000000000E+00
  0.000000000000E+00
  0.000000000000E+00
  0.000000000000E+00
  0.000000000000E+00
  0.000000000000E+00
  0.000000000000E+00
  0.000000000000E+00
  0.000000000000E+00
  0.000000000000E+00
  0.000000000000E+00
  0.000000000000E+00
  0.000000000000E+00
  0.000000000000E+00
  0.000000000000E+00
  0.000000000000E+00
  0.000000000000E+00
  0.000000000000E+00
  0.000000000000E+00
  0.000000000000E+00
  0.000000000000E+00
  0.000000000000E+00
  0.000000000000E+00
  0.000000000000E+00
  0.000000000000E+00
  0.000000000000E+00
  0.000000000000E+00
  0.000000000000E+00
  0.000000000000E+00
  0.000000000000E+00
  0.000000000000E+00
  0.000000000000E+00
  0.000000000000E+00
  0.000000000000E+00
  0.000000000000E+00
  0.000000000000E+00
  0.000000000000E+00
  0.000000000000E+00
  0.000000000000E+00
  0.000000000000E+00
  0.000000000000E+00
  0.000000000000E+00
  0.000000000000E+00
  0.000000000000E+00
  0.000000000000E+00
  0.000000000000E+00
  0.000000000000E+00
  0.000000000000E+00
  0.000000000000E+00
  0.000000000000E+00
  0.000000000000E+00
  0.000000000000E+00
  0.000000000000E+00
  0.000000000000E+00
  0.000000000000E+00
  0.000000000000E+00
  0.000000000000E+00
  0.000000000000E+00
  0.000000000000E+00
  0.000000000000E+00
  0.000000000000E+00
  0.000000000000E+00
  0.000000000000E+00
  0.000000000000E+00
  0.000000000000E+00
  0.000000000000E+00
  0.000000000000E+00
  0.000000000000E+00
  0.000000000000E+00
  0.000000000000E+00
  0.000000000000E+00
  0.000000000000E+00
  0.000000000000E+00
  0.000000000000E+00
  0.000000000000E+00
  0.000000000000E+00
  0.000000000000E+00
  0.000000000000E+00
  0.000000000000E+00
  0.000000000000E+00
  0.000000000000E+00
  0.000000000000E+00
  0.000000000000E+00
  0.000000000000E+00
  0.000000000000E+00
  0.000000000000E+00
  0.000000000000E+00
  0.000000000000E+00
  0.000000000000E+00
  0.000000000000E+00
  0.000000000000E+00
  0.000000000000E+00
  0.000000000000E+00
  0.000000000000E+00
  0.000000000000E+00
  0.000000000000E+00
  0.000000000000E+00
  0.000000000000E+00
  0.000000000000E+00
  0.000000000000E+00
  0.000000000000E+00
  0.000000000000E+00
  0.000000000000E+00
  0.000000000000E+00
  0.000000000000E+00
  0.000000000000E+00
  0.000000000000E+00
  0.000000000000E+00
  0.000000000000E+00
  0.000000000000E+00
  0.000000000000E+00
  0.000000000000E+00
  0.000000000000E+00
  0.000000000000E+00
  0.000000000000E+00
