# vtk DataFile Version 3.0
MachLine results file. Generated by MachLine, USU AeroLab (c) 2022.
ASCII
DATASET POLYDATA
POINTS                 302 float
  0.000000000000E+00  0.000000000000E+00  0.000000000000E+00
  0.993960955455E+04  0.000000000000E+00  0.109734311091E+04
  0.473465979099E+00  0.000000000000E+00 -0.436293870211E+00
  0.993966284313E+04  0.000000000000E+00  0.109686042902E+04
  0.473465979099E+00  0.000000000000E+00  0.436293870211E+00
  0.993956766857E+04  0.000000000000E+00  0.109772250939E+04
  0.757896304131E+00  0.757896304131E+00  0.000000000000E+00
  0.993961868085E+04  0.757896304131E+00  0.109726044593E+04
  0.123136246204E+01  0.757896304131E+00 -0.436293989420E+00
  0.993967196944E+04  0.757896304131E+00  0.109677776391E+04
  0.123136246204E+01  0.757896304131E+00  0.436293989420E+00
  0.993957679486E+04  0.757896304131E+00  0.109763984451E+04
  0.157641971111E+01  0.000000000000E+00 -0.760520398617E+00
  0.993971148839E+04  0.000000000000E+00  0.109641980576E+04
  0.157641971111E+01  0.000000000000E+00  0.760520398617E+00
  0.993954558600E+04  0.000000000000E+00  0.109792253076E+04
  0.233431649208E+01  0.757896304131E+00  0.760520577431E+00
  0.993955471229E+04  0.757896304131E+00  0.109783986591E+04
  0.317279767990E+01  0.317279767990E+01  0.000000000000E+00
  0.993964776017E+04  0.317279767990E+01  0.109699704873E+04
  0.364626431465E+01  0.317279767990E+01 -0.436294317245E+00
  0.993970104881E+04  0.317279767990E+01  0.109651436632E+04
  0.364626431465E+01  0.317279767990E+01  0.436294317245E+00
  0.993960587415E+04  0.317279767990E+01  0.109737644758E+04
  0.547008323669E+01  0.499661636353E+01  0.436294585466E+00
  0.993962783585E+04  0.499661636353E+01  0.109717752096E+04
  0.659744548798E+01  0.317279767990E+01  0.102349019051E+01
  0.993957736474E+04  0.317279767990E+01  0.109763468255E+04
  0.687097454071E+01  0.757896304131E+00 -0.114008152485E+01
  0.993981664275E+04  0.757896304131E+00  0.109546732948E+04
  0.687097454071E+01  0.757896304131E+00  0.114008152485E+01
  0.993956794167E+04  0.757896304131E+00  0.109772003568E+04
  0.781709194183E+01  0.734362459183E+01 -0.436294913292E+00
  0.993975127239E+04  0.734362459183E+01  0.109605944681E+04
  0.781709194183E+01  0.734362459183E+01  0.436294913292E+00
  0.993965609760E+04  0.734362459183E+01  0.109692152924E+04
  0.790205335617E+01  0.178897356987E+01 -0.114008200169E+01
  0.993982905866E+04  0.178897356987E+01  0.109535486758E+04
  0.790205335617E+01  0.178897356987E+01  0.114008200169E+01
  0.993958035748E+04  0.178897356987E+01  0.109760757471E+04
  0.842126560211E+01  0.499661636353E+01 -0.102349078655E+01
  0.993982259402E+04  0.499661636353E+01  0.109541342352E+04
  0.842126560211E+01  0.499661636353E+01  0.102349078655E+01
  0.993959932643E+04  0.499661636353E+01  0.109743575612E+04
  0.118492631912E+02  0.102728376389E+02  0.760522902012E+00
  0.993966928740E+04  0.102728376389E+02  0.109680205755E+04
  0.125678949356E+02  0.317279767990E+01 -0.980746865273E+00
  0.993986786400E+04  0.317279767990E+01  0.109500337316E+04
  0.134249305725E+02  0.757896304131E+00  0.678052842617E+00
  0.993969725613E+04  0.757896304131E+00  0.109654871996E+04
  0.134567155838E+02  0.734362459183E+01 -0.114008402824E+01
  0.993989594601E+04  0.734362459183E+01  0.109474900956E+04
  0.142655897141E+02  0.137921218872E+02 -0.436295837164E+00
  0.993982892284E+04  0.137921218872E+02  0.109535609779E+04
  0.142655897141E+02  0.137921218872E+02  0.436295837164E+00
  0.993973374785E+04  0.137921218872E+02  0.109621818205E+04
  0.158398418427E+02  0.317279767990E+01 -0.678053379059E+00
  0.993987424827E+04  0.317279767990E+01  0.109494554517E+04
  0.167387351990E+02  0.734362459183E+01 -0.980748176575E+00
  0.993991808782E+04  0.734362459183E+01  0.109454845155E+04
  0.167387351990E+02  0.734362459183E+01  0.980748176575E+00
  0.993970414423E+04  0.734362459183E+01  0.109648632831E+04
  0.171327381134E+02  0.178897356987E+01 -0.393031388521E+00
  0.993985872903E+04  0.178897356987E+01  0.109508611674E+04
  0.172004318237E+02  0.000000000000E+00 -0.192506864667E+00
  0.993983767263E+04  0.000000000000E+00  0.109527684316E+04
  0.172004318237E+02  0.000000000000E+00  0.192506864667E+00
  0.993979567856E+04  0.000000000000E+00  0.109565722071E+04
  0.172167816162E+02  0.137921218872E+02 -0.102349364758E+01
  0.993992850659E+04  0.137921218872E+02  0.109445407951E+04
  0.172167816162E+02  0.137921218872E+02  0.102349364758E+01
  0.993970523837E+04  0.137921218872E+02  0.109647641776E+04
  0.176636676788E+02  0.499661636353E+01 -0.678053736687E+00
  0.993989621013E+04  0.499661636353E+01  0.109474661718E+04
  0.176636676788E+02  0.499661636353E+01  0.678053736687E+00
  0.993974829729E+04  0.499661636353E+01  0.109608639492E+04
  0.190000000000E+02  0.000000000000E+00  0.000000000000E+00
  0.993983834531E+04  0.000000000000E+00  0.109527075012E+04
  0.197579002380E+02  0.757896304131E+00  0.000000000000E+00
  0.993984747166E+04  0.757896304131E+00  0.109518808471E+04
  0.199052257538E+02  0.137921218872E+02 -0.114008641243E+01
  0.993997359677E+04  0.137921218872E+02  0.109404565775E+04
  0.201340255737E+02  0.178897356987E+01  0.698661133647E-01
  0.993984438041E+04  0.178897356987E+01  0.109521608492E+04
  0.203403968811E+02  0.499661636353E+01 -0.393031775951E+00
  0.993989735447E+04  0.499661636353E+01  0.109473625182E+04
  0.207889842987E+02  0.178897356987E+01  0.000000000000E+00
  0.993985988758E+04  0.178897356987E+01  0.109507562270E+04
  0.212566699982E+02  0.178320064545E+02 -0.102349495888E+01
  0.993997715353E+04  0.178320064545E+02  0.109401344104E+04
  0.212566699982E+02  0.178320064545E+02  0.102349495888E+01
  0.993975388502E+04  0.178320064545E+02  0.109603578189E+04
  0.221728172302E+02  0.317279767990E+01  0.000000000000E+00
  0.993987655117E+04  0.317279767990E+01  0.109492468580E+04
  0.227074012756E+02  0.222339305878E+02 -0.436297029257E+00
  0.993993057605E+04  0.222339305878E+02  0.109443533454E+04
  0.233416862488E+02  0.499661636353E+01 -0.698661878705E-01
  0.993989824666E+04  0.499661636353E+01  0.109472817048E+04
  0.233416862488E+02  0.499661636353E+01  0.698661878705E-01
  0.993988300583E+04  0.499661636353E+01  0.109486622025E+04
  0.238103618622E+02  0.222339305878E+02 -0.760525882244E+00
  0.993997922165E+04  0.222339305878E+02  0.109399470823E+04
  0.239451179504E+02  0.178320064545E+02 -0.114008784294E+01
  0.994002224377E+04  0.178320064545E+02  0.109360501875E+04
  0.239451179504E+02  0.178320064545E+02  0.114008784294E+01
  0.993977354131E+04  0.178320064545E+02  0.109585773743E+04
  0.239966468811E+02  0.499661636353E+01  0.000000000000E+00
  0.993989851303E+04  0.499661636353E+01  0.109472575774E+04
  0.245440979004E+02  0.734362459183E+01 -0.192507326603E+00
  0.993992610231E+04  0.734362459183E+01  0.109447585715E+04
  0.245440979004E+02  0.734362459183E+01  0.192507326603E+00
  0.993988410814E+04  0.734362459183E+01  0.109485623560E+04
  0.256166458130E+02  0.102728376389E+02 -0.393032461405E+00
  0.993996088913E+04  0.102728376389E+02  0.109416076212E+04
  0.263436698914E+02  0.734362459183E+01  0.000000000000E+00
  0.993992677499E+04  0.734362459183E+01  0.109446976414E+04
  0.283470516205E+02  0.222339305878E+02  0.114008951187E+01
  0.993982654754E+04  0.222339305878E+02  0.109537761304E+04
  0.286179389954E+02  0.102728376389E+02 -0.698663070798E-01
  0.993996178130E+04  0.102728376389E+02  0.109415268092E+04
  0.292729015350E+02  0.102728376389E+02  0.000000000000E+00
  0.993996204768E+04  0.102728376389E+02  0.109415026810E+04
  0.301907424927E+02  0.267660694122E+02 -0.102349793911E+01
  0.994008473455E+04  0.267660694122E+02  0.109303898433E+04
  0.301907424927E+02  0.267660694122E+02  0.102349793911E+01
  0.993986146539E+04  0.267660694122E+02  0.109506133106E+04
  0.311679935455E+02  0.311679935455E+02  0.000000000000E+00
  0.993998486766E+04  0.311679935455E+02  0.109394356734E+04
  0.316290874481E+02  0.222339305878E+02 -0.980752885342E+00
  0.994009739228E+04  0.222339305878E+02  0.109292433205E+04
  0.327922058105E+02  0.137921218872E+02  0.000000000000E+00
  0.994000442580E+04  0.137921218872E+02  0.109376641188E+04
  0.328791961670E+02  0.267660694122E+02 -0.114009118080E+01
  0.994012982490E+04  0.267660694122E+02  0.109263056106E+04
  0.349010543823E+02  0.222339305878E+02 -0.678057551384E+00
  0.994010377659E+04  0.222339305878E+02  0.109286650370E+04
  0.349010543823E+02  0.222339305878E+02  0.678057551384E+00
  0.993995586292E+04  0.222339305878E+02  0.109420628899E+04
  0.350325355530E+02  0.178320064545E+02 -0.192507982254E+00
  0.994005240016E+04  0.178320064545E+02  0.109333186561E+04
  0.352078781128E+02  0.352078781128E+02  0.000000000000E+00
  0.994003351441E+04  0.352078781128E+02  0.109350293058E+04
  0.356813507080E+02  0.352078781128E+02 -0.436298847198E+00
  0.994008680361E+04  0.352078781128E+02  0.109302024306E+04
  0.356813507080E+02  0.352078781128E+02  0.436298847198E+00
  0.993999162796E+04  0.352078781128E+02  0.109388233326E+04
  0.361612358093E+02  0.267660694122E+02 -0.980754315853E+00
  0.994015196684E+04  0.267660694122E+02  0.109243000187E+04
  0.361612358093E+02  0.267660694122E+02  0.980754315853E+00
  0.993993802191E+04  0.267660694122E+02  0.109436789076E+04
  0.361771507263E+02  0.178320064545E+02 -0.698664784431E-01
  0.994005280647E+04  0.178320064545E+02  0.109332818528E+04
  0.368321151733E+02  0.178320064545E+02  0.000000000000E+00
  0.994005307285E+04  0.178320064545E+02  0.109332577241E+04
  0.403036003113E+02  0.387271614075E+02  0.760529935360E+00
  0.994001192292E+04  0.387271614075E+02  0.109369850383E+04
  0.405631752014E+02  0.311679935455E+02 -0.980755746365E+00
  0.994020497347E+04  0.311679935455E+02  0.109194987379E+04
  0.412340698242E+02  0.222339305878E+02  0.000000000000E+00
  0.994010607951E+04  0.222339305878E+02  0.109284564409E+04
  0.413210258484E+02  0.352078781128E+02 -0.114009428024E+01
  0.994023147853E+04  0.352078781128E+02  0.109170979395E+04
  0.413210258484E+02  0.352078781128E+02  0.114009428024E+01
  0.993998277467E+04  0.352078781128E+02  0.109396252535E+04
  0.421298484802E+02  0.416563758850E+02  0.436299771070E+00
  0.994006927821E+04  0.416563758850E+02  0.109317898607E+04
  0.421518478394E+02  0.387271614075E+02 -0.102350187302E+01
  0.994022876605E+04  0.387271614075E+02  0.109173436330E+04
  0.444768562317E+02  0.440033836365E+02 -0.436300098896E+00
  0.994019271587E+04  0.440033836365E+02  0.109206090178E+04
  0.450810661316E+02  0.416563758850E+02 -0.102350282669E+01
  0.994026403869E+04  0.416563758850E+02  0.109141486777E+04
  0.450810661316E+02  0.416563758850E+02  0.102350282669E+01
  0.994004076846E+04  0.416563758850E+02  0.109343722416E+04
  0.451112670898E+02  0.267660694122E+02 -0.698666796088E-01
  0.994016038772E+04  0.267660694122E+02  0.109235372653E+04
  0.455798263550E+02  0.440033836365E+02 -0.760531246662E+00
  0.994024136183E+04  0.440033836365E+02  0.109162027216E+04
  0.455798263550E+02  0.440033836365E+02  0.760531246662E+00
  0.994007545708E+04  0.440033836365E+02  0.109312301860E+04
  0.457662315369E+02  0.267660694122E+02  0.000000000000E+00
  0.994016065408E+04  0.267660694122E+02  0.109235131386E+04
  0.463006744385E+02  0.458272018433E+02 -0.436300337315E+00
  0.994021467762E+04  0.458272018433E+02  0.109186197474E+04
  0.463006744385E+02  0.458272018433E+02  0.436300337315E+00
  0.994011950165E+04  0.458272018433E+02  0.109272406788E+04
  0.487155761719E+02  0.482421035767E+02 -0.436300694942E+00
  0.994024375698E+04  0.482421035767E+02  0.109159857714E+04
  0.487155761719E+02  0.482421035767E+02  0.436300694942E+00
  0.994014858094E+04  0.482421035767E+02  0.109246067099E+04
  0.492518959045E+02  0.458272018433E+02  0.102350425720E+01
  0.994009099185E+04  0.458272018433E+02  0.109298230641E+04
  0.494734725952E+02  0.490000000000E+02 -0.436300784349E+00
  0.994025288329E+04  0.490000000000E+02  0.109151591206E+04
  0.496433029175E+02  0.491698265076E+02  0.402014136314E+00
  0.994016349196E+04  0.491698265076E+02  0.109232560864E+04
  0.497819862366E+02  0.493085098267E+02 -0.308511257172E+00
  0.994024266009E+04  0.493085098267E+02  0.109160851271E+04
  0.501681861877E+02  0.311679935455E+02  0.000000000000E+00
  0.994021366074E+04  0.311679935455E+02  0.109187118554E+04
  0.505764465332E+02  0.490000000000E+02  0.760532438755E+00
  0.994013562435E+04  0.490000000000E+02  0.109257803031E+04
  0.508724784851E+02  0.492960319519E+02 -0.700766086578E+00
  0.994029857525E+04  0.492960319519E+02  0.109110203950E+04
  0.508724784851E+02  0.492960319519E+02  0.700766086578E+00
  0.994014570786E+04  0.492960319519E+02  0.109248669496E+04
  0.510515899658E+02  0.416563758850E+02  0.980759024620E+00
  0.994011732537E+04  0.416563758850E+02  0.109274378035E+04
  0.511142234802E+02  0.495377769470E+02 -0.537777721882E+00
  0.994028370885E+04  0.495377769470E+02  0.109123669771E+04
  0.512772102356E+02  0.497007675171E+02  0.296033591032E+00
  0.994019472632E+04  0.497007675171E+02  0.109204269135E+04
  0.513369789124E+02  0.497605323792E+02 -0.666689309570E-15
  0.994022773489E+04  0.497605323792E+02  0.109174370342E+04
  0.533986053467E+02  0.440033836365E+02 -0.980759799480E+00
  0.994035953327E+04  0.440033836365E+02  0.109054988862E+04
  0.533986053467E+02  0.440033836365E+02  0.980759799480E+00
  0.994014558715E+04  0.440033836365E+02  0.109248778835E+04
  0.540711097717E+02  0.387271614075E+02  0.393036067486E+00
  0.994021778918E+04  0.387271614075E+02  0.109183379061E+04
  0.542080955505E+02  0.352078781128E+02  0.000000000000E+00
  0.994026230779E+04  0.352078781128E+02  0.109143054607E+04
  0.551131744385E+02  0.490000000000E+02 -0.114009940624E+01
  0.994039755889E+04  0.490000000000E+02  0.109020545689E+04
  0.551131744385E+02  0.490000000000E+02  0.114009940624E+01
  0.994014885391E+04  0.490000000000E+02  0.109245819842E+04
  0.561636810303E+02  0.500505065918E+02 -0.443778187037E+00
  0.994033425981E+04  0.500505065918E+02  0.109077881282E+04
  0.566062583923E+02  0.472110252380E+02  0.980760812759E+00
  0.994018421238E+04  0.472110252380E+02  0.109213792543E+04
  0.570003395081E+02  0.416563758850E+02 -0.393036454916E+00
  0.994033880005E+04  0.416563758850E+02  0.109073768784E+04
  0.570003395081E+02  0.416563758850E+02  0.393036454916E+00
  0.994025306180E+04  0.416563758850E+02  0.109151429516E+04
  0.570724334717E+02  0.387271614075E+02  0.698669478297E-01
  0.994028917855E+04  0.387271614075E+02  0.109118715373E+04
  0.576373367310E+02  0.482421035767E+02 -0.980761110783E+00
  0.994041057461E+04  0.482421035767E+02  0.109008756202E+04
  0.576373367310E+02  0.482421035767E+02  0.980761110783E+00
  0.994019662820E+04  0.482421035767E+02  0.109202546434E+04
  0.577274017334E+02  0.387271614075E+02  0.000000000000E+00
  0.994030468593E+04  0.387271614075E+02  0.109104668964E+04
  0.583952369690E+02  0.490000000000E+02 -0.980761349201E+00
  0.994041970098E+04  0.490000000000E+02  0.109000489638E+04
  0.583952369690E+02  0.490000000000E+02  0.980761349201E+00
  0.994020575452E+04  0.490000000000E+02  0.109194279917E+04
  0.606566314697E+02  0.416563758850E+02  0.000000000000E+00
  0.994033995860E+04  0.416563758850E+02  0.109072719381E+04
  0.609093322754E+02  0.482421035767E+02 -0.678063273430E+00
  0.994041695899E+04  0.482421035767E+02  0.109002973303E+04
  0.609093322754E+02  0.482421035767E+02  0.678063273430E+00
  0.994026904407E+04  0.482421035767E+02  0.109136952962E+04
  0.616672325134E+02  0.490000000000E+02 -0.678063392639E+00
  0.994042608535E+04  0.490000000000E+02  0.108994706750E+04
  0.616672325134E+02  0.490000000000E+02  0.678063392639E+00
  0.994027817040E+04  0.490000000000E+02  0.109128686433E+04
  0.622920112610E+02  0.496247787476E+02 -0.263932913542E+00
  0.994038843881E+04  0.496247787476E+02  0.109028806555E+04
  0.622920112610E+02  0.496247787476E+02  0.263932913542E+00
  0.994033086363E+04  0.496247787476E+02  0.109080957502E+04
  0.630036544800E+02  0.440033836365E+02  0.000000000000E+00
  0.994036822056E+04  0.440033836365E+02  0.109047120021E+04
  0.635860977173E+02  0.482421035767E+02 -0.393037289381E+00
  0.994041810333E+04  0.482421035767E+02  0.109001936769E+04
  0.644117202759E+02  0.472110252380E+02 -0.192509815097E+00
  0.994040617331E+04  0.472110252380E+02  0.109012742850E+04
  0.644117202759E+02  0.472110252380E+02  0.192509815097E+00
  0.994036417859E+04  0.472110252380E+02  0.109050781187E+04
  0.644969863892E+02  0.491529884338E+02 -0.362150579691E+00
  0.994042570304E+04  0.491529884338E+02  0.108995053037E+04
  0.646219177246E+02  0.492779197693E+02 -0.277919411659E+00
  0.994041802019E+04  0.492779197693E+02  0.109002012080E+04
  0.646219177246E+02  0.492779197693E+02  0.277919411659E+00
  0.994035739395E+04  0.492779197693E+02  0.109056926642E+04
  0.647061538696E+02  0.493621520996E+02 -0.152987897396E+00
  0.994040540804E+04  0.493621520996E+02  0.109013436016E+04
  0.647061538696E+02  0.493621520996E+02  0.152987897396E+00
  0.994037203477E+04  0.493621520996E+02  0.109043665151E+04
  0.647370376587E+02  0.493930358887E+02  0.394993830268E-15
  0.994038909330E+04  0.493930358887E+02  0.109028213729E+04
  0.648274841309E+02  0.458272018433E+02  0.000000000000E+00
  0.994039018242E+04  0.458272018433E+02  0.109027227215E+04
  0.662113189697E+02  0.472110252380E+02  0.000000000000E+00
  0.994040684603E+04  0.472110252380E+02  0.109012133504E+04
  0.672424011230E+02  0.482421035767E+02  0.000000000000E+00
  0.994041926193E+04  0.482421035767E+02  0.109000887324E+04
  0.673453292847E+02  0.490000000000E+02  0.698671787977E-01
  0.994041288082E+04  0.490000000000E+02  0.109006667256E+04
  0.673725280762E+02  0.490271949768E+02 -0.643766745925E-01
  0.994042785054E+04  0.490271949768E+02  0.108993107861E+04
  0.674097061157E+02  0.490643768311E+02  0.271954610944E-01
  0.994041831030E+04  0.490643768311E+02  0.109001749300E+04
  0.674151992798E+02  0.490698661804E+02 -0.374155926411E-16
  0.994042134270E+04  0.490698661804E+02  0.108999002587E+04
  0.680002975464E+02  0.490000000000E+02  0.000000000000E+00
  0.994042838823E+04  0.490000000000E+02  0.108992620825E+04
  0.221728172302E+02  0.317279767990E+01  0.000000000000E+00
  0.993987655117E+04  0.317279767990E+01  0.109492468580E+04
  0.239966468811E+02  0.499661636353E+01  0.000000000000E+00
  0.993989851303E+04  0.499661636353E+01  0.109472575774E+04
  0.577274017334E+02  0.387271614075E+02  0.000000000000E+00
  0.994030468593E+04  0.387271614075E+02  0.109104668964E+04
POLYGONS                  38                 152
3                  78                  79                  77
3                  78                  77                  76
3                  86                  87                  79
3                  86                  79                  78
3                  92                  93                  87
3                  92                  87                  86
3                 106                 107                  93
3                 106                  93                  92
3                 114                 115                 107
3                 114                 107                 106
3                 120                 121                 115
3                 120                 115                 114
3                 130                 131                 121
3                 130                 121                 120
3                 152                 153                 131
3                 152                 131                 130
3                 158                 159                 153
3                 158                 153                 152
3                 180                 181                 159
3                 180                 159                 158
3                 198                 199                 181
3                 198                 181                 180
3                 220                 221                 199
3                 220                 199                 198
3                 240                 241                 221
3                 240                 221                 220
3                 246                 247                 241
3                 246                 241                 240
3                 260                 261                 247
3                 260                 247                 246
3                 280                 281                 261
3                 280                 261                 260
3                 282                 283                 281
3                 282                 281                 280
3                 284                 285                 283
3                 284                 283                 282
3                 294                 295                 285
3                 294                 285                 284
CELL_DATA                  38
NORMALS normals float
  0.109079522546E+00 -0.109080088725E+00 -0.988029955014E+00
  0.109079522546E+00 -0.109080088725E+00 -0.988029955014E+00
  0.109079520730E+00 -0.109080239581E+00 -0.988029938560E+00
  0.109079520730E+00 -0.109080239581E+00 -0.988029938560E+00
  0.109079521009E+00 -0.109080216359E+00 -0.988029941093E+00
  0.109079521009E+00 -0.109080216359E+00 -0.988029941093E+00
  0.109079521478E+00 -0.109080177412E+00 -0.988029945341E+00
  0.109079521478E+00 -0.109080177412E+00 -0.988029945341E+00
  0.109079521109E+00 -0.109080208117E+00 -0.988029941992E+00
  0.109079521109E+00 -0.109080208117E+00 -0.988029941992E+00
  0.109079521043E+00 -0.109080213550E+00 -0.988029941399E+00
  0.109079521043E+00 -0.109080213550E+00 -0.988029941399E+00
  0.109079521897E+00 -0.109080142636E+00 -0.988029949134E+00
  0.109079521897E+00 -0.109080142636E+00 -0.988029949134E+00
  0.109079521317E+00 -0.109080190812E+00 -0.988029943879E+00
  0.109079521317E+00 -0.109080190812E+00 -0.988029943879E+00
  0.109079520285E+00 -0.109080276510E+00 -0.988029934532E+00
  0.109079520285E+00 -0.109080276510E+00 -0.988029934532E+00
  0.109079522728E+00 -0.109080073604E+00 -0.988029956663E+00
  0.109079522728E+00 -0.109080073604E+00 -0.988029956663E+00
  0.109079520285E+00 -0.109080276508E+00 -0.988029934532E+00
  0.109079520285E+00 -0.109080276508E+00 -0.988029934532E+00
  0.109079521317E+00 -0.109080190812E+00 -0.988029943879E+00
  0.109079521317E+00 -0.109080190812E+00 -0.988029943879E+00
  0.109079520842E+00 -0.109080230258E+00 -0.988029939577E+00
  0.109079520842E+00 -0.109080230257E+00 -0.988029939577E+00
  0.109079522522E+00 -0.109080090737E+00 -0.988029954794E+00
  0.109079522522E+00 -0.109080090737E+00 -0.988029954794E+00
  0.109079520845E+00 -0.109080230013E+00 -0.988029939603E+00
  0.109079520845E+00 -0.109080230013E+00 -0.988029939603E+00
  0.109079521139E+00 -0.109080205592E+00 -0.988029942267E+00
  0.109079521139E+00 -0.109080205592E+00 -0.988029942267E+00
  0.109079518550E+00 -0.109080420628E+00 -0.988029918812E+00
  0.109079518550E+00 -0.109080420628E+00 -0.988029918812E+00
  0.109079524481E+00 -0.109079928034E+00 -0.988029972541E+00
  0.109079524481E+00 -0.109079928034E+00 -0.988029972541E+00
  0.109079529283E+00 -0.109079529297E+00 -0.988030016032E+00
  0.109079529283E+00 -0.109079529297E+00 -0.988030016032E+00
POINT_DATA                 302
SCALARS mu float 1
LOOKUP_TABLE default
  0.000000000000E+00
  0.000000000000E+00
  0.000000000000E+00
  0.000000000000E+00
  0.000000000000E+00
  0.000000000000E+00
  0.000000000000E+00
  0.000000000000E+00
  0.000000000000E+00
  0.000000000000E+00
  0.000000000000E+00
  0.000000000000E+00
  0.000000000000E+00
  0.000000000000E+00
  0.000000000000E+00
  0.000000000000E+00
  0.000000000000E+00
  0.000000000000E+00
  0.000000000000E+00
  0.000000000000E+00
  0.000000000000E+00
  0.000000000000E+00
  0.000000000000E+00
  0.000000000000E+00
  0.000000000000E+00
  0.000000000000E+00
  0.000000000000E+00
  0.000000000000E+00
  0.000000000000E+00
  0.000000000000E+00
  0.000000000000E+00
  0.000000000000E+00
  0.000000000000E+00
  0.000000000000E+00
  0.000000000000E+00
  0.000000000000E+00
  0.000000000000E+00
  0.000000000000E+00
  0.000000000000E+00
  0.000000000000E+00
  0.000000000000E+00
  0.000000000000E+00
  0.000000000000E+00
  0.000000000000E+00
  0.000000000000E+00
  0.000000000000E+00
  0.000000000000E+00
  0.000000000000E+00
  0.000000000000E+00
  0.000000000000E+00
  0.000000000000E+00
  0.000000000000E+00
  0.000000000000E+00
  0.000000000000E+00
  0.000000000000E+00
  0.000000000000E+00
  0.000000000000E+00
  0.000000000000E+00
  0.000000000000E+00
  0.000000000000E+00
  0.000000000000E+00
  0.000000000000E+00
  0.000000000000E+00
  0.000000000000E+00
  0.000000000000E+00
  0.000000000000E+00
  0.000000000000E+00
  0.000000000000E+00
  0.000000000000E+00
  0.000000000000E+00
  0.000000000000E+00
  0.000000000000E+00
  0.000000000000E+00
  0.000000000000E+00
  0.000000000000E+00
  0.000000000000E+00
 -0.337828400408E+01
 -0.337828400408E+01
 -0.339689074812E+01
 -0.339689074812E+01
  0.000000000000E+00
  0.000000000000E+00
  0.000000000000E+00
  0.000000000000E+00
  0.000000000000E+00
  0.000000000000E+00
 -0.343247806967E+01
 -0.343247806967E+01
  0.000000000000E+00
  0.000000000000E+00
  0.000000000000E+00
  0.000000000000E+00
 -0.348400546372E+01
 -0.348400546372E+01
  0.000000000000E+00
  0.000000000000E+00
  0.000000000000E+00
  0.000000000000E+00
  0.000000000000E+00
  0.000000000000E+00
  0.000000000000E+00
  0.000000000000E+00
  0.000000000000E+00
  0.000000000000E+00
  0.000000000000E+00
  0.000000000000E+00
 -0.354987775886E+01
 -0.354987775886E+01
  0.000000000000E+00
  0.000000000000E+00
  0.000000000000E+00
  0.000000000000E+00
  0.000000000000E+00
  0.000000000000E+00
 -0.362616416657E+01
 -0.362616416657E+01
  0.000000000000E+00
  0.000000000000E+00
  0.000000000000E+00
  0.000000000000E+00
 -0.370668630943E+01
 -0.370668630943E+01
  0.000000000000E+00
  0.000000000000E+00
  0.000000000000E+00
  0.000000000000E+00
  0.000000000000E+00
  0.000000000000E+00
  0.000000000000E+00
  0.000000000000E+00
 -0.378303696077E+01
 -0.378303696077E+01
  0.000000000000E+00
  0.000000000000E+00
  0.000000000000E+00
  0.000000000000E+00
  0.000000000000E+00
  0.000000000000E+00
  0.000000000000E+00
  0.000000000000E+00
  0.000000000000E+00
  0.000000000000E+00
  0.000000000000E+00
  0.000000000000E+00
  0.000000000000E+00
  0.000000000000E+00
  0.000000000000E+00
  0.000000000000E+00
  0.000000000000E+00
  0.000000000000E+00
  0.000000000000E+00
  0.000000000000E+00
 -0.384484257901E+01
 -0.384484257901E+01
  0.000000000000E+00
  0.000000000000E+00
  0.000000000000E+00
  0.000000000000E+00
 -0.388021512712E+01
 -0.388021512712E+01
  0.000000000000E+00
  0.000000000000E+00
  0.000000000000E+00
  0.000000000000E+00
  0.000000000000E+00
  0.000000000000E+00
  0.000000000000E+00
  0.000000000000E+00
  0.000000000000E+00
  0.000000000000E+00
  0.000000000000E+00
  0.000000000000E+00
  0.000000000000E+00
  0.000000000000E+00
  0.000000000000E+00
  0.000000000000E+00
  0.000000000000E+00
  0.000000000000E+00
  0.000000000000E+00
  0.000000000000E+00
 -0.387583323149E+01
 -0.387583323149E+01
  0.000000000000E+00
  0.000000000000E+00
  0.000000000000E+00
  0.000000000000E+00
  0.000000000000E+00
  0.000000000000E+00
  0.000000000000E+00
  0.000000000000E+00
  0.000000000000E+00
  0.000000000000E+00
  0.000000000000E+00
  0.000000000000E+00
  0.000000000000E+00
  0.000000000000E+00
  0.000000000000E+00
  0.000000000000E+00
 -0.381620575320E+01
 -0.381620575320E+01
  0.000000000000E+00
  0.000000000000E+00
  0.000000000000E+00
  0.000000000000E+00
  0.000000000000E+00
  0.000000000000E+00
  0.000000000000E+00
  0.000000000000E+00
  0.000000000000E+00
  0.000000000000E+00
  0.000000000000E+00
  0.000000000000E+00
  0.000000000000E+00
  0.000000000000E+00
  0.000000000000E+00
  0.000000000000E+00
  0.000000000000E+00
  0.000000000000E+00
  0.000000000000E+00
  0.000000000000E+00
 -0.368503685920E+01
 -0.368503685920E+01
  0.000000000000E+00
  0.000000000000E+00
  0.000000000000E+00
  0.000000000000E+00
  0.000000000000E+00
  0.000000000000E+00
  0.000000000000E+00
  0.000000000000E+00
  0.000000000000E+00
  0.000000000000E+00
  0.000000000000E+00
  0.000000000000E+00
  0.000000000000E+00
  0.000000000000E+00
  0.000000000000E+00
  0.000000000000E+00
  0.000000000000E+00
  0.000000000000E+00
 -0.346843475868E+01
 -0.346843475868E+01
  0.000000000000E+00
  0.000000000000E+00
  0.000000000000E+00
  0.000000000000E+00
 -0.316151454625E+01
 -0.316151454625E+01
  0.000000000000E+00
  0.000000000000E+00
  0.000000000000E+00
  0.000000000000E+00
  0.000000000000E+00
  0.000000000000E+00
  0.000000000000E+00
  0.000000000000E+00
  0.000000000000E+00
  0.000000000000E+00
  0.000000000000E+00
  0.000000000000E+00
 -0.276884520093E+01
 -0.276884520093E+01
  0.000000000000E+00
  0.000000000000E+00
  0.000000000000E+00
  0.000000000000E+00
  0.000000000000E+00
  0.000000000000E+00
  0.000000000000E+00
  0.000000000000E+00
  0.000000000000E+00
  0.000000000000E+00
  0.000000000000E+00
  0.000000000000E+00
  0.000000000000E+00
  0.000000000000E+00
  0.000000000000E+00
  0.000000000000E+00
  0.000000000000E+00
  0.000000000000E+00
 -0.229532025394E+01
 -0.229532025394E+01
 -0.172985205623E+01
 -0.172985205623E+01
 -0.101588447002E+01
 -0.101588447002E+01
  0.000000000000E+00
  0.000000000000E+00
  0.000000000000E+00
  0.000000000000E+00
  0.000000000000E+00
  0.000000000000E+00
  0.000000000000E+00
  0.000000000000E+00
  0.000000000000E+00
  0.000000000000E+00
  0.348400546372E+01
  0.348400546372E+01
  0.354987775886E+01
  0.354987775886E+01
  0.346843475868E+01
  0.346843475868E+01
