# vtk DataFile Version 3.0
MachLine results file. Generated by MachLine, USU AeroLab (c) 2022.
ASCII
DATASET POLYDATA
POINTS                  76 float
  0.197579002380E+02  0.757896304131E+00  0.000000000000E+00
  0.190000000000E+02  0.000000000000E+00  0.000000000000E+00
  0.148998922574E+05  0.757896304131E+00  0.164278212706E+04
  0.149002575180E+05  0.000000000000E+00  0.164290612518E+04
  0.207889842987E+02  0.178897356987E+01  0.000000000000E+00
  0.197579002380E+02  0.757896304131E+00  0.000000000000E+00
  0.148993953392E+05  0.178897356987E+01  0.164261343405E+04
  0.148998922574E+05  0.757896304131E+00  0.164278212706E+04
  0.221728172302E+02  0.317279767990E+01  0.000000000000E+00
  0.207889842987E+02  0.178897356987E+01  0.000000000000E+00
  0.148987284181E+05  0.317279767990E+01  0.164238702870E+04
  0.148993953392E+05  0.178897356987E+01  0.164261343405E+04
  0.239966468811E+02  0.499661636353E+01  0.000000000000E+00
  0.221728172302E+02  0.317279767990E+01  0.000000000000E+00
  0.148978494461E+05  0.499661636353E+01  0.164208863662E+04
  0.148987284181E+05  0.317279767990E+01  0.164238702870E+04
  0.263436698914E+02  0.734362459183E+01  0.000000000000E+00
  0.239966468811E+02  0.499661636353E+01  0.000000000000E+00
  0.148967183275E+05  0.734362459183E+01  0.164170464621E+04
  0.148978494461E+05  0.499661636353E+01  0.164208863662E+04
  0.292729015350E+02  0.102728376389E+02  0.000000000000E+00
  0.263436698914E+02  0.734362459183E+01  0.000000000000E+00
  0.148953066208E+05  0.102728376389E+02  0.164122540215E+04
  0.148967183275E+05  0.734362459183E+01  0.164170464621E+04
  0.327922058105E+02  0.137921218872E+02  0.000000000000E+00
  0.292729015350E+02  0.102728376389E+02  0.000000000000E+00
  0.148936105358E+05  0.137921218872E+02  0.164064961781E+04
  0.148953066208E+05  0.102728376389E+02  0.164122540215E+04
  0.368321151733E+02  0.178320064545E+02  0.000000000000E+00
  0.327922058105E+02  0.137921218872E+02  0.000000000000E+00
  0.148916635517E+05  0.178320064545E+02  0.163998865862E+04
  0.148936105358E+05  0.137921218872E+02  0.164064961781E+04
  0.412340698242E+02  0.222339305878E+02  0.000000000000E+00
  0.368321151733E+02  0.178320064545E+02  0.000000000000E+00
  0.148895420844E+05  0.222339305878E+02  0.163926846613E+04
  0.148916635517E+05  0.178320064545E+02  0.163998865862E+04
  0.457662315369E+02  0.267660694122E+02  0.000000000000E+00
  0.412340698242E+02  0.222339305878E+02  0.000000000000E+00
  0.148873578653E+05  0.267660694122E+02  0.163852697080E+04
  0.148895420844E+05  0.222339305878E+02  0.163926846613E+04
  0.542080955505E+02  0.352078781128E+02  0.000000000000E+00
  0.501681861877E+02  0.311679935455E+02  0.000000000000E+00
  0.148832894139E+05  0.352078781128E+02  0.163714581911E+04
  0.148852363980E+05  0.311679935455E+02  0.163780677830E+04
  0.577274017334E+02  0.387271614075E+02  0.000000000000E+00
  0.542080955505E+02  0.352078781128E+02  0.000000000000E+00
  0.148815933280E+05  0.387271614075E+02  0.163657003447E+04
  0.148832894139E+05  0.352078781128E+02  0.163714581911E+04
  0.501681861877E+02  0.311679935455E+02  0.000000000000E+00
  0.457662315369E+02  0.267660694122E+02  0.000000000000E+00
  0.148852363980E+05  0.311679935455E+02  0.163780677830E+04
  0.148873578653E+05  0.267660694122E+02  0.163852697080E+04
  0.606566314697E+02  0.416563758850E+02  0.000000000000E+00
  0.577274017334E+02  0.387271614075E+02  0.000000000000E+00
  0.148801816222E+05  0.416563758850E+02  0.163609079071E+04
  0.148815933280E+05  0.387271614075E+02  0.163657003447E+04
  0.630036544800E+02  0.440033836365E+02  0.000000000000E+00
  0.606566314697E+02  0.416563758850E+02  0.000000000000E+00
  0.148790505036E+05  0.440033836365E+02  0.163570680031E+04
  0.148801816222E+05  0.416563758850E+02  0.163609079071E+04
  0.648274841309E+02  0.458272018433E+02  0.000000000000E+00
  0.630036544800E+02  0.440033836365E+02  0.000000000000E+00
  0.148781715316E+05  0.458272018433E+02  0.163540840823E+04
  0.148790505036E+05  0.440033836365E+02  0.163570680031E+04
  0.662113189697E+02  0.472110252380E+02  0.000000000000E+00
  0.648274841309E+02  0.458272018433E+02  0.000000000000E+00
  0.148775046096E+05  0.472110252380E+02  0.163518200256E+04
  0.148781715316E+05  0.458272018433E+02  0.163540840823E+04
  0.672424011230E+02  0.482421035767E+02  0.000000000000E+00
  0.662113189697E+02  0.472110252380E+02  0.000000000000E+00
  0.148770076923E+05  0.482421035767E+02  0.163501330986E+04
  0.148775046096E+05  0.472110252380E+02  0.163518200256E+04
  0.680002975464E+02  0.490000000000E+02  0.000000000000E+00
  0.672424011230E+02  0.482421035767E+02  0.000000000000E+00
  0.148766424336E+05  0.490000000000E+02  0.163488931237E+04
  0.148770076923E+05  0.482421035767E+02  0.163501330986E+04
POLYGONS                  38                 152
3                   0                   3                   1
3                   0                   2                   3
3                   4                   7                   5
3                   4                   6                   7
3                   8                  11                   9
3                   8                  10                  11
3                  12                  15                  13
3                  12                  14                  15
3                  16                  19                  17
3                  16                  18                  19
3                  20                  23                  21
3                  20                  22                  23
3                  24                  27                  25
3                  24                  26                  27
3                  28                  31                  29
3                  28                  30                  31
3                  32                  35                  33
3                  32                  34                  35
3                  36                  39                  37
3                  36                  38                  39
3                  40                  43                  41
3                  40                  42                  43
3                  44                  47                  45
3                  44                  46                  47
3                  48                  51                  49
3                  48                  50                  51
3                  52                  55                  53
3                  52                  54                  55
3                  56                  59                  57
3                  56                  58                  59
3                  60                  63                  61
3                  60                  62                  63
3                  64                  67                  65
3                  64                  66                  67
3                  68                  71                  69
3                  68                  70                  71
3                  72                  75                  73
3                  72                  74                  75
POINT_DATA                  76
SCALARS mu float 1
LOOKUP_TABLE default
  0.560915047829E+01
 -0.254765977851E-01
  0.560915047829E+01
 -0.254765977851E-01
  0.217784737131E+02
  0.560915047829E+01
  0.217784737131E+02
  0.560915047829E+01
 -0.136943380497E+02
  0.217784737131E+02
 -0.136943380497E+02
  0.217784737131E+02
  0.339292498900E+01
 -0.136943380497E+02
  0.339292498900E+01
 -0.136943380497E+02
 -0.544882396452E+00
  0.339292498900E+01
 -0.544882396452E+00
  0.339292498900E+01
  0.505894482824E+00
 -0.544882396452E+00
  0.505894482824E+00
 -0.544882396452E+00
  0.355852388090E+00
  0.505894482824E+00
  0.355852388090E+00
  0.505894482824E+00
  0.486182949926E+00
  0.355852388090E+00
  0.486182949926E+00
  0.355852388090E+00
  0.511830855077E+00
  0.486182949926E+00
  0.511830855077E+00
  0.486182949926E+00
  0.510228834419E+00
  0.511830855077E+00
  0.510228834419E+00
  0.511830855077E+00
  0.382418711801E+00
  0.557743670623E+00
  0.382418711801E+00
  0.557743670623E+00
  0.281045525979E+00
  0.382418711801E+00
  0.281045525979E+00
  0.382418711801E+00
  0.557743670623E+00
  0.510228834419E+00
  0.557743670623E+00
  0.510228834419E+00
  0.212546318652E+00
  0.281045525979E+00
  0.212546318652E+00
  0.281045525979E+00
  0.352116891670E+00
  0.212546318652E+00
  0.352116891670E+00
  0.212546318652E+00
  0.722816053559E+00
  0.352116891670E+00
  0.722816053559E+00
  0.352116891670E+00
  0.450866665812E+00
  0.722816053559E+00
  0.450866665812E+00
  0.722816053559E+00
  0.278351416731E+00
  0.450866665812E+00
  0.278351416731E+00
  0.450866665812E+00
  0.000000000000E+00
  0.278351416731E+00
  0.000000000000E+00
  0.278351416731E+00
