# vtk DataFile Version 3.0
MachLine results file. Generated by MachLine, USU AeroLab (c) 2022.
ASCII
DATASET POLYDATA
POINTS                 144 float
  0.312930634121E-04  0.000000000000E+00 -0.193753118501E-20
  0.113539063053E+01  0.000000000000E+00 -0.658087935210E+00
  0.113539063053E+01  0.000000000000E+00  0.658087935210E+00
  0.192378249374E+01  0.192372498306E+01  0.474775100986E-20
  0.305914835645E+01  0.192374081896E+01 -0.658086193634E+00
  0.305914835645E+01  0.192374081896E+01  0.658086193634E+00
  0.423028253315E+01  0.000000000000E+00 -0.108742011765E+01
  0.423028253315E+01  0.000000000000E+00  0.108742011765E+01
  0.547037632114E+01  0.547028701656E+01  0.737247204953E-20
  0.615404028205E+01  0.192375045511E+01 -0.108741647537E+01
  0.615404028205E+01  0.192375045511E+01  0.108741647537E+01
  0.660573385881E+01  0.547031260802E+01 -0.658068469811E+00
  0.660573385881E+01  0.547031260802E+01  0.658068469811E+00
  0.939508564654E+01  0.000000000000E+00 -0.980702541365E+00
  0.939508564654E+01  0.000000000000E+00  0.980702541365E+00
  0.970062414602E+01  0.547032722042E+01 -0.108739780002E+01
  0.970062414602E+01  0.547032722042E+01  0.108739780002E+01
  0.113188445158E+02  0.192375687882E+01 -0.980693094219E+00
  0.113188445158E+02  0.192375687882E+01  0.980693094219E+00
  0.113820643673E+02  0.113819393863E+02 -0.257942736414E-20
  0.125174139439E+02  0.113819753230E+02 -0.658047284009E+00
  0.125174139439E+02  0.113819753230E+02  0.658047284009E+00
  0.145401991734E+02  0.000000000000E+00 -0.479574165270E+00
  0.145401991734E+02  0.000000000000E+00  0.479574165270E+00
  0.148654325708E+02  0.547033565208E+01 -0.980679907908E+00
  0.148654325708E+02  0.547033565208E+01  0.980679907908E+00
  0.156123048447E+02  0.113819959977E+02 -0.108737528443E+01
  0.156123048447E+02  0.113819959977E+02  0.108737528443E+01
  0.164639622288E+02  0.192375787923E+01 -0.479572980793E+00
  0.164639622288E+02  0.192375787923E+01  0.479572980793E+00
  0.176505079470E+02  0.000000000000E+00 -0.144172424756E+00
  0.176505079470E+02  0.000000000000E+00  0.144172424756E+00
  0.189999778925E+02  0.000000000000E+00 -0.165542730925E-05
  0.195742705951E+02  0.192375720641E+01 -0.144166632792E+00
  0.195742705951E+02  0.192375720641E+01  0.144166632792E+00
  0.197562681851E+02  0.197561219516E+02 -0.603609708767E-20
  0.200105551723E+02  0.547033748596E+01 -0.479557181615E+00
  0.200105551723E+02  0.547033748596E+01  0.479557181615E+00
  0.207771191273E+02  0.113820071544E+02 -0.980659764437E+00
  0.207771191273E+02  0.113820071544E+02  0.980659764437E+00
  0.208916146114E+02  0.197561629460E+02 -0.658032293233E+00
  0.208916146114E+02  0.197561629460E+02  0.658032293233E+00
  0.209237410836E+02  0.192377783745E+01 -0.254601661134E-05
  0.231208669354E+02  0.547033723104E+01 -0.144147288307E+00
  0.231208669354E+02  0.547033723104E+01  0.144147288307E+00
  0.239865086400E+02  0.197561881221E+02 -0.108735995859E+01
  0.239865086400E+02  0.197561881221E+02  0.108735995859E+01
  0.244703257500E+02  0.547037144337E+01 -0.420209809024E-05
  0.259222501778E+02  0.113820100762E+02 -0.479534889879E+00
  0.259222501778E+02  0.113820100762E+02  0.479534889879E+00
  0.290325693319E+02  0.113820100595E+02 -0.144123159709E+00
  0.290325693319E+02  0.113820100595E+02  0.144123159709E+00
  0.291513358854E+02  0.197562015750E+02 -0.980641566995E+00
  0.291513358854E+02  0.197562015750E+02  0.980641566995E+00
  0.292438739780E+02  0.292437358852E+02 -0.285003836711E-20
  0.303792302038E+02  0.292437728021E+02 -0.658034298375E+00
  0.303792302038E+02  0.292437728021E+02  0.658034298375E+00
  0.303820150452E+02  0.113820592806E+02 -0.606459828689E-05
  0.334741318570E+02  0.292437979831E+02 -0.108736325854E+01
  0.334741318570E+02  0.292437979831E+02  0.108736325854E+01
  0.342964796805E+02  0.197562051036E+02 -0.479518310694E+00
  0.342964796805E+02  0.197562051036E+02  0.479518310694E+00
  0.374068082499E+02  0.197562052085E+02 -0.144105313513E+00
  0.374068082499E+02  0.197562052085E+02  0.144105313513E+00
  0.376180497188E+02  0.376179427128E+02  0.000000000000E+00
  0.386389740370E+02  0.292438117601E+02 -0.980639078250E+00
  0.386389740370E+02  0.292438117601E+02  0.980639078250E+00
  0.387534178424E+02  0.376179696393E+02 -0.658052759190E+00
  0.387534178424E+02  0.376179696393E+02  0.658052759190E+00
  0.387562492294E+02  0.197562629782E+02 -0.717453034836E-05
  0.418483373371E+02  0.376179903301E+02 -0.108738447037E+01
  0.418483373371E+02  0.376179903301E+02  0.108738447037E+01
  0.435297029672E+02  0.435296308340E+02  0.595490609432E-20
  0.437841353047E+02  0.292438149822E+02 -0.479519620832E+00
  0.437841353047E+02  0.292438149822E+02  0.479519620832E+00
  0.446650848654E+02  0.435296478006E+02 -0.658076458324E+00
  0.446650848654E+02  0.435296478006E+02  0.658076458324E+00
  0.468944715132E+02  0.292438150774E+02 -0.144105707172E+00
  0.468944715132E+02  0.292438150774E+02  0.144105707172E+00
  0.470131928898E+02  0.376180021786E+02 -0.980656468792E+00
  0.470131928898E+02  0.376180021786E+02  0.980656468792E+00
  0.470762711240E+02  0.470762252138E+02  0.284255644459E-20
  0.477600142238E+02  0.435296624425E+02 -0.108741098466E+01
  0.477600142238E+02  0.435296624425E+02  0.108741098466E+01
  0.482116561869E+02  0.470762352010E+02 -0.658095644386E+00
  0.482116561869E+02  0.470762352010E+02  0.658095644386E+00
  0.482439203362E+02  0.292438688182E+02 -0.674948747450E-05
  0.490000098337E+02  0.489999829894E+02  0.352020849666E-20
  0.501354069086E+02  0.489999871344E+02 -0.658111061843E+00
  0.501354069086E+02  0.489999871344E+02  0.658111061843E+00
  0.506007778866E+02  0.494653516704E+02 -0.465360197472E+00
  0.506007778866E+02  0.494653516704E+02  0.465360197472E+00
  0.507935375703E+02  0.496581169850E+02 -0.771258599560E-15
  0.513065943267E+02  0.470762448761E+02 -0.108743228644E+01
  0.513065943267E+02  0.470762448761E+02  0.108743228644E+01
  0.521583703386E+02  0.376180044784E+02 -0.479538356774E+00
  0.521583703386E+02  0.376180044784E+02  0.479538356774E+00
  0.529248840674E+02  0.435296714441E+02 -0.980682430110E+00
  0.529248840674E+02  0.435296714441E+02  0.980682430110E+00
  0.532303491166E+02  0.489999893063E+02 -0.108744779990E+01
  0.532303491166E+02  0.489999893063E+02  0.108744779990E+01
  0.539993229218E+02  0.497689436952E+02 -0.768946532731E+00
  0.539993229218E+02  0.497689436952E+02  0.768946532731E+00
  0.543178430301E+02  0.500874571974E+02 -0.157370130865E-15
  0.552687143289E+02  0.376180044211E+02 -0.144124171041E+00
  0.552687143289E+02  0.376180044211E+02  0.144124171041E+00
  0.564714741318E+02  0.470762515457E+02 -0.980703384050E+00
  0.564714741318E+02  0.470762515457E+02  0.980703384050E+00
  0.566181803863E+02  0.376180447422E+02 -0.512671807591E-05
  0.580700700039E+02  0.435296728856E+02 -0.479561446547E+00
  0.580700700039E+02  0.435296728856E+02  0.479561446547E+00
  0.583952342525E+02  0.489999966035E+02 -0.980715337112E+00
  0.583952342525E+02  0.489999966035E+02  0.980715337112E+00
  0.590887388161E+02  0.496934812578E+02 -0.693469805575E+00
  0.590887388161E+02  0.496934812578E+02  0.693469805575E+00
  0.593759966941E+02  0.499807194883E+02  0.326869302507E-21
  0.611804219244E+02  0.435296725276E+02 -0.144148458102E+00
  0.611804219244E+02  0.435296725276E+02  0.144148458102E+00
  0.616166681578E+02  0.470762525270E+02 -0.479577866536E+00
  0.616166681578E+02  0.470762525270E+02  0.479577866536E+00
  0.625299026009E+02  0.435296982293E+02 -0.330981405380E-05
  0.635404285646E+02  0.489999966685E+02 -0.479587400581E+00
  0.635404285646E+02  0.489999966685E+02  0.479587400581E+00
  0.638795744263E+02  0.493391226712E+02 -0.339121163529E+00
  0.638795744263E+02  0.493391226712E+02  0.339121163529E+00
  0.640200547551E+02  0.494795968058E+02  0.296954520199E-15
  0.647270242582E+02  0.470762518038E+02 -0.144167179154E+00
  0.647270242582E+02  0.470762518038E+02  0.144167179154E+00
  0.660765195290E+02  0.470762667259E+02 -0.196051129310E-05
  0.666507849833E+02  0.489999978860E+02 -0.144179063945E+00
  0.666507849833E+02  0.489999978860E+02  0.144179063945E+00
  0.667527523879E+02  0.491019555434E+02 -0.101954743525E+00
  0.667527523879E+02  0.491019555434E+02  0.101954743525E+00
  0.667949891457E+02  0.491441877800E+02 -0.260467198439E-16
  0.680002814145E+02  0.489999953293E+02  0.164535362579E-20
  0.189999778925E+02  0.000000000000E+00  0.165542730925E-05
  0.209237410836E+02  0.192377783745E+01  0.254601661134E-05
  0.244703257500E+02  0.547037144337E+01  0.420209809024E-05
  0.303820150452E+02  0.113820592806E+02  0.606459828689E-05
  0.387562492294E+02  0.197562629782E+02  0.717453034836E-05
  0.482439203362E+02  0.292438688182E+02  0.674948747450E-05
  0.566181803863E+02  0.376180447422E+02  0.512671807591E-05
  0.625299026009E+02  0.435296982293E+02  0.330981405380E-05
  0.660765195290E+02  0.470762667259E+02  0.196051129310E-05
VERTICES                 144                 288
1                   0
1                   1
1                   2
1                   3
1                   4
1                   5
1                   6
1                   7
1                   8
1                   9
1                  10
1                  11
1                  12
1                  13
1                  14
1                  15
1                  16
1                  17
1                  18
1                  19
1                  20
1                  21
1                  22
1                  23
1                  24
1                  25
1                  26
1                  27
1                  28
1                  29
1                  30
1                  31
1                  32
1                  33
1                  34
1                  35
1                  36
1                  37
1                  38
1                  39
1                  40
1                  41
1                  42
1                  43
1                  44
1                  45
1                  46
1                  47
1                  48
1                  49
1                  50
1                  51
1                  52
1                  53
1                  54
1                  55
1                  56
1                  57
1                  58
1                  59
1                  60
1                  61
1                  62
1                  63
1                  64
1                  65
1                  66
1                  67
1                  68
1                  69
1                  70
1                  71
1                  72
1                  73
1                  74
1                  75
1                  76
1                  77
1                  78
1                  79
1                  80
1                  81
1                  82
1                  83
1                  84
1                  85
1                  86
1                  87
1                  88
1                  89
1                  90
1                  91
1                  92
1                  93
1                  94
1                  95
1                  96
1                  97
1                  98
1                  99
1                 100
1                 101
1                 102
1                 103
1                 104
1                 105
1                 106
1                 107
1                 108
1                 109
1                 110
1                 111
1                 112
1                 113
1                 114
1                 115
1                 116
1                 117
1                 118
1                 119
1                 120
1                 121
1                 122
1                 123
1                 124
1                 125
1                 126
1                 127
1                 128
1                 129
1                 130
1                 131
1                 132
1                 133
1                 134
1                 135
1                 136
1                 137
1                 138
1                 139
1                 140
1                 141
1                 142
1                 143
POINT_DATA                 144
SCALARS phi float 1
LOOKUP_TABLE default
 -0.311040832083E-04
 -0.105631912973E+01
 -0.120074878214E+01
 -0.191216468557E+01
 -0.296845938816E+01
 -0.311288865836E+01
 -0.408540837102E+01
 -0.432406296598E+01
 -0.543734047486E+01
 -0.599754886087E+01
 -0.623620265645E+01
 -0.649362884760E+01
 -0.663805422797E+01
 -0.923073158806E+01
 -0.944596502358E+01
 -0.952271679622E+01
 -0.976136649316E+01
 -0.111428738285E+02
 -0.113581051907E+02
 -0.113133275736E+02
 -0.123696103581E+02
 -0.125140310889E+02
 -0.143997645223E+02
 -0.145050160036E+02
 -0.146680453272E+02
 -0.148832737954E+02
 -0.153986990625E+02
 -0.156373438180E+02
 -0.163119100168E+02
 -0.164171612382E+02
 -0.175280950816E+02
 -0.175597364050E+02
 -0.188852359980E+02
 -0.194402406769E+02
 -0.194718807292E+02
 -0.196369592015E+02
 -0.198370866613E+02
 -0.199423344152E+02
 -0.205440331557E+02
 -0.207592572030E+02
 -0.206932404998E+02
 -0.208376579405E+02
 -0.207973813998E+02
 -0.229654210867E+02
 -0.229970568935E+02
 -0.237223323499E+02
 -0.239609737419E+02
 -0.243225479017E+02
 -0.257130831235E+02
 -0.258183259850E+02
 -0.288414250968E+02
 -0.288730556081E+02
 -0.288676796427E+02
 -0.290828996963E+02
 -0.290672689204E+02
 -0.301235597390E+02
 -0.302679776198E+02
 -0.301985360375E+02
 -0.331526590255E+02
 -0.333913011417E+02
 -0.340367421005E+02
 -0.341419813234E+02
 -0.371650935713E+02
 -0.371967201659E+02
 -0.373908726408E+02
 -0.382980217980E+02
 -0.385132413053E+02
 -0.384471732596E+02
 -0.385915951919E+02
 -0.385221977266E+02
 -0.414762899781E+02
 -0.417149367496E+02
 -0.432668251520E+02
 -0.434671012059E+02
 -0.435723407164E+02
 -0.443231368615E+02
 -0.444675639951E+02
 -0.465954603703E+02
 -0.466270870513E+02
 -0.466216664617E+02
 -0.468368897857E+02
 -0.467919754257E+02
 -0.473522630751E+02
 -0.475909156657E+02
 -0.478482881755E+02
 -0.479927195198E+02
 -0.479525724117E+02
 -0.487040965917E+02
 -0.497604195890E+02
 -0.499048543170E+02
 -0.502441315543E+02
 -0.503462635157E+02
 -0.504867931344E+02
 -0.508774228853E+02
 -0.511160801509E+02
 -0.517907618055E+02
 -0.518960054279E+02
 -0.524976538241E+02
 -0.527128828458E+02
 -0.527895583320E+02
 -0.530282190023E+02
 -0.535888387873E+02
 -0.537575984234E+02
 -0.539898151565E+02
 -0.549191287345E+02
 -0.549507594678E+02
 -0.560228235737E+02
 -0.562380571942E+02
 -0.562762601103E+02
 -0.576667579194E+02
 -0.577720066093E+02
 -0.579349647098E+02
 -0.581502009536E+02
 -0.586558018589E+02
 -0.588079967216E+02
 -0.590174224051E+02
 -0.607951325993E+02
 -0.608267686628E+02
 -0.611919362073E+02
 -0.612971885009E+02
 -0.621522813705E+02
 -0.631040778931E+02
 -0.632093322791E+02
 -0.634565896035E+02
 -0.635310160580E+02
 -0.636334347927E+02
 -0.643203147894E+02
 -0.643519549616E+02
 -0.656774802691E+02
 -0.662324565336E+02
 -0.662640993141E+02
 -0.663384416092E+02
 -0.663608174763E+02
 -0.663916112309E+02
 -0.675896246860E+02
 -0.188852363613E+02
 -0.207973819585E+02
 -0.243225488239E+02
 -0.301985373685E+02
 -0.385221993012E+02
 -0.479525738930E+02
 -0.562762612355E+02
 -0.621522820969E+02
 -0.656774806993E+02
SCALARS phi_mu float 1
LOOKUP_TABLE default
 -0.311040832083E-04
 -0.105631912973E+01
 -0.120074878214E+01
 -0.191216468557E+01
 -0.296845938816E+01
 -0.311288865836E+01
 -0.408540837102E+01
 -0.432406296598E+01
 -0.543734047486E+01
 -0.599754886087E+01
 -0.623620265645E+01
 -0.649362884760E+01
 -0.663805422797E+01
 -0.923073158806E+01
 -0.944596502358E+01
 -0.952271679622E+01
 -0.976136649316E+01
 -0.111428738285E+02
 -0.113581051907E+02
 -0.113133275736E+02
 -0.123696103581E+02
 -0.125140310889E+02
 -0.143997645223E+02
 -0.145050160036E+02
 -0.146680453272E+02
 -0.148832737954E+02
 -0.153986990625E+02
 -0.156373438180E+02
 -0.163119100168E+02
 -0.164171612382E+02
 -0.175280950816E+02
 -0.175597364050E+02
 -0.188852359980E+02
 -0.194402406769E+02
 -0.194718807292E+02
 -0.196369592015E+02
 -0.198370866613E+02
 -0.199423344152E+02
 -0.205440331557E+02
 -0.207592572030E+02
 -0.206932404998E+02
 -0.208376579405E+02
 -0.207973813998E+02
 -0.229654210867E+02
 -0.229970568935E+02
 -0.237223323499E+02
 -0.239609737419E+02
 -0.243225479017E+02
 -0.257130831235E+02
 -0.258183259850E+02
 -0.288414250968E+02
 -0.288730556081E+02
 -0.288676796427E+02
 -0.290828996963E+02
 -0.290672689204E+02
 -0.301235597390E+02
 -0.302679776198E+02
 -0.301985360375E+02
 -0.331526590255E+02
 -0.333913011417E+02
 -0.340367421005E+02
 -0.341419813234E+02
 -0.371650935713E+02
 -0.371967201659E+02
 -0.373908726408E+02
 -0.382980217980E+02
 -0.385132413053E+02
 -0.384471732596E+02
 -0.385915951919E+02
 -0.385221977266E+02
 -0.414762899781E+02
 -0.417149367496E+02
 -0.432668251520E+02
 -0.434671012059E+02
 -0.435723407164E+02
 -0.443231368615E+02
 -0.444675639951E+02
 -0.465954603703E+02
 -0.466270870513E+02
 -0.466216664617E+02
 -0.468368897857E+02
 -0.467919754257E+02
 -0.473522630751E+02
 -0.475909156657E+02
 -0.478482881755E+02
 -0.479927195198E+02
 -0.479525724117E+02
 -0.487040965917E+02
 -0.497604195890E+02
 -0.499048543170E+02
 -0.502441315543E+02
 -0.503462635157E+02
 -0.504867931344E+02
 -0.508774228853E+02
 -0.511160801509E+02
 -0.517907618055E+02
 -0.518960054279E+02
 -0.524976538241E+02
 -0.527128828458E+02
 -0.527895583320E+02
 -0.530282190023E+02
 -0.535888387873E+02
 -0.537575984234E+02
 -0.539898151565E+02
 -0.549191287345E+02
 -0.549507594678E+02
 -0.560228235737E+02
 -0.562380571942E+02
 -0.562762601103E+02
 -0.576667579194E+02
 -0.577720066093E+02
 -0.579349647098E+02
 -0.581502009536E+02
 -0.586558018589E+02
 -0.588079967216E+02
 -0.590174224051E+02
 -0.607951325993E+02
 -0.608267686628E+02
 -0.611919362073E+02
 -0.612971885009E+02
 -0.621522813705E+02
 -0.631040778931E+02
 -0.632093322791E+02
 -0.634565896035E+02
 -0.635310160580E+02
 -0.636334347927E+02
 -0.643203147894E+02
 -0.643519549616E+02
 -0.656774802691E+02
 -0.662324565336E+02
 -0.662640993141E+02
 -0.663384416092E+02
 -0.663608174763E+02
 -0.663916112309E+02
 -0.675896246860E+02
 -0.188852363613E+02
 -0.207973819585E+02
 -0.243225488239E+02
 -0.301985373685E+02
 -0.385221993012E+02
 -0.479525738930E+02
 -0.562762612355E+02
 -0.621522820969E+02
 -0.656774806993E+02
SCALARS phi_sigma float 1
LOOKUP_TABLE default
  0.000000000000E+00
  0.000000000000E+00
  0.000000000000E+00
  0.000000000000E+00
  0.000000000000E+00
  0.000000000000E+00
  0.000000000000E+00
  0.000000000000E+00
  0.000000000000E+00
  0.000000000000E+00
  0.000000000000E+00
  0.000000000000E+00
  0.000000000000E+00
  0.000000000000E+00
  0.000000000000E+00
  0.000000000000E+00
  0.000000000000E+00
  0.000000000000E+00
  0.000000000000E+00
  0.000000000000E+00
  0.000000000000E+00
  0.000000000000E+00
  0.000000000000E+00
  0.000000000000E+00
  0.000000000000E+00
  0.000000000000E+00
  0.000000000000E+00
  0.000000000000E+00
  0.000000000000E+00
  0.000000000000E+00
  0.000000000000E+00
  0.000000000000E+00
  0.000000000000E+00
  0.000000000000E+00
  0.000000000000E+00
  0.000000000000E+00
  0.000000000000E+00
  0.000000000000E+00
  0.000000000000E+00
  0.000000000000E+00
  0.000000000000E+00
  0.000000000000E+00
  0.000000000000E+00
  0.000000000000E+00
  0.000000000000E+00
  0.000000000000E+00
  0.000000000000E+00
  0.000000000000E+00
  0.000000000000E+00
  0.000000000000E+00
  0.000000000000E+00
  0.000000000000E+00
  0.000000000000E+00
  0.000000000000E+00
  0.000000000000E+00
  0.000000000000E+00
  0.000000000000E+00
  0.000000000000E+00
  0.000000000000E+00
  0.000000000000E+00
  0.000000000000E+00
  0.000000000000E+00
  0.000000000000E+00
  0.000000000000E+00
  0.000000000000E+00
  0.000000000000E+00
  0.000000000000E+00
  0.000000000000E+00
  0.000000000000E+00
  0.000000000000E+00
  0.000000000000E+00
  0.000000000000E+00
  0.000000000000E+00
  0.000000000000E+00
  0.000000000000E+00
  0.000000000000E+00
  0.000000000000E+00
  0.000000000000E+00
  0.000000000000E+00
  0.000000000000E+00
  0.000000000000E+00
  0.000000000000E+00
  0.000000000000E+00
  0.000000000000E+00
  0.000000000000E+00
  0.000000000000E+00
  0.000000000000E+00
  0.000000000000E+00
  0.000000000000E+00
  0.000000000000E+00
  0.000000000000E+00
  0.000000000000E+00
  0.000000000000E+00
  0.000000000000E+00
  0.000000000000E+00
  0.000000000000E+00
  0.000000000000E+00
  0.000000000000E+00
  0.000000000000E+00
  0.000000000000E+00
  0.000000000000E+00
  0.000000000000E+00
  0.000000000000E+00
  0.000000000000E+00
  0.000000000000E+00
  0.000000000000E+00
  0.000000000000E+00
  0.000000000000E+00
  0.000000000000E+00
  0.000000000000E+00
  0.000000000000E+00
  0.000000000000E+00
  0.000000000000E+00
  0.000000000000E+00
  0.000000000000E+00
  0.000000000000E+00
  0.000000000000E+00
  0.000000000000E+00
  0.000000000000E+00
  0.000000000000E+00
  0.000000000000E+00
  0.000000000000E+00
  0.000000000000E+00
  0.000000000000E+00
  0.000000000000E+00
  0.000000000000E+00
  0.000000000000E+00
  0.000000000000E+00
  0.000000000000E+00
  0.000000000000E+00
  0.000000000000E+00
  0.000000000000E+00
  0.000000000000E+00
  0.000000000000E+00
  0.000000000000E+00
  0.000000000000E+00
  0.000000000000E+00
  0.000000000000E+00
  0.000000000000E+00
  0.000000000000E+00
  0.000000000000E+00
  0.000000000000E+00
  0.000000000000E+00
  0.000000000000E+00
