# vtk DataFile Version 3.0
MachLine results file. Generated by MachLine, USU AeroLab (c) 2022.
ASCII
DATASET POLYDATA
POINTS                7064 float
  0.248117048081E-05  0.000000000000E+00 -0.753360684505E-22
  0.390009530229E-01  0.000000000000E+00 -0.109216802644E+00
  0.390009530229E-01  0.000000000000E+00  0.109216802644E+00
  0.147667587429E+00  0.000000000000E+00 -0.234918546461E+00
  0.147667587429E+00  0.000000000000E+00  0.234918546461E+00
  0.161140126811E+00  0.161136763467E+00 -0.567342204492E-22
  0.200138918513E+00  0.161136784202E+00 -0.109217282026E+00
  0.200138918513E+00  0.161136784202E+00  0.109217282026E+00
  0.290267336203E+00  0.000000000000E+00 -0.347330612704E+00
  0.290267336203E+00  0.000000000000E+00  0.347330612704E+00
  0.308805753889E+00  0.161136845646E+00 -0.234918966854E+00
  0.308805753889E+00  0.161136845646E+00  0.234918966854E+00
  0.335007894265E+00  0.335004341377E+00 -0.119863089475E-22
  0.374006676601E+00  0.335004371478E+00 -0.109217238696E+00
  0.374006676601E+00  0.335004371478E+00  0.109217238696E+00
  0.451405695827E+00  0.161137052624E+00 -0.347330980480E+00
  0.451405695827E+00  0.161137052624E+00  0.347330980480E+00
  0.473467227553E+00  0.000000000000E+00 -0.436290954441E+00
  0.473467227553E+00  0.000000000000E+00  0.436290954441E+00
  0.482673530543E+00  0.335004444157E+00 -0.234918888772E+00
  0.482673530543E+00  0.335004444157E+00  0.234918888772E+00
  0.522508472950E+00  0.522504716366E+00  0.000000000000E+00
  0.561507275069E+00  0.522504756486E+00 -0.109217191547E+00
  0.561507275069E+00  0.522504756486E+00  0.109217191547E+00
  0.625273429732E+00  0.335004664083E+00 -0.347330881903E+00
  0.625273429732E+00  0.335004664083E+00  0.347330881903E+00
  0.634605647116E+00  0.161137252065E+00 -0.436291201616E+00
  0.634605647116E+00  0.161137252065E+00  0.436291201616E+00
  0.670174087105E+00  0.522504841270E+00 -0.234918819742E+00
  0.670174087105E+00  0.522504841270E+00  0.234918819742E+00
  0.689336105034E+00  0.000000000000E+00 -0.522846809678E+00
  0.689336105034E+00  0.000000000000E+00  0.522846809678E+00
  0.724592348672E+00  0.724588373564E+00 -0.536429592088E-22
  0.763591140102E+00  0.724588424374E+00 -0.109217140388E+00
  0.763591140102E+00  0.724588424374E+00  0.109217140388E+00
  0.808473398767E+00  0.335004875579E+00 -0.436291120216E+00
  0.808473398767E+00  0.335004875579E+00  0.436291120216E+00
  0.812774031945E+00  0.522505075150E+00 -0.347330805804E+00
  0.812774031945E+00  0.522505075150E+00  0.347330805804E+00
  0.850474557516E+00  0.161137351158E+00 -0.522846992743E+00
  0.850474557516E+00  0.161137351158E+00  0.522846992743E+00
  0.872257939128E+00  0.724588522168E+00 -0.234918744568E+00
  0.872257939128E+00  0.724588522168E+00  0.234918744568E+00
  0.942256171024E+00  0.942251961910E+00 -0.127801826535E-21
  0.944065572333E+00  0.000000000000E+00 -0.604289928279E+00
  0.944065572333E+00  0.000000000000E+00  0.604289928279E+00
  0.981254891470E+00  0.942252024099E+00 -0.109217085037E+00
  0.981254891470E+00  0.942252024099E+00  0.109217085037E+00
  0.995973988017E+00  0.522505299608E+00 -0.436291030581E+00
  0.995973988017E+00  0.522505299608E+00  0.436291030581E+00
  0.101485792856E+01  0.724588771058E+00 -0.347330722008E+00
  0.101485792856E+01  0.724588771058E+00  0.347330722008E+00
  0.102434236145E+01  0.335004981989E+00 -0.522846935900E+00
  0.102434236145E+01  0.335004981989E+00  0.522846935900E+00
  0.108992173615E+01  0.942252135844E+00 -0.234918677862E+00
  0.108992173615E+01  0.942252135844E+00  0.234918677862E+00
  0.110520403330E+01  0.161137444330E+00 -0.604290132511E+00
  0.110520403330E+01  0.161137444330E+00  0.604290132511E+00
  0.117654153149E+01  0.117653707225E+01  0.601761213589E-22
  0.119805781112E+01  0.724589009429E+00 -0.436290932283E+00
  0.119805781112E+01  0.724589009429E+00  0.436290932283E+00
  0.121184288325E+01  0.522505413871E+00 -0.522846810817E+00
  0.121184288325E+01  0.522505413871E+00  0.522846810817E+00
  0.121554029945E+01  0.117653714653E+01 -0.109217025314E+00
  0.121554029945E+01  0.117653714653E+01  0.109217025314E+00
  0.123252164987E+01  0.942252400848E+00 -0.347330630148E+00
  0.123252164987E+01  0.942252400848E+00  0.347330630148E+00
  0.123833332178E+01  0.000000000000E+00 -0.683992575719E+00
  0.123833332178E+01  0.000000000000E+00  0.683992575719E+00
  0.127907177119E+01  0.335005081612E+00 -0.604290012508E+00
  0.127907177119E+01  0.335005081612E+00  0.604290012508E+00
  0.132420706960E+01  0.117653727320E+01 -0.234918589542E+00
  0.132420706960E+01  0.117653727320E+01  0.234918589542E+00
  0.139947185373E+01  0.161137516738E+00 -0.683992760737E+00
  0.139947185373E+01  0.161137516738E+00  0.683992760737E+00
  0.141392675754E+01  0.724589132110E+00 -0.522846736253E+00
  0.141392675754E+01  0.724589132110E+00  0.522846736253E+00
  0.141572163672E+01  0.942252654127E+00 -0.436290824909E+00
  0.141572163672E+01  0.942252654127E+00  0.436290824909E+00
  0.142853317529E+01  0.142852844923E+01  0.127553543506E-21
  0.146657240526E+01  0.522505520421E+00 -0.604289943199E+00
  0.146657240526E+01  0.522505520421E+00  0.604289943199E+00
  0.146680696606E+01  0.117653755546E+01 -0.347330529873E+00
  0.146680696606E+01  0.117653755546E+01  0.347330529873E+00
  0.146753193045E+01  0.142852853631E+01 -0.109216961055E+00
  0.146753193045E+01  0.142852853631E+01  0.109216961055E+00
  0.157333958654E+01  0.335005159101E+00 -0.683992698276E+00
  0.157333958654E+01  0.335005159101E+00  0.683992698276E+00
  0.157619868467E+01  0.142852867891E+01 -0.234918494249E+00
  0.157619868467E+01  0.142852867891E+01  0.234918494249E+00
  0.157642056144E+01  0.000000000000E+00 -0.760516189264E+00
  0.157642056144E+01  0.000000000000E+00  0.760516189264E+00
  0.163159057413E+01  0.942252785815E+00 -0.522846592560E+00
  0.163159057413E+01  0.942252785815E+00  0.522846592560E+00
  0.165000693697E+01  0.117653782469E+01 -0.436290708060E+00
  0.165000693697E+01  0.117653782469E+01  0.436290708060E+00
  0.166865627212E+01  0.724589246086E+00 -0.604289804906E+00
  0.166865627212E+01  0.724589246086E+00  0.604289804906E+00
  0.169935572313E+01  0.169935071303E+01  0.169024916640E-22
  0.171879856266E+01  0.142852897964E+01 -0.347330420851E+00
  0.171879856266E+01  0.142852897964E+01  0.347330420851E+00
  0.173755909906E+01  0.161137591741E+00 -0.760516356356E+00
  0.173755909906E+01  0.161137591741E+00  0.760516356356E+00
  0.173835434555E+01  0.169935081364E+01 -0.109216899558E+00
  0.173835434555E+01  0.169935081364E+01  0.109216899558E+00
  0.176084021515E+01  0.522505603365E+00 -0.683992567137E+00
  0.176084021515E+01  0.522505603365E+00  0.683992567137E+00
  0.184702120201E+01  0.169935097321E+01 -0.234918391742E+00
  0.184702120201E+01  0.169935097321E+01  0.234918391742E+00
  0.186587586475E+01  0.117653796600E+01 -0.522846498523E+00
  0.186587586475E+01  0.117653796600E+01  0.522846498523E+00
  0.188632008077E+01  0.942252907738E+00 -0.604289716380E+00
  0.188632008077E+01  0.942252907738E+00  0.604289716380E+00
  0.190199851656E+01  0.142852926588E+01 -0.436290581359E+00
  0.190199851656E+01  0.142852926588E+01  0.436290581359E+00
  0.191142682723E+01  0.335005238732E+00 -0.760516232872E+00
  0.191142682723E+01  0.335005238732E+00  0.760516232872E+00
  0.196138828406E+01  0.000000000000E+00 -0.833664252954E+00
  0.196138828406E+01  0.000000000000E+00  0.833664252954E+00
  0.196292407617E+01  0.724589334880E+00 -0.683992486046E+00
  0.196292407617E+01  0.724589334880E+00  0.683992486046E+00
  0.198962106032E+01  0.169935129362E+01 -0.347330302783E+00
  0.198962106032E+01  0.169935129362E+01  0.347330302783E+00
  0.199017003531E+01  0.199016472345E+01 -0.179204840377E-22
  0.202916876266E+01  0.199016483834E+01 -0.109216825788E+00
  0.202916876266E+01  0.199016483834E+01  0.109216825788E+00
  0.209892745088E+01  0.522505687967E+00 -0.760516159807E+00
  0.209892745088E+01  0.522505687967E+00  0.760516159807E+00
  0.211786743409E+01  0.142852941745E+01 -0.522846394139E+00
  0.211786743409E+01  0.142852941745E+01  0.522846394139E+00
  0.212060548212E+01  0.117653809641E+01 -0.604289617574E+00
  0.212060548212E+01  0.117653809641E+01  0.604289617574E+00
  0.212252694648E+01  0.161137667481E+00 -0.833664346748E+00
  0.212252694648E+01  0.161137667481E+00  0.833664346748E+00
  0.213783548188E+01  0.199016501594E+01 -0.234918296716E+00
  0.213783548188E+01  0.199016501594E+01  0.234918296716E+00
  0.217282099607E+01  0.169935159800E+01 -0.436290474266E+00
  0.217282099607E+01  0.169935159800E+01  0.436290474266E+00
  0.218058787856E+01  0.942253002792E+00 -0.683992394927E+00
  0.218058787856E+01  0.942253002792E+00  0.683992394927E+00
  0.228043543846E+01  0.199016535729E+01 -0.347330175398E+00
  0.228043543846E+01  0.199016535729E+01  0.347330175398E+00
  0.229639467055E+01  0.335005318579E+00 -0.833664281975E+00
  0.229639467055E+01  0.335005318579E+00  0.833664281975E+00
  0.230101130656E+01  0.724589424811E+00 -0.760516077064E+00
  0.230101130656E+01  0.724589424811E+00  0.760516077064E+00
  0.230216808568E+01  0.230216245402E+01 -0.227993093794E-21
  0.234116679803E+01  0.230216258391E+01 -0.109216747083E+00
  0.234116679803E+01  0.230216258391E+01  0.109216747083E+00
  0.237259704239E+01  0.142852955692E+01 -0.604289508070E+00
  0.237259704239E+01  0.142852955692E+01  0.604289508070E+00
  0.238869002190E+01  0.169935176048E+01 -0.522846219438E+00
  0.238869002190E+01  0.169935176048E+01  0.522846219438E+00
  0.239635584192E+01  0.000000000000E+00 -0.902056088369E+00
  0.239635584192E+01  0.000000000000E+00  0.902056088369E+00
  0.241487327321E+01  0.117653819815E+01 -0.683992293322E+00
  0.241487327321E+01  0.117653819815E+01  0.683992293322E+00
  0.244983373656E+01  0.230216278062E+01 -0.234918179192E+00
  0.244983373656E+01  0.230216278062E+01  0.234918179192E+00
  0.246363523572E+01  0.199016568095E+01 -0.436290326871E+00
  0.246363523572E+01  0.199016568095E+01  0.436290326871E+00
[...]
POINT_DATA                7064
SCALARS phi float 1
LOOKUP_TABLE default
 -0.111022302463E-15
  0.177635683940E-14
  0.388578058619E-14
 -0.188737914186E-14
  0.688338275268E-14
 -0.477395900589E-14
 -0.710542735760E-14
 -0.666133814775E-15
  0.111022302463E-15
 -0.521804821574E-14
  0.210942374679E-14
 -0.555111512313E-15
  0.255351295664E-14
  0.321964677141E-14
  0.199840144433E-14
  0.444089209850E-15
 -0.555111512313E-14
  0.277555756156E-14
 -0.399680288865E-14
 -0.555111512313E-15
 -0.122124532709E-14
  0.333066907388E-15
 -0.105471187339E-13
  0.177635683940E-14
 -0.122124532709E-14
  0.000000000000E+00
 -0.299760216649E-14
  0.399680288865E-14
  0.666133814775E-15
  0.788258347484E-14
 -0.444089209850E-15
  0.222044604925E-15
 -0.632827124036E-14
  0.266453525910E-14
  0.288657986403E-14
  0.999200722163E-15
 -0.266453525910E-14
  0.377475828373E-14
 -0.144328993201E-14
  0.188737914186E-14
 -0.388578058619E-14
  0.455191440096E-14
 -0.111022302463E-15
  0.888178419700E-15
 -0.199840144433E-14
 -0.222044604925E-14
 -0.111022302463E-15
  0.888178419700E-15
 -0.188737914186E-14
 -0.466293670343E-14
 -0.777156117238E-15
  0.588418203051E-14
 -0.432986979604E-14
 -0.377475828373E-14
 -0.111022302463E-15
 -0.188737914186E-14
 -0.732747196253E-14
  0.266453525910E-14
 -0.277555756156E-14
 -0.555111512313E-15
 -0.333066907388E-15
  0.144328993201E-14
 -0.355271367880E-14
 -0.288657986403E-14
  0.188737914186E-14
  0.888178419700E-15
 -0.432986979604E-14
  0.255351295664E-14
  0.111022302463E-14
  0.666133814775E-14
  0.199840144433E-14
 -0.222044604925E-14
 -0.111022302463E-15
  0.133226762955E-14
  0.999200722163E-15
  0.111022302463E-14
 -0.188737914186E-14
 -0.222044604925E-15
  0.555111512313E-15
  0.166533453694E-14
 -0.777156117238E-15
  0.111022302463E-14
 -0.444089209850E-15
  0.177635683940E-14
  0.477395900589E-14
 -0.310862446895E-14
  0.677236045021E-14
 -0.377475828373E-14
  0.111022302463E-15
 -0.377475828373E-14
 -0.688338275268E-14
 -0.111022302463E-14
  0.177635683940E-14
  0.255351295664E-14
  0.888178419700E-15
 -0.255351295664E-14
  0.233146835171E-14
 -0.310862446895E-14
  0.288657986403E-14
  0.466293670343E-14
  0.177635683940E-14
  0.632827124036E-14
  0.177635683940E-14
 -0.455191440096E-14
  0.421884749358E-14
  0.544009282066E-14
  0.555111512313E-15
  0.222044604925E-15
 -0.388578058619E-14
 -0.632827124036E-14
 -0.111022302463E-15
  0.477395900589E-14
 -0.222044604925E-15
 -0.111022302463E-14
  0.333066907388E-14
 -0.111022302463E-15
 -0.210942374679E-14
  0.333066907388E-14
 -0.210942374679E-14
 -0.111022302463E-15
 -0.288657986403E-14
  0.255351295664E-14
 -0.399680288865E-14
  0.544009282066E-14
 -0.166533453694E-14
 -0.333066907388E-14
  0.610622663544E-14
 -0.333066907388E-14
 -0.710542735760E-14
  0.166533453694E-14
  0.310862446895E-14
  0.244249065418E-14
  0.521804821574E-14
 -0.277555756156E-14
  0.122124532709E-14
  0.999200722163E-15
  0.244249065418E-14
 -0.666133814775E-15
  0.105471187339E-13
 -0.666133814775E-15
 -0.166533453694E-14
  0.277555756156E-14
  0.555111512313E-14
 -0.344169137634E-14
 -0.377475828373E-14
  0.166533453694E-14
 -0.155431223448E-14
  0.222044604925E-15
  0.111022302463E-15
  0.111022302463E-15
  0.999200722163E-15
  0.499600361081E-14
 -0.677236045021E-14
 -0.555111512313E-14
 -0.555111512313E-15
  0.266453525910E-14
 -0.632827124036E-14
 -0.199840144433E-14
  0.210942374679E-14
 -0.754951656745E-14
  0.444089209850E-15
  0.854871728961E-14
  0.210942374679E-14
 -0.277555756156E-14
 -0.222044604925E-15
  0.166533453694E-14
 -0.122124532709E-14
  0.599520433298E-14
  0.555111512313E-15
 -0.999200722163E-15
 -0.288657986403E-14
  0.299760216649E-14
 -0.111022302463E-15
  0.399680288865E-14
  0.188737914186E-14
  0.455191440096E-14
  0.555111512313E-15
  0.344169137634E-14
  0.321964677141E-14
  0.399680288865E-14
 -0.222044604925E-15
 -0.144328993201E-14
  0.109912079438E-13
  0.444089209850E-15
 -0.111022302463E-14
  0.333066907388E-14
  0.532907051820E-14
  0.577315972805E-14
 -0.399680288865E-14
  0.166533453694E-14
  0.344169137634E-14
 -0.333066907388E-15
 -0.255351295664E-14
 -0.399680288865E-14
 -0.133226762955E-14
  0.210942374679E-14
 -0.266453525910E-14
  0.510702591328E-14
  0.133226762955E-14
 -0.333066907388E-15
  0.488498130835E-14
  0.000000000000E+00
 -0.555111512313E-15
 -0.111022302463E-14
 -0.177635683940E-14
  0.399680288865E-14
  0.444089209850E-14
 -0.666133814775E-15
  0.277555756156E-14
 -0.199840144433E-14
  0.621724893790E-14
 -0.155431223448E-14
  0.166533453694E-14
  0.455191440096E-14
 -0.222044604925E-15
  0.111022302463E-14
 -0.666133814775E-15
 -0.444089209850E-15
  0.388578058619E-14
 -0.444089209850E-15
  0.210942374679E-14
  0.133226762955E-14
  0.310862446895E-14
  0.233146835171E-14
  0.222044604925E-14
 -0.111022302463E-14
 -0.122124532709E-14
 -0.222044604925E-15
 -0.199840144433E-14
 -0.199840144433E-14
  0.233146835171E-14
 -0.666133814775E-15
  0.444089209850E-15
 -0.333066907388E-15
  0.621724893790E-14
  0.188737914186E-14
  0.555111512313E-15
 -0.444089209850E-15
  0.766053886991E-14
 -0.244249065418E-14
 -0.399680288865E-14
 -0.210942374679E-14
  0.111022302463E-14
  0.166533453694E-14
 -0.122124532709E-14
 -0.321964677141E-14
  0.566213742559E-14
 -0.166533453694E-14
 -0.666133814775E-15
  0.333066907388E-15
 -0.510702591328E-14
  0.410782519111E-14
 -0.610622663544E-14
  0.222044604925E-14
  0.455191440096E-14
  0.222044604925E-14
  0.999200722163E-15
  0.210942374679E-14
  0.222044604925E-14
  0.666133814775E-15
  0.144328993201E-14
  0.266453525910E-14
 -0.999200722163E-15
 -0.399680288865E-14
 -0.477395900589E-14
  0.321964677141E-14
 -0.111022302463E-15
  0.488498130835E-14
 -0.555111512313E-15
  0.122124532709E-14
  0.555111512313E-15
 -0.321964677141E-14
  0.222044604925E-14
  0.377475828373E-14
  0.000000000000E+00
  0.399680288865E-14
  0.210942374679E-14
 -0.321964677141E-14
 -0.222044604925E-14
 -0.466293670343E-14
  0.166533453694E-14
 -0.432986979604E-14
  0.166533453694E-14
 -0.377475828373E-14
 -0.310862446895E-14
  0.144328993201E-14
  0.199840144433E-14
 -0.377475828373E-14
 -0.333066907388E-14
 -0.105471187339E-13
 -0.321964677141E-14
 -0.144328993201E-14
  0.333066907388E-15
  0.321964677141E-14
 -0.310862446895E-14
 -0.288657986403E-14
  0.333066907388E-15
  0.321964677141E-14
 -0.133226762955E-14
  0.222044604925E-15
 -0.577315972805E-14
  0.255351295664E-14
 -0.410782519111E-14
  0.111022302463E-14
 -0.710542735760E-14
  0.111022302463E-14
 -0.144328993201E-14
 -0.555111512313E-15
  0.477395900589E-14
 -0.666133814775E-15
 -0.666133814775E-15
  0.299760216649E-14
  0.199840144433E-14
  0.555111512313E-15
 -0.366373598126E-14
  0.244249065418E-14
 -0.222044604925E-15
 -0.166533453694E-14
  0.466293670343E-14
 -0.477395900589E-14
 -0.310862446895E-14
  0.222044604925E-15
 -0.111022302463E-15
  0.166533453694E-14
 -0.366373598126E-14
 -0.510702591328E-14
  0.255351295664E-14
  0.255351295664E-14
  0.632827124036E-14
 -0.233146835171E-14
  0.233146835171E-14
 -0.144328993201E-14
  0.355271367880E-14
  0.288657986403E-14
 -0.277555756156E-14
  0.244249065418E-14
 -0.810462807976E-14
 -0.177635683940E-14
 -0.421884749358E-14
 -0.444089209850E-15
  0.144328993201E-14
  0.488498130835E-14
 -0.299760216649E-14
 -0.610622663544E-14
 -0.310862446895E-14
 -0.111022302463E-14
 -0.288657986403E-14
  0.366373598126E-14
  0.444089209850E-15
 -0.266453525910E-14
  0.133226762955E-14
 -0.777156117238E-15
  0.222044604925E-15
 -0.144328993201E-14
  0.466293670343E-14
  0.155431223448E-14
 -0.199840144433E-14
  0.108801856413E-13
 -0.188737914186E-14
 -0.333066907388E-14
 -0.233146835171E-14
  0.333066907388E-15
  0.455191440096E-14
 -0.111022302463E-15
  0.222044604925E-14
 -0.799360577730E-14
 -0.444089209850E-15
 -0.144328993201E-14
  0.144328993201E-14
  0.188737914186E-14
 -0.205391259556E-14
 -0.210942374679E-14
 -0.133226762955E-14
 -0.843769498715E-14
  0.677236045021E-14
  0.821565038223E-14
  0.111022302463E-14
  0.000000000000E+00
  0.277555756156E-14
 -0.333066907388E-15
  0.111022302463E-14
 -0.188737914186E-14
 -0.155431223448E-14
  0.432986979604E-14
  0.199840144433E-14
  0.138777878078E-14
  0.555111512313E-15
 -0.116573417586E-14
 -0.466293670343E-14
 -0.444089209850E-15
 -0.155431223448E-14
 -0.299760216649E-14
 -0.288657986403E-14
 -0.166533453694E-14
 -0.555111512313E-15
 -0.444089209850E-14
 -0.233146835171E-14
  0.199840144433E-14
 -0.233146835171E-14
 -0.122124532709E-14
 -0.677236045021E-14
 -0.310862446895E-14
  0.199840144433E-14
  0.349720252757E-14
  0.288657986403E-14
  0.122124532709E-14
  0.555111512313E-15
  0.277555756156E-15
 -0.466293670343E-14
  0.122124532709E-14
  0.477395900589E-14
  0.177635683940E-14
  0.777156117238E-15
  0.144328993201E-14
  0.144328993201E-14
  0.127675647832E-14
  0.432986979604E-14
  0.943689570931E-15
  0.566213742559E-14
 -0.366373598126E-14
 -0.366373598126E-14
 -0.299760216649E-14
 -0.277555756156E-14
 -0.666133814775E-15
 -0.111022302463E-15
 -0.111022302463E-15
 -0.499600361081E-15
 -0.188737914186E-14
  0.238697950294E-14
  0.333066907388E-15
 -0.410782519111E-14
  0.210942374679E-14
  0.155431223448E-14
 -0.155431223448E-14
  0.632827124036E-14
 -0.133226762955E-14
  0.466293670343E-14
 -0.954791801178E-14
 -0.421884749358E-14
 -0.129896093881E-13
  0.377475828373E-14
 -0.444089209850E-15
 -0.488498130835E-14
  0.144328993201E-14
 -0.210942374679E-14
  0.122124532709E-14
 -0.777156117238E-15
  0.111022302463E-14
  0.843769498715E-14
  0.111022302463E-14
  0.444089209850E-14
  0.466293670343E-14
 -0.721644966006E-15
 -0.133226762955E-14
  0.888178419700E-15
  0.477395900589E-14
 -0.444089209850E-15
 -0.566213742559E-14
 -0.111022302463E-15
 -0.155431223448E-14
  0.333066907388E-15
  0.277555756156E-14
  0.666133814775E-15
 -0.144328993201E-14
 -0.333066907388E-15
  0.610622663544E-14
  0.222044604925E-14
 -0.577315972805E-14
  0.222044604925E-14
  0.233146835171E-14
  0.111022302463E-15
 -0.233146835171E-14
  0.233146835171E-14
 -0.666133814775E-15
 -0.355271367880E-14
 -0.388578058619E-15
 -0.255351295664E-14
 -0.566213742559E-14
  0.122124532709E-14
 -0.210942374679E-14
 -0.421884749358E-14
  0.105471187339E-14
 -0.104360964315E-13
 -0.177635683940E-14
  0.888178419700E-15
  0.111022302463E-14
 -0.288657986403E-14
  0.421884749358E-14
 -0.299760216649E-14
 -0.111022302463E-14
  0.310862446895E-14
  0.310862446895E-14
  0.444089209850E-14
  0.133226762955E-14
 -0.777156117238E-15
 -0.333066907388E-15
 -0.233146835171E-14
 -0.222044604925E-15
 -0.188737914186E-14
 -0.466293670343E-14
 -0.444089209850E-15
  0.194289029309E-14
  0.366373598126E-14
  0.199840144433E-14
 -0.377475828373E-14
 -0.444089209850E-15
  0.888178419700E-15
 -0.127675647832E-14
  0.621724893790E-14
 -0.160982338571E-14
  0.377475828373E-14
 -0.333066907388E-15
 -0.344169137634E-14
  0.444089209850E-15
  0.321964677141E-14
  0.388578058619E-14
  0.566213742559E-14
 -0.388578058619E-15
 -0.255351295664E-14
 -0.943689570931E-15
  0.777156117238E-15
 -0.122124532709E-14
 -0.621724893790E-14
 -0.333066907388E-14
  0.233146835171E-14
  0.266453525910E-14
  0.149880108324E-14
  0.510702591328E-14
 -0.122124532709E-14
  0.821565038223E-14
  0.144328993201E-14
  0.333066907388E-14
  0.000000000000E+00
 -0.577315972805E-14
 -0.199840144433E-14
 -0.455191440096E-14
  0.388578058619E-15
  0.166533453694E-14
  0.138777878078E-14
 -0.205391259556E-14
 -0.333066907388E-15
 -0.111022302463E-14
 -0.122124532709E-14
 -0.144328993201E-14
 -0.144328993201E-14
 -0.133226762955E-14
  0.721644966006E-15
 -0.188737914186E-14
  0.177635683940E-14
  0.344169137634E-14
 -0.999200722163E-15
  0.566213742559E-14
 -0.233146835171E-14
 -0.799360577730E-14
  0.888178419700E-15
  0.666133814775E-15
 -0.172084568817E-14
  0.666133814775E-15
 -0.111022302463E-14
  0.555111512313E-15
 -0.116573417586E-14
 -0.333066907388E-14
  0.999200722163E-15
 -0.333066907388E-14
 -0.488498130835E-14
  0.632827124036E-14
  0.149880108324E-14
  0.144328993201E-14
  0.832667268469E-15
  0.177635683940E-14
 -0.155431223448E-14
 -0.333066907388E-15
  0.155431223448E-14
 -0.333066907388E-14
  0.721644966006E-14
 -0.222044604925E-14
 -0.138777878078E-14
  0.205391259556E-14
  0.421884749358E-14
  0.444089209850E-15
  0.299760216649E-14
 -0.166533453694E-15
 -0.106581410364E-13
 -0.388578058619E-14
 -0.166533453694E-14
  0.721644966006E-15
 -0.105471187339E-13
  0.843769498715E-14
  0.210942374679E-14
  0.194289029309E-14
 -0.233146835171E-14
  0.244249065418E-14
 -0.621724893790E-14
 -0.188737914186E-14
  0.122124532709E-14
  0.721644966006E-15
  0.482947015712E-14
  0.188737914186E-14
  0.333066907388E-15
  0.222044604925E-14
  0.333066907388E-14
 -0.111022302463E-15
  0.666133814775E-15
 -0.222044604925E-15
 -0.160982338571E-14
 -0.638378239159E-15
 -0.360822483003E-14
  0.305311331772E-15
  0.510702591328E-14
 -0.122124532709E-14
 -0.277555756156E-15
 -0.582867087928E-15
  0.821565038223E-14
  0.377475828373E-14
  0.721644966006E-15
  0.666133814775E-15
  0.277555756156E-14
  0.333066907388E-15
  0.549560397189E-14
  0.138777878078E-14
 -0.166533453694E-14
  0.155431223448E-14
 -0.149880108324E-14
  0.943689570931E-15
  0.277555756156E-14
  0.333066907388E-14
  0.299760216649E-14
  0.527355936697E-15
  0.355271367880E-14
 -0.222044604925E-15
  0.366373598126E-14
 -0.777156117238E-15
 -0.888178419700E-15
  0.277555756156E-14
  0.766053886991E-14
  0.888178419700E-14
  0.444089209850E-15
  0.210942374679E-14
 -0.166533453694E-14
  0.477395900589E-14
  0.915933995316E-15
  0.288657986403E-14
  0.111022302463E-15
  0.133226762955E-14
  0.366373598126E-14
  0.205391259556E-14
  0.749400541622E-15
 -0.366373598126E-14
  0.166533453694E-14
 -0.255351295664E-14
  0.277555756156E-16
  0.888178419700E-15
  0.210942374679E-14
  0.199840144433E-14
 -0.111022302463E-15
  0.854871728961E-14
 -0.166533453694E-14
  0.000000000000E+00
 -0.999200722163E-15
 -0.888178419700E-14
 -0.160982338571E-14
 -0.355271367880E-14
  0.111022302463E-15
  0.932587340685E-14
 -0.721644966006E-15
 -0.388578058619E-15
 -0.155431223448E-14
 -0.588418203051E-14
  0.000000000000E+00
  0.432986979604E-14
  0.333066907388E-15
 -0.188737914186E-14
  0.832667268469E-15
  0.688338275268E-14
 -0.222044604925E-15
 -0.122124532709E-14
  0.666133814775E-15
  0.371924713249E-14
 -0.208166817117E-15
 -0.310862446895E-14
 -0.333066907388E-14
 -0.388578058619E-15
 -0.388578058619E-15
  0.183186799063E-14
  0.321964677141E-14
  0.999200722163E-15
 -0.122124532709E-14
  0.277555756156E-14
  0.488498130835E-14
  0.421884749358E-14
  0.155431223448E-14
  0.599520433298E-14
 -0.943689570931E-15
 -0.233146835171E-14
 -0.122124532709E-14
 -0.305311331772E-15
 -0.144328993201E-14
 -0.205391259556E-14
 -0.327515792264E-14
  0.333066907388E-15
  0.222044604925E-15
  0.366373598126E-14
  0.477395900589E-14
 -0.777156117238E-15
  0.105471187339E-14
 -0.638378239159E-15
  0.155431223448E-14
 -0.155431223448E-14
  0.344169137634E-14
 -0.435762537165E-14
  0.177635683940E-14
 -0.266453525910E-14
 -0.888178419700E-15
  0.555111512313E-15
 -0.222044604925E-15
 -0.228983498829E-14
 -0.999200722163E-15
  0.777156117238E-15
  0.299760216649E-14
  0.177635683940E-14
 -0.199840144433E-14
 -0.122124532709E-14
  0.410782519111E-14
  0.183186799063E-14
 -0.111022302463E-15
 -0.172084568817E-14
 -0.777156117238E-15
 -0.957567358739E-15
 -0.777156117238E-15
 -0.288657986403E-14
  0.000000000000E+00
 -0.183186799063E-14
  0.166533453694E-14
  0.444089209850E-15
 -0.721644966006E-15
 -0.164451785523E-14
  0.377475828373E-14
  0.122124532709E-14
  0.477395900589E-14
 -0.277555756156E-14
  0.721644966006E-15
 -0.860422844084E-15
  0.205391259556E-14
  0.299066327258E-14
  0.577315972805E-14
  0.000000000000E+00
  0.222044604925E-15
  0.777156117238E-15
 -0.355271367880E-14
  0.999200722163E-15
 -0.136696209907E-14
  0.327515792264E-14
  0.555111512313E-15
  0.102140518266E-13
 -0.444089209850E-15
 -0.999200722163E-15
 -0.388578058619E-15
 -0.655031584529E-14
 -0.655031584529E-14
 -0.205391259556E-14
  0.846545056277E-15
 -0.877076189454E-14
 -0.122124532709E-14
  0.105471187339E-14
 -0.113103970634E-14
  0.155431223448E-14
 -0.105471187339E-14
 -0.860422844084E-15
 -0.507233144376E-14
 -0.377475828373E-14
 -0.177635683940E-14
 -0.310862446895E-14
  0.266453525910E-14
  0.277555756156E-14
 -0.999200722163E-15
  0.427435864481E-14
 -0.188737914186E-14
 -0.333066907388E-15
 -0.138777878078E-14
 -0.172084568817E-14
  0.149880108324E-14
  0.144328993201E-14
 -0.260902410787E-14
 -0.197064586871E-14
 -0.153176082929E-14
  0.144328993201E-14
  0.347291639891E-14
 -0.616173778667E-14
  0.825728374565E-15
  0.721644966006E-14
 -0.177635683940E-14
 -0.144328993201E-14
  0.721644966006E-15
  0.366373598126E-14
  0.355271367880E-14
  0.388578058619E-14
 -0.888178419700E-15
 -0.111022302463E-15
 -0.158374832346E-14
 -0.638378239159E-15
 -0.314331893847E-14
  0.721644966006E-14
  0.777156117238E-15
  0.296984659087E-14
 -0.115532583500E-14
 -0.111022302463E-14
 -0.141553435640E-14
 -0.555111512313E-15
 -0.166533453694E-15
  0.832667268469E-14
 -0.721644966006E-15
  0.510702591328E-14
  0.999200722163E-15
  0.152655665886E-14
 -0.388578058619E-15
 -0.172431513512E-14
  0.494049245958E-14
 -0.138777878078E-16
 -0.222044604925E-14
  0.544009282066E-14
 -0.532907051820E-14
  0.388578058619E-15
  0.000000000000E+00
 -0.610622663544E-15
 -0.444089209850E-15
  0.104083408559E-14
 -0.921485110439E-14
  0.000000000000E+00
 -0.555111512313E-15
  0.222044604925E-15
  0.244249065418E-14
  0.333066907388E-15
  0.399680288865E-14
 -0.172084568817E-14
 -0.388578058619E-14
  0.139428399382E-14
  0.149880108324E-14
  0.166533453694E-15
  0.141553435640E-14
 -0.387190279838E-14
  0.111022302463E-14
  0.103389519168E-14
 -0.444089209850E-15
  0.222044604925E-15
 -0.177635683940E-14
 -0.388578058619E-15
  0.194289029309E-15
  0.614092110496E-15
 -0.666133814775E-14
 -0.362904151174E-14
 -0.777156117238E-15
 -0.222044604925E-15
 -0.210942374679E-14
 -0.277555756156E-14
 -0.222044604925E-15
 -0.444089209850E-15
 -0.494049245958E-14
  0.888178419700E-15
 -0.285882428841E-14
  0.310168557505E-14
  0.127675647832E-14
 -0.252922682797E-14
 -0.283106871279E-14
 -0.999200722163E-15
  0.288657986403E-14
  0.255351295664E-14
  0.155431223448E-14
 -0.141553435640E-14
 -0.197064586871E-14
 -0.495437024739E-14
 -0.566213742559E-14
  0.555111512313E-15
 -0.199840144433E-14
  0.283106871279E-14
  0.305311331772E-15
 -0.278943534937E-14
  0.294209101526E-14
  0.832667268469E-15
  0.197064586871E-14
 -0.200187089128E-14
 -0.138777878078E-15
 -0.215799600412E-14
  0.599520433298E-14
  0.466293670343E-14
  0.247718512369E-14
 -0.865973959208E-14
  0.133226762955E-14
  0.277555756156E-14
  0.477395900589E-14
 -0.999200722163E-15
 -0.874300631892E-15
 -0.174860126378E-14
  0.480171458150E-14
 -0.111022302463E-14
  0.233146835171E-14
 -0.804911692853E-15
  0.130451205393E-14
 -0.888178419700E-15
  0.111022302463E-15
  0.444089209850E-15
  0.144328993201E-14
  0.116573417586E-14
  0.137390099297E-14
  0.607847105982E-14
  0.172084568817E-14
  0.344169137634E-14
  0.888178419700E-15
 -0.673072708679E-15
  0.252575738102E-14
  0.330291349826E-14
  0.588418203051E-14
  0.405231403988E-14
  0.555111512313E-16
 -0.291433543964E-14
 -0.226359729572E-14
  0.244249065418E-14
 -0.388578058619E-15
 -0.344169137634E-14
  0.222044604925E-14
  0.158206781009E-14
  0.634214902817E-14
  0.277555756156E-14
 -0.277555756156E-14
  0.244249065418E-14
 -0.277555756156E-15
  0.410782519111E-14
  0.321964677141E-14
 -0.571764857682E-14
  0.228983498829E-14
  0.278943534937E-14
 -0.632827124036E-14
 -0.222044604925E-14
  0.396904731303E-14
 -0.459354776439E-14
  0.277555756156E-15
 -0.596744875736E-15
 -0.277555756156E-16
 -0.810462807976E-14
 -0.338618022511E-14
  0.444089209850E-15
 -0.421884749358E-14
  0.152655665886E-14
 -0.915933995316E-15
  0.388578058619E-14
  0.388578058619E-15
  0.241126563161E-14
 -0.346944695195E-14
  0.444089209850E-15