# vtk DataFile Version 3.0
MachLine results file. Generated by MachLine, USU AeroLab (c) 2022.
ASCII
DATASET POLYDATA
POINTS                 160 float
  0.190000000000E+02  0.000000000000E+00  0.000000000000E+00
  0.993983834531E+04  0.000000000000E+00  0.109527075012E+04
  0.191611385345E+02  0.161138445139E+00  0.000000000000E+00
  0.993984028568E+04  0.161138445139E+00  0.109525317448E+04
  0.193350086212E+02  0.335006117821E+00  0.000000000000E+00
  0.993984237936E+04  0.335006117821E+00  0.109523421018E+04
  0.195225105286E+02  0.522506594658E+00  0.000000000000E+00
  0.993984463719E+04  0.522506594658E+00  0.109521375905E+04
  0.197245941162E+02  0.724590361118E+00  0.000000000000E+00
  0.993984707060E+04  0.724590361118E+00  0.109519171746E+04
  0.199422607422E+02  0.942254066467E+00  0.000000000000E+00
  0.993984969166E+04  0.942254066467E+00  0.109516797621E+04
  0.201765460968E+02  0.117653930187E+01  0.000000000000E+00
  0.993985251283E+04  0.117653930187E+01  0.109514242233E+04
  0.204285392761E+02  0.142853081226E+01  0.000000000000E+00
  0.993985554724E+04  0.142853081226E+01  0.109511493702E+04
  0.206993637085E+02  0.169935321808E+01  0.000000000000E+00
  0.993985880840E+04  0.169935321808E+01  0.109508539776E+04
  0.209901790619E+02  0.199016737938E+01  0.000000000000E+00
  0.993986231029E+04  0.199016737938E+01  0.109505367806E+04
  0.213021793365E+02  0.230216526985E+01  0.000000000000E+00
  0.993986606728E+04  0.230216526985E+01  0.109501964769E+04
  0.216365795135E+02  0.263656377792E+01  0.000000000000E+00
  0.993987009400E+04  0.263656377792E+01  0.109498317412E+04
  0.219946155548E+02  0.299459671974E+01  0.000000000000E+00
  0.993987440533E+04  0.299459671974E+01  0.109494412255E+04
  0.223775272369E+02  0.337750577927E+01  0.000000000000E+00
  0.993987901621E+04  0.337750577927E+01  0.109490235775E+04
  0.227865524292E+02  0.378652930260E+01  0.000000000000E+00
  0.993988394154E+04  0.378652930260E+01  0.109485774471E+04
  0.232229156494E+02  0.422288990021E+01  0.000000000000E+00
  0.993988919605E+04  0.422288990021E+01  0.109481014986E+04
  0.236878089905E+02  0.468778085709E+01  0.000000000000E+00
  0.993989479412E+04  0.468778085709E+01  0.109475944319E+04
  0.241823806763E+02  0.518234777451E+01  0.000000000000E+00
  0.993990074957E+04  0.518234777451E+01  0.109470549946E+04
  0.247077083588E+02  0.570767307281E+01  0.000000000000E+00
  0.993990707536E+04  0.570767307281E+01  0.109464820112E+04
  0.252647914886E+02  0.626475334167E+01  0.000000000000E+00
  0.993991378355E+04  0.626475334167E+01  0.109458743916E+04
  0.258545246124E+02  0.685448169708E+01  0.000000000000E+00
  0.993992088489E+04  0.685448169708E+01  0.109452311601E+04
  0.264776668549E+02  0.747762155533E+01  0.000000000000E+00
  0.993992838853E+04  0.747762155533E+01  0.109445514887E+04
  0.271348342896E+02  0.813478469849E+01  0.000000000000E+00
  0.993993630189E+04  0.813478469849E+01  0.109438347056E+04
  0.278264636993E+02  0.882640838623E+01  0.000000000000E+00
  0.993994463023E+04  0.882640838623E+01  0.109430803342E+04
  0.285527858734E+02  0.955272769928E+01  0.000000000000E+00
  0.993995337632E+04  0.955272769928E+01  0.109422881228E+04
  0.293138179779E+02  0.103137550354E+02  0.000000000000E+00
  0.993996254038E+04  0.103137550354E+02  0.109414580527E+04
  0.301093215942E+02  0.111092538834E+02  0.000000000000E+00
  0.993997211953E+04  0.111092538834E+02  0.109405903841E+04
  0.309387969971E+02  0.119387235641E+02  0.000000000000E+00
  0.993998210776E+04  0.119387235641E+02  0.109396856618E+04
  0.318014545441E+02  0.128013763428E+02  0.000000000000E+00
  0.993999249555E+04  0.128013763428E+02  0.109387447472E+04
  0.326962089539E+02  0.136961250305E+02  0.000000000000E+00
  0.994000326984E+04  0.136961250305E+02  0.109377688241E+04
  0.336216621399E+02  0.146215744019E+02  0.000000000000E+00
  0.994001441380E+04  0.146215744019E+02  0.109367594173E+04
  0.345761108398E+02  0.155760145187E+02  0.000000000000E+00
  0.994002590691E+04  0.155760145187E+02  0.109357183846E+04
  0.355575256348E+02  0.165574264526E+02  0.000000000000E+00
  0.994003772473E+04  0.165574264526E+02  0.109346479396E+04
  0.365635871887E+02  0.175634803772E+02  0.000000000000E+00
  0.994004983934E+04  0.175634803772E+02  0.109335506120E+04
  0.375916786194E+02  0.185915622711E+02  0.000000000000E+00
  0.994006221922E+04  0.185915622711E+02  0.109324292560E+04
  0.386389083862E+02  0.196387882233E+02  0.000000000000E+00
  0.994007482957E+04  0.196387882233E+02  0.109312870255E+04
  0.397021560669E+02  0.207020301819E+02  0.000000000000E+00
  0.994008763279E+04  0.207020301819E+02  0.109301273240E+04
  0.407780914307E+02  0.217779560089E+02  0.000000000000E+00
  0.994010058879E+04  0.217779560089E+02  0.109289537839E+04
  0.418632049561E+02  0.228630657196E+02  0.000000000000E+00
  0.994011365532E+04  0.228630657196E+02  0.109277702330E+04
  0.429538803101E+02  0.239537334442E+02  0.000000000000E+00
  0.994012678881E+04  0.239537334442E+02  0.109265806157E+04
  0.440464210510E+02  0.250462665558E+02  0.000000000000E+00
  0.994013994477E+04  0.250462665558E+02  0.109253889638E+04
  0.451370964050E+02  0.261369342804E+02  0.000000000000E+00
  0.994015307827E+04  0.261369342804E+02  0.109241993465E+04
  0.462222099304E+02  0.272220439911E+02  0.000000000000E+00
  0.994016614479E+04  0.272220439911E+02  0.109230157956E+04
  0.472981452942E+02  0.282979698181E+02  0.000000000000E+00
  0.994017910080E+04  0.282979698181E+02  0.109218422555E+04
  0.483613929749E+02  0.293612117767E+02  0.000000000000E+00
  0.994019190402E+04  0.293612117767E+02  0.109206825540E+04
  0.494086227417E+02  0.304084377289E+02  0.000000000000E+00
  0.994020451436E+04  0.304084377289E+02  0.109195403235E+04
  0.504367141724E+02  0.314365196228E+02  0.000000000000E+00
  0.994021689425E+04  0.314365196228E+02  0.109184189675E+04
  0.514427719116E+02  0.324425735474E+02  0.000000000000E+00
  0.994022900881E+04  0.324425735474E+02  0.109173216440E+04
  0.524241905212E+02  0.334239845276E+02  0.000000000000E+00
  0.994024082668E+04  0.334239845276E+02  0.109162511949E+04
  0.533786354065E+02  0.343784255981E+02  0.000000000000E+00
  0.994025231974E+04  0.343784255981E+02  0.109152101664E+04
  0.543040924072E+02  0.353038749695E+02  0.000000000000E+00
  0.994026346374E+04  0.353038749695E+02  0.109142007554E+04
  0.551988449097E+02  0.361986236572E+02  0.000000000000E+00
  0.994027423801E+04  0.361986236572E+02  0.109132248344E+04
  0.560615043640E+02  0.370612754822E+02  0.000000000000E+00
  0.994028462583E+04  0.370612754822E+02  0.109122839177E+04
  0.568909797668E+02  0.378907470703E+02  0.000000000000E+00
  0.994029461406E+04  0.378907470703E+02  0.109113791954E+04
  0.576864814758E+02  0.386862449646E+02  0.000000000000E+00
  0.994030419318E+04  0.386862449646E+02  0.109105115288E+04
  0.584475135803E+02  0.394472732544E+02  0.000000000000E+00
  0.994031335724E+04  0.394472732544E+02  0.109096814588E+04
  0.591738395691E+02  0.401735916138E+02  0.000000000000E+00
  0.994032210338E+04  0.401735916138E+02  0.109088892433E+04
  0.598654670715E+02  0.408652153015E+02  0.000000000000E+00
  0.994033043170E+04  0.408652153015E+02  0.109081348739E+04
  0.605226325989E+02  0.415223770142E+02  0.000000000000E+00
  0.994033834504E+04  0.415223770142E+02  0.109074180928E+04
  0.611457786560E+02  0.421455192566E+02  0.000000000000E+00
  0.994034584872E+04  0.421455192566E+02  0.109067384173E+04
  0.617355079651E+02  0.427352447510E+02  0.000000000000E+00
  0.994035295002E+04  0.427352447510E+02  0.109060951900E+04
  0.622925949097E+02  0.432923278809E+02  0.000000000000E+00
  0.994035965825E+04  0.432923278809E+02  0.109054875663E+04
  0.628179206848E+02  0.438176536560E+02  0.000000000000E+00
  0.994036598402E+04  0.438176536560E+02  0.109049145849E+04
  0.633124923706E+02  0.443122177124E+02  0.000000000000E+00
  0.994037193946E+04  0.443122177124E+02  0.109043751476E+04
  0.637773857117E+02  0.447771110535E+02  0.000000000000E+00
  0.994037753753E+04  0.447771110535E+02  0.109038680809E+04
  0.642137451172E+02  0.452134704590E+02  0.000000000000E+00
  0.994038279201E+04  0.452134704590E+02  0.109033921366E+04
  0.646227722168E+02  0.456224937439E+02  0.000000000000E+00
  0.994038771736E+04  0.456224937439E+02  0.109029460041E+04
  0.650056838989E+02  0.460054016113E+02  0.000000000000E+00
  0.994039232823E+04  0.460054016113E+02  0.109025283561E+04
  0.653637237549E+02  0.463634376526E+02  0.000000000000E+00
  0.994039663961E+04  0.463634376526E+02  0.109021378363E+04
  0.656981201172E+02  0.466978340149E+02  0.000000000000E+00
  0.994040066629E+04  0.466978340149E+02  0.109017731047E+04
  0.660101242065E+02  0.470098342896E+02  0.000000000000E+00
  0.994040442332E+04  0.470098342896E+02  0.109014327968E+04
  0.663009338379E+02  0.473006477356E+02  0.000000000000E+00
  0.994040792514E+04  0.473006477356E+02  0.109011156060E+04
  0.665717620850E+02  0.475714683533E+02  0.000000000000E+00
  0.994041118635E+04  0.475714683533E+02  0.109008202093E+04
  0.668237533569E+02  0.478234596252E+02  0.000000000000E+00
  0.994041422073E+04  0.478234596252E+02  0.109005453583E+04
  0.670580444336E+02  0.480577468872E+02  0.000000000000E+00
  0.994041704198E+04  0.480577468872E+02  0.109002898132E+04
  0.672757034302E+02  0.482754096985E+02  0.000000000000E+00
  0.994041966294E+04  0.482754096985E+02  0.109000524090E+04
  0.674777908325E+02  0.484774932861E+02  0.000000000000E+00
  0.994042209640E+04  0.484774932861E+02  0.108998319890E+04
  0.676652908325E+02  0.486649932861E+02  0.000000000000E+00
  0.994042435421E+04  0.486649932861E+02  0.108996274797E+04
  0.678391647339E+02  0.488388633728E+02  0.000000000000E+00
  0.994042644793E+04  0.488388633728E+02  0.108994378327E+04
  0.680002975464E+02  0.490000000000E+02  0.000000000000E+00
  0.994042838823E+04  0.490000000000E+02  0.108992620825E+04
POLYGONS                 158                 632
3                   2                   3                   1
3                   2                   1                   0
3                   4                   5                   3
3                   4                   3                   2
3                   6                   7                   5
3                   6                   5                   4
3                   8                   9                   7
3                   8                   7                   6
3                  10                  11                   9
3                  10                   9                   8
3                  12                  13                  11
3                  12                  11                  10
3                  14                  15                  13
3                  14                  13                  12
3                  16                  17                  15
3                  16                  15                  14
3                  18                  19                  17
3                  18                  17                  16
3                  20                  21                  19
3                  20                  19                  18
3                  22                  23                  21
3                  22                  21                  20
3                  24                  25                  23
3                  24                  23                  22
3                  26                  27                  25
3                  26                  25                  24
3                  28                  29                  27
3                  28                  27                  26
3                  30                  31                  29
3                  30                  29                  28
3                  32                  33                  31
3                  32                  31                  30
3                  34                  35                  33
3                  34                  33                  32
3                  36                  37                  35
3                  36                  35                  34
3                  38                  39                  37
3                  38                  37                  36
3                  40                  41                  39
3                  40                  39                  38
3                  42                  43                  41
3                  42                  41                  40
3                  44                  45                  43
3                  44                  43                  42
3                  46                  47                  45
3                  46                  45                  44
3                  48                  49                  47
3                  48                  47                  46
3                  50                  51                  49
3                  50                  49                  48
3                  52                  53                  51
3                  52                  51                  50
3                  54                  55                  53
3                  54                  53                  52
3                  56                  57                  55
3                  56                  55                  54
3                  58                  59                  57
3                  58                  57                  56
3                  60                  61                  59
3                  60                  59                  58
3                  62                  63                  61
3                  62                  61                  60
3                  64                  65                  63
3                  64                  63                  62
3                  66                  67                  65
3                  66                  65                  64
3                  68                  69                  67
3                  68                  67                  66
3                  70                  71                  69
3                  70                  69                  68
3                  72                  73                  71
3                  72                  71                  70
3                  74                  75                  73
3                  74                  73                  72
3                  76                  77                  75
3                  76                  75                  74
3                  78                  79                  77
3                  78                  77                  76
3                  80                  81                  79
3                  80                  79                  78
3                  82                  83                  81
3                  82                  81                  80
3                  84                  85                  83
3                  84                  83                  82
3                  86                  87                  85
3                  86                  85                  84
3                  88                  89                  87
3                  88                  87                  86
3                  90                  91                  89
3                  90                  89                  88
3                  92                  93                  91
3                  92                  91                  90
3                  94                  95                  93
3                  94                  93                  92
3                  96                  97                  95
3                  96                  95                  94
3                  98                  99                  97
3                  98                  97                  96
3                 100                 101                  99
3                 100                  99                  98
3                 102                 103                 101
3                 102                 101                 100
3                 104                 105                 103
3                 104                 103                 102
3                 106                 107                 105
3                 106                 105                 104
3                 108                 109                 107
3                 108                 107                 106
3                 110                 111                 109
3                 110                 109                 108
3                 112                 113                 111
3                 112                 111                 110
3                 114                 115                 113
3                 114                 113                 112
3                 116                 117                 115
3                 116                 115                 114
3                 118                 119                 117
3                 118                 117                 116
3                 120                 121                 119
3                 120                 119                 118
3                 122                 123                 121
3                 122                 121                 120
3                 124                 125                 123
3                 124                 123                 122
3                 126                 127                 125
3                 126                 125                 124
3                 128                 129                 127
3                 128                 127                 126
3                 130                 131                 129
3                 130                 129                 128
3                 132                 133                 131
3                 132                 131                 130
3                 134                 135                 133
3                 134                 133                 132
3                 136                 137                 135
3                 136                 135                 134
3                 138                 139                 137
3                 138                 137                 136
3                 140                 141                 139
3                 140                 139                 138
3                 142                 143                 141
3                 142                 141                 140
3                 144                 145                 143
3                 144                 143                 142
3                 146                 147                 145
3                 146                 145                 144
3                 148                 149                 147
3                 148                 147                 146
3                 150                 151                 149
3                 150                 149                 148
3                 152                 153                 151
3                 152                 151                 150
3                 154                 155                 153
3                 154                 153                 152
3                 156                 157                 155
3                 156                 155                 154
3                 158                 159                 157
3                 158                 157                 156
CELL_DATA                 158
NORMALS normals float
  0.109079528563E+00 -0.109079589055E+00 -0.988030009514E+00
  0.109079528563E+00 -0.109079589054E+00 -0.988030009514E+00
  0.109079511263E+00 -0.109081025747E+00 -0.988029852810E+00
  0.109079511263E+00 -0.109081025747E+00 -0.988029852810E+00
  0.109079519381E+00 -0.109080351620E+00 -0.988029926339E+00
  0.109079519381E+00 -0.109080351620E+00 -0.988029926339E+00
  0.109079530432E+00 -0.109079433887E+00 -0.988030026438E+00
  0.109079530432E+00 -0.109079433887E+00 -0.988030026438E+00
  0.109079511868E+00 -0.109080975516E+00 -0.988029858289E+00
  0.109079511868E+00 -0.109080975517E+00 -0.988029858289E+00
  0.109079528623E+00 -0.109079584119E+00 -0.988030010052E+00
  0.109079528623E+00 -0.109079584118E+00 -0.988030010052E+00
  0.109079520687E+00 -0.109080243108E+00 -0.988029938175E+00
  0.109079520687E+00 -0.109080243107E+00 -0.988029938175E+00
  0.109079519571E+00 -0.109080335819E+00 -0.988029928063E+00
  0.109079519571E+00 -0.109080335820E+00 -0.988029928063E+00
  0.109079523963E+00 -0.109079971100E+00 -0.988029967844E+00
  0.109079523963E+00 -0.109079971100E+00 -0.988029967844E+00
  0.109079519365E+00 -0.109080352896E+00 -0.988029926200E+00
  0.109079519365E+00 -0.109080352896E+00 -0.988029926200E+00
  0.109079522805E+00 -0.109080067205E+00 -0.988029957361E+00
  0.109079522805E+00 -0.109080067204E+00 -0.988029957361E+00
  0.109079518047E+00 -0.109080462345E+00 -0.988029914262E+00
  0.109079518047E+00 -0.109080462345E+00 -0.988029914262E+00
  0.109079520394E+00 -0.109080267487E+00 -0.988029935516E+00
  0.109079520394E+00 -0.109080267487E+00 -0.988029935516E+00
  0.109079523987E+00 -0.109079969072E+00 -0.988029968065E+00
  0.109079523987E+00 -0.109079969072E+00 -0.988029968065E+00
  0.109079521483E+00 -0.109080177066E+00 -0.988029945378E+00
  0.109079521483E+00 -0.109080177066E+00 -0.988029945378E+00
  0.109079522627E+00 -0.109080082047E+00 -0.988029955742E+00
  0.109079522627E+00 -0.109080082048E+00 -0.988029955742E+00
  0.109079516769E+00 -0.109080568463E+00 -0.988029902688E+00
  0.109079516769E+00 -0.109080568463E+00 -0.988029902688E+00
  0.109079523393E+00 -0.109080018452E+00 -0.988029962679E+00
  0.109079523393E+00 -0.109080018452E+00 -0.988029962679E+00
  0.109079522618E+00 -0.109080082807E+00 -0.988029955659E+00
  0.109079522618E+00 -0.109080082806E+00 -0.988029955660E+00
  0.109079518789E+00 -0.109080400777E+00 -0.988029920978E+00
  0.109079518789E+00 -0.109080400777E+00 -0.988029920978E+00
  0.109079524317E+00 -0.109079941676E+00 -0.988029971053E+00
  0.109079524317E+00 -0.109079941676E+00 -0.988029971053E+00
  0.109079520807E+00 -0.109080233141E+00 -0.988029939262E+00
  0.109079520807E+00 -0.109080233141E+00 -0.988029939262E+00
  0.109079518545E+00 -0.109080420985E+00 -0.988029918774E+00
  0.109079518545E+00 -0.109080420985E+00 -0.988029918774E+00
  0.109079524171E+00 -0.109079953847E+00 -0.988029969725E+00
  0.109079524171E+00 -0.109079953846E+00 -0.988029969725E+00
  0.109079521151E+00 -0.109080204612E+00 -0.988029942374E+00
  0.109079521151E+00 -0.109080204612E+00 -0.988029942374E+00
  0.109079521503E+00 -0.109080175337E+00 -0.988029945567E+00
  0.109079521503E+00 -0.109080175337E+00 -0.988029945567E+00
  0.109079520329E+00 -0.109080272828E+00 -0.988029934933E+00
  0.109079520329E+00 -0.109080272828E+00 -0.988029934933E+00
  0.109079522109E+00 -0.109080125044E+00 -0.988029951052E+00
  0.109079522109E+00 -0.109080125044E+00 -0.988029951052E+00
  0.109079520983E+00 -0.109080218569E+00 -0.988029940852E+00
  0.109079520983E+00 -0.109080218569E+00 -0.988029940852E+00
  0.109079523933E+00 -0.109079973547E+00 -0.988029967577E+00
  0.109079523933E+00 -0.109079973547E+00 -0.988029967577E+00
  0.109079517611E+00 -0.109080498543E+00 -0.988029910314E+00
  0.109079517611E+00 -0.109080498543E+00 -0.988029910314E+00
  0.109079525499E+00 -0.109079843498E+00 -0.988029981761E+00
  0.109079525499E+00 -0.109079843498E+00 -0.988029981761E+00
  0.109079519441E+00 -0.109080346633E+00 -0.988029926883E+00
  0.109079519441E+00 -0.109080346633E+00 -0.988029926883E+00
  0.109079517244E+00 -0.109080529098E+00 -0.988029906981E+00
  0.109079517244E+00 -0.109080529098E+00 -0.988029906981E+00
  0.109079524555E+00 -0.109079921886E+00 -0.988029973211E+00
  0.109079524555E+00 -0.109079921886E+00 -0.988029973211E+00
  0.109079522298E+00 -0.109080109337E+00 -0.988029952766E+00
  0.109079522298E+00 -0.109080109337E+00 -0.988029952766E+00
  0.109079517779E+00 -0.109080484639E+00 -0.988029911831E+00
  0.109079517779E+00 -0.109080484639E+00 -0.988029911831E+00
  0.109079524720E+00 -0.109079908189E+00 -0.988029974705E+00
  0.109079524720E+00 -0.109079908189E+00 -0.988029974705E+00
  0.109079520204E+00 -0.109080283233E+00 -0.988029933798E+00
  0.109079520204E+00 -0.109080283233E+00 -0.988029933798E+00
  0.109079520220E+00 -0.109080281936E+00 -0.988029933940E+00
  0.109079520220E+00 -0.109080281936E+00 -0.988029933940E+00
  0.109079520204E+00 -0.109080283233E+00 -0.988029933798E+00
  0.109079520204E+00 -0.109080283233E+00 -0.988029933798E+00
  0.109079524720E+00 -0.109079908189E+00 -0.988029974705E+00
  0.109079524720E+00 -0.109079908189E+00 -0.988029974705E+00
  0.109079517779E+00 -0.109080484639E+00 -0.988029911831E+00
  0.109079517779E+00 -0.109080484639E+00 -0.988029911831E+00
  0.109079522298E+00 -0.109080109337E+00 -0.988029952766E+00
  0.109079522298E+00 -0.109080109337E+00 -0.988029952766E+00
  0.109079524555E+00 -0.109079921886E+00 -0.988029973211E+00
  0.109079524555E+00 -0.109079921886E+00 -0.988029973211E+00
  0.109079517244E+00 -0.109080529098E+00 -0.988029906981E+00
  0.109079517244E+00 -0.109080529098E+00 -0.988029906981E+00
  0.109079524362E+00 -0.109079937953E+00 -0.988029971459E+00
  0.109079524362E+00 -0.109079937953E+00 -0.988029971459E+00
  0.109079519193E+00 -0.109080367168E+00 -0.988029924644E+00
  0.109079519193E+00 -0.109080367168E+00 -0.988029924644E+00
  0.109079524096E+00 -0.109079960075E+00 -0.988029969046E+00
  0.109079524096E+00 -0.109079960075E+00 -0.988029969046E+00
  0.109079518583E+00 -0.109080417823E+00 -0.988029919118E+00
  0.109079518583E+00 -0.109080417823E+00 -0.988029919118E+00
  0.109079523749E+00 -0.109079988815E+00 -0.988029965911E+00
  0.109079523749E+00 -0.109079988815E+00 -0.988029965911E+00
  0.109079517805E+00 -0.109080482505E+00 -0.988029912063E+00
  0.109079517805E+00 -0.109080482504E+00 -0.988029912063E+00
  0.109079523314E+00 -0.109080024966E+00 -0.988029961968E+00
  0.109079523314E+00 -0.109080024966E+00 -0.988029961968E+00
  0.109079523059E+00 -0.109080046135E+00 -0.988029959659E+00
  0.109079523059E+00 -0.109080046135E+00 -0.988029959659E+00
  0.109079522777E+00 -0.109080069545E+00 -0.988029957106E+00
  0.109079522777E+00 -0.109080069545E+00 -0.988029957106E+00
  0.109079515650E+00 -0.109080661444E+00 -0.988029892546E+00
  0.109079515650E+00 -0.109080661444E+00 -0.988029892546E+00
  0.109079522124E+00 -0.109080123760E+00 -0.988029951193E+00
  0.109079522124E+00 -0.109080123761E+00 -0.988029951193E+00
  0.109079521749E+00 -0.109080154935E+00 -0.988029947792E+00
  0.109079521749E+00 -0.109080154935E+00 -0.988029947792E+00
  0.109079521338E+00 -0.109080189092E+00 -0.988029944067E+00
  0.109079521338E+00 -0.109080189092E+00 -0.988029944067E+00
  0.109079520888E+00 -0.109080226480E+00 -0.988029939989E+00
  0.109079520888E+00 -0.109080226480E+00 -0.988029939989E+00
  0.109079520396E+00 -0.109080267332E+00 -0.988029935533E+00
  0.109079520396E+00 -0.109080267332E+00 -0.988029935533E+00
  0.109079529283E+00 -0.109079529283E+00 -0.988030016033E+00
  0.109079529283E+00 -0.109079529283E+00 -0.988030016033E+00
  0.109079509261E+00 -0.109081191978E+00 -0.988029834679E+00
  0.109079509261E+00 -0.109081191978E+00 -0.988029834679E+00
  0.109079529283E+00 -0.109079529283E+00 -0.988030016033E+00
  0.109079529283E+00 -0.109079529283E+00 -0.988030016033E+00
  0.109079529283E+00 -0.109079529283E+00 -0.988030016033E+00
  0.109079529283E+00 -0.109079529283E+00 -0.988030016033E+00
  0.109079517179E+00 -0.109080534494E+00 -0.988029906393E+00
  0.109079517179E+00 -0.109080534494E+00 -0.988029906393E+00
  0.109079516353E+00 -0.109080603052E+00 -0.988029898915E+00
  0.109079516353E+00 -0.109080603052E+00 -0.988029898915E+00
  0.109079515455E+00 -0.109080677644E+00 -0.988029890779E+00
  0.109079515455E+00 -0.109080677643E+00 -0.988029890779E+00
  0.109079529283E+00 -0.109079529283E+00 -0.988030016033E+00
  0.109079529283E+00 -0.109079529283E+00 -0.988030016033E+00
  0.109079513415E+00 -0.109080847050E+00 -0.988029872301E+00
  0.109079513415E+00 -0.109080847050E+00 -0.988029872301E+00
  0.109079546307E+00 -0.109078115511E+00 -0.988030170235E+00
  0.109079546307E+00 -0.109078115511E+00 -0.988030170235E+00
  0.109079492720E+00 -0.109082565643E+00 -0.988029684848E+00
  0.109079492720E+00 -0.109082565644E+00 -0.988029684848E+00
  0.109079529283E+00 -0.109079529284E+00 -0.988030016033E+00
  0.109079529283E+00 -0.109079529284E+00 -0.988030016033E+00
  0.109079508151E+00 -0.109081284198E+00 -0.988029824620E+00
  0.109079508151E+00 -0.109081284199E+00 -0.988029824620E+00
  0.109079552029E+00 -0.109077640331E+00 -0.988030222063E+00
  0.109079552029E+00 -0.109077640330E+00 -0.988030222063E+00
  0.109079504783E+00 -0.109081563859E+00 -0.988029794117E+00
  0.109079504783E+00 -0.109081563860E+00 -0.988029794117E+00
  0.109079529283E+00 -0.109079529283E+00 -0.988030016033E+00
  0.109079529283E+00 -0.109079529283E+00 -0.988030016033E+00
  0.109079500808E+00 -0.109081894006E+00 -0.988029758106E+00
  0.109079500808E+00 -0.109081894006E+00 -0.988029758106E+00
  0.109079560008E+00 -0.109076977690E+00 -0.988030294336E+00
  0.109079560008E+00 -0.109076977691E+00 -0.988030294336E+00
POINT_DATA                 160
SCALARS mu float 1
LOOKUP_TABLE default
 -0.352995215870E+01
 -0.352995215870E+01
 -0.353239149205E+01
 -0.353239149205E+01
 -0.353879171747E+01
 -0.353879171747E+01
 -0.354562683896E+01
 -0.354562683896E+01
 -0.355228574316E+01
 -0.355228574316E+01
 -0.356025203496E+01
 -0.356025203496E+01
 -0.357093327929E+01
 -0.357093327929E+01
 -0.358020401441E+01
 -0.358020401441E+01
 -0.359040693336E+01
 -0.359040693336E+01
 -0.360366057775E+01
 -0.360366057775E+01
 -0.361395702098E+01
 -0.361395702098E+01
 -0.362797261614E+01