# vtk DataFile Version 3.0
MachLine results file. Generated by MachLine, USU AeroLab (c) 2022.
ASCII
DATASET POLYDATA
POINTS                 144 float
  0.000000000000E+00  0.000000000000E+00  0.000000000000E+00
  0.113538098335E+01  0.000000000000E+00 -0.658124566078E+00
  0.113538098335E+01  0.000000000000E+00  0.658124566078E+00
  0.192375373840E+01  0.192375373840E+01  0.000000000000E+00
  0.305913543701E+01  0.192375373840E+01 -0.658124983311E+00
  0.305913543701E+01  0.192375373840E+01  0.658124983311E+00
  0.423028087616E+01  0.000000000000E+00 -0.108747220039E+01
  0.423028087616E+01  0.000000000000E+00  0.108747220039E+01
  0.547033166885E+01  0.547033166885E+01  0.000000000000E+00
  0.615403699875E+01  0.192375373840E+01 -0.108747279644E+01
  0.615403699875E+01  0.192375373840E+01  0.108747279644E+01
  0.660571479797E+01  0.547033166885E+01 -0.658125698566E+00
  0.660571479797E+01  0.547033166885E+01  0.658125698566E+00
  0.939508819580E+01  0.000000000000E+00 -0.980745851994E+00
  0.939508819580E+01  0.000000000000E+00  0.980745851994E+00
  0.970061969757E+01  0.547033166885E+01 -0.108747410774E+01
  0.970061969757E+01  0.547033166885E+01  0.108747410774E+01
  0.113188476562E+02  0.192375373840E+01 -0.980746448040E+00
  0.113188476562E+02  0.192375373840E+01  0.980746448040E+00
  0.113820018768E+02  0.113820018768E+02  0.000000000000E+00
  0.125173873901E+02  0.113820018768E+02 -0.658127009869E+00
  0.125173873901E+02  0.113820018768E+02  0.658127009869E+00
  0.145402030945E+02  0.000000000000E+00 -0.479613035917E+00
  0.145402030945E+02  0.000000000000E+00  0.479613035917E+00
  0.148654365540E+02  0.547033166885E+01 -0.980747580528E+00
  0.148654365540E+02  0.547033166885E+01  0.980747580528E+00
  0.156122989655E+02  0.113820018768E+02 -0.108747613430E+01
  0.156122989655E+02  0.113820018768E+02  0.108747613430E+01
  0.164639663696E+02  0.192375373840E+01 -0.479613333941E+00
  0.164639663696E+02  0.192375373840E+01  0.479613333941E+00
  0.176505107880E+02  0.000000000000E+00 -0.144198849797E+00
  0.176505107880E+02  0.000000000000E+00  0.144198849797E+00
  0.190000000000E+02  0.000000000000E+00  0.000000000000E+00
  0.195742740631E+02  0.192375373840E+01 -0.144198939204E+00
  0.195742740631E+02  0.192375373840E+01  0.144198939204E+00
  0.197561950684E+02  0.197561950684E+02  0.000000000000E+00
  0.200105609894E+02  0.547033166885E+01 -0.479613870382E+00
  0.200105609894E+02  0.547033166885E+01  0.479613870382E+00
  0.207771244049E+02  0.113820018768E+02 -0.980749428272E+00
  0.207771244049E+02  0.113820018768E+02  0.980749428272E+00
  0.208915824890E+02  0.197561950684E+02 -0.658128738403E+00
  0.208915824890E+02  0.197561950684E+02  0.658128738403E+00
  0.209237651825E+02  0.192375373840E+01  0.000000000000E+00
  0.231208724976E+02  0.547033166885E+01 -0.144199103117E+00
  0.231208724976E+02  0.547033166885E+01  0.144199103117E+00
  0.239865016937E+02  0.197561950684E+02 -0.108747911453E+01
  0.239865016937E+02  0.197561950684E+02  0.108747911453E+01
  0.244703655243E+02  0.547033166885E+01  0.000000000000E+00
  0.259222583771E+02  0.113820018768E+02 -0.479614794254E+00
  0.259222583771E+02  0.113820018768E+02  0.479614794254E+00
  0.290325775146E+02  0.113820018768E+02 -0.144199386239E+00
  0.290325775146E+02  0.113820018768E+02  0.144199386239E+00
  0.291513423920E+02  0.197561950684E+02 -0.980752110481E+00
  0.291513423920E+02  0.197561950684E+02  0.980752110481E+00
  0.292438049316E+02  0.292438049316E+02  0.000000000000E+00
  0.303791980743E+02  0.292438049316E+02 -0.658130764961E+00
  0.303791980743E+02  0.292438049316E+02  0.658130764961E+00
  0.303820724487E+02  0.113820018768E+02  0.000000000000E+00
  0.334741249084E+02  0.292438049316E+02 -0.108748245239E+01
  0.334741249084E+02  0.292438049316E+02  0.108748245239E+01
  0.342964897156E+02  0.197561950684E+02 -0.479616105556E+00
  0.342964897156E+02  0.197561950684E+02  0.479616105556E+00
  0.374068183899E+02  0.197561950684E+02 -0.144199773669E+00
  0.374068183899E+02  0.197561950684E+02  0.144199773669E+00
  0.376179962158E+02  0.376179962158E+02  0.000000000000E+00
  0.386389808655E+02  0.292438049316E+02 -0.980755090714E+00
  0.386389808655E+02  0.292438049316E+02  0.980755090714E+00
  0.387533912659E+02  0.376179962158E+02 -0.658132553101E+00
  0.387533912659E+02  0.376179962158E+02  0.658132553101E+00
  0.387563171387E+02  0.197561950684E+02  0.000000000000E+00
  0.418483314514E+02  0.376179962158E+02 -0.108748543262E+01
  0.418483314514E+02  0.376179962158E+02  0.108748543262E+01
  0.435296669006E+02  0.435296669006E+02  0.000000000000E+00
  0.437841453552E+02  0.292438049316E+02 -0.479617565870E+00
  0.437841453552E+02  0.292438049316E+02  0.479617565870E+00
  0.446650657654E+02  0.435296669006E+02 -0.658133804798E+00
  0.446650657654E+02  0.435296669006E+02  0.658133804798E+00
  0.468944816589E+02  0.292438049316E+02 -0.144200220704E+00
  0.468944816589E+02  0.292438049316E+02  0.144200220704E+00
  0.470131988525E+02  0.376179962158E+02 -0.980757772923E+00
  0.470131988525E+02  0.376179962158E+02  0.980757772923E+00
  0.470762481689E+02  0.470762481689E+02  0.000000000000E+00
  0.477600097656E+02  0.435296669006E+02 -0.108748745918E+01
  0.477600097656E+02  0.435296669006E+02  0.108748745918E+01
  0.482116432190E+02  0.470762481689E+02 -0.658134579659E+00
  0.482116432190E+02  0.470762481689E+02  0.658134579659E+00
  0.482439842224E+02  0.292438049316E+02  0.000000000000E+00
  0.490000000000E+02  0.490000000000E+02  0.000000000000E+00
  0.501353988647E+02  0.490000000000E+02 -0.658134996891E+00
  0.501353988647E+02  0.490000000000E+02  0.658134996891E+00
  0.506007728577E+02  0.494653701782E+02 -0.465371757746E+00
  0.506007728577E+02  0.494653701782E+02  0.465371757746E+00
  0.507935333252E+02  0.496581344604E+02 -0.771266485397E-15
  0.513065910339E+02  0.470762481689E+02 -0.108748877048E+01
  0.513065910339E+02  0.470762481689E+02  0.108748877048E+01
  0.521583786011E+02  0.376179962158E+02 -0.479618877172E+00
  0.521583786011E+02  0.376179962158E+02  0.479618877172E+00
  0.529248886108E+02  0.435296669006E+02 -0.980759620667E+00
  0.529248886108E+02  0.435296669006E+02  0.980759620667E+00
  0.532303466797E+02  0.490000000000E+02 -0.108748936653E+01
  0.532303466797E+02  0.490000000000E+02  0.108748936653E+01
  0.539993209839E+02  0.497689704895E+02 -0.768971264362E+00
  0.539993209839E+02  0.497689704895E+02  0.768971264362E+00
  0.543178405762E+02  0.500874900818E+02 -0.157378642191E-15
  0.552687225342E+02  0.376179962158E+02 -0.144200608134E+00
  0.552687225342E+02  0.376179962158E+02  0.144200608134E+00
  0.564714775085E+02  0.470762481689E+02 -0.980760753155E+00
  0.564714775085E+02  0.470762481689E+02  0.980760753155E+00
  0.566182289124E+02  0.376179962158E+02  0.000000000000E+00
  0.580700759888E+02  0.435296669006E+02 -0.479619771242E+00
  0.580700759888E+02  0.435296669006E+02  0.479619771242E+00
  0.583952369690E+02  0.490000000000E+02 -0.980761349201E+00
  0.583952369690E+02  0.490000000000E+02  0.980761349201E+00
  0.590887413025E+02  0.496935043335E+02 -0.693503141403E+00
  0.590887413025E+02  0.496935043335E+02  0.693503141403E+00
  0.593759994507E+02  0.499807624817E+02  0.000000000000E+00
  0.611804275513E+02  0.435296669006E+02 -0.144200876355E+00
  0.611804275513E+02  0.435296669006E+02  0.144200876355E+00
  0.616166725159E+02  0.470762481689E+02 -0.479620337486E+00
  0.616166725159E+02  0.470762481689E+02  0.479620337486E+00
  0.625299339294E+02  0.435296669006E+02  0.000000000000E+00
  0.635404319763E+02  0.490000000000E+02 -0.479620635509E+00
  0.635404319763E+02  0.490000000000E+02  0.479620635509E+00
  0.638795776367E+02  0.493391418457E+02 -0.339143037796E+00
  0.638795776367E+02  0.493391418457E+02  0.339143037796E+00
  0.640200576782E+02  0.494796218872E+02  0.296956834055E-15
  0.647270278931E+02  0.470762481689E+02 -0.144201040268E+00
  0.647270278931E+02  0.470762481689E+02  0.144201040268E+00
  0.660765380859E+02  0.470762481689E+02  0.000000000000E+00
  0.666507873535E+02  0.490000000000E+02 -0.144201144576E+00
  0.666507873535E+02  0.490000000000E+02  0.144201144576E+00
  0.667527542114E+02  0.491019668579E+02 -0.101965606213E+00
  0.667527542114E+02  0.491019668579E+02  0.101965606213E+00
  0.667949905396E+02  0.491441993713E+02 -0.260488604752E-16
  0.680002975464E+02  0.490000000000E+02  0.000000000000E+00
  0.625299339294E+02  0.435296669006E+02  0.000000000000E+00
  0.566182289124E+02  0.376179962158E+02  0.000000000000E+00
  0.660765380859E+02  0.470762481689E+02  0.000000000000E+00
  0.303820724487E+02  0.113820018768E+02  0.000000000000E+00
  0.244703655243E+02  0.547033166885E+01  0.000000000000E+00
  0.209237651825E+02  0.192375373840E+01  0.000000000000E+00
  0.190000000000E+02  0.000000000000E+00  0.000000000000E+00
  0.482439842224E+02  0.292438049316E+02  0.000000000000E+00
  0.387563171387E+02  0.197561950684E+02  0.000000000000E+00
POLYGONS                 256                1024
3                  32                  33                  42
3                  32                  30                  33
3                  30                  28                  33
3                  30                  22                  28
3                  22                  17                  28
3                  22                  13                  17
3                  13                   6                  17
3                  17                   6                   9
3                   6                   1                   9
3                   9                   1                   4
3                   1                   0                   4
3                   4                   0                   3
3                   0                   5                   3
3                   0                   2                   5
3                   2                  10                   5
3                   2                   7                  10
[...]
CELL_DATA                 256
SCALARS C_p_inc float 1
LOOKUP_TABLE default
  0.112762899358E+00
  0.740256385862E-01
  0.240671081267E-01
 -0.938236207476E-02
 -0.650938705253E-01
 -0.898148061073E-01
 -0.879085248171E-01
 -0.104562965356E+00
  0.800112103957E-01
 -0.143092798320E-01
  0.497618657883E+00
  0.471029106469E+00
 -0.954973561586E-01
  0.206995036601E+00
 -0.434560813692E+00
 -0.275090146156E+00
 -0.352474731654E+00
 -0.352655392355E+00
 -0.263154576134E+00
 -0.214349659232E+00
 -0.113152442307E+00
 -0.496016900587E-01
  0.233749341795E-01
  0.951422561125E-01
  0.114330622791E+00
  0.111029424261E+00
  0.380037417287E-01
  0.240237488572E-01
 -0.456815502551E-01
 -0.650003677354E-01
 -0.105412086371E+00
 -0.108405459459E+00
 -0.109485119688E-01
 -0.302454469452E-01
  0.410652785865E+00
  0.416426076316E+00
 -0.249681766363E+00
 -0.106804485576E+00
 -0.518098073397E+00
 -0.425966382596E+00
 -0.360709805637E+00
 -0.362522771221E+00
 -0.214658079079E+00
 -0.172006010417E+00
 -0.494575428117E-01
 -0.135638681350E-01
  0.925042560345E-01
  0.105722851782E+00
  0.115640259239E+00
  0.113654996636E+00
  0.409791114923E-01
  0.378307253307E-01
 -0.370921319056E-01
 -0.454944705496E-01
 -0.109247495024E+00
 -0.976796890307E-01
 -0.301710294378E-01
 -0.191664734067E-01
  0.414106971861E+00
  0.425715815719E+00
 -0.329364839772E+00
 -0.250718235552E+00
 -0.556512462508E+00
 -0.519439589161E+00
 -0.356225278550E+00
 -0.369571217149E+00
 -0.172579662308E+00
 -0.152149650228E+00
 -0.135954602548E-01
 -0.201840426748E-02
  0.105469397062E+00
  0.111297926695E+00
  0.115242598064E+00
  0.115082561927E+00
  0.409544299532E-01
  0.408045791071E-01
 -0.351686735042E-01
 -0.369298426872E-01
 -0.980514039556E-01
 -0.919559962314E-01
 -0.191656409069E-01
 -0.585735639509E-02
  0.431000819753E+00
  0.439553641007E+00
 -0.363367543548E+00
 -0.329330486295E+00
 -0.570368783475E+00
 -0.560246738877E+00
 -0.356029933355E+00
 -0.360996608602E+00
 -0.152660333807E+00
 -0.146209228575E+00
 -0.196020211978E-02
  0.354025709339E-02
  0.111756975145E+00
  0.115919302388E+00
  0.111697538429E+00
  0.114398678499E+00
  0.366446736469E-01
  0.406684410190E-01
 -0.387258019799E-01
 -0.350277465085E-01
 -0.917212906443E-01
 -0.937889387553E-01
 -0.585275307185E-02
 -0.378979462999E-02
  0.441462147142E+00
  0.443767535777E+00
 -0.371630843409E+00
 -0.363387101487E+00
 -0.571608552521E+00
 -0.572012550529E+00
 -0.352080379891E+00
 -0.357908216733E+00
 -0.146613750860E+00
 -0.138930054469E+00
  0.360319003948E-02
  0.130671332072E-01
  0.116624506690E+00
  0.125327792128E+00
  0.110785744326E+00
  0.109783593062E+00
  0.297168446087E-01
  0.358674405843E-01
 -0.514800941313E-01
 -0.385719251726E-01
 -0.929595978497E-01
 -0.108167405492E+00
 -0.391145918626E-02
 -0.162346597763E-01
  0.441594331017E+00
  0.437874140696E+00
 -0.357261701967E+00
 -0.371615883934E+00
 -0.559334393023E+00
 -0.572168759971E+00
 -0.339196086211E+00
 -0.353428735276E+00
 -0.139096709036E+00
 -0.121117369448E+00
  0.131280688525E-01
  0.397125411350E-01
  0.126488839429E+00
  0.154194603875E+00
  0.219268517487E+00
  0.102682730951E+00
  0.155343201223E-01
  0.256017718872E-01
 -0.844964321207E-01
 -0.517706958501E-01
 -0.106244257104E+00
 -0.146918993028E+00
 -0.167986063656E-01
 -0.514987898604E-01
  0.429329061721E+00
  0.419648459035E+00
 -0.328494848397E+00
 -0.357238427138E+00
 -0.541164566401E+00
 -0.558405065799E+00
 -0.323102130188E+00
 -0.339592152514E+00
 -0.120333554449E+00
 -0.990065184328E-01
  0.396254461755E-01
  0.824415040571E-01
  0.155023797131E+00
  0.314517514615E+00
 -0.227096582649E+02
 -0.139312552807E+00
  0.710307163377E+00
 -0.945043909471E-01
 -0.434364284258E+00
 -0.895016632448E-01
 -0.146308481942E+00
 -0.203878020734E+00
 -0.543932926775E-01
 -0.121345281490E+00
  0.396446153411E+00
  0.380917308254E+00
 -0.298356591290E+00
 -0.328870813473E+00
 -0.522468531121E+00
 -0.536635168837E+00
 -0.305747683264E+00
 -0.321319015419E+00
 -0.972919441128E-01
 -0.360988677013E+00
  0.298266765801E-01
  0.760097212117E+00
 -0.223350098526E+00
 -0.223603279120E+02
 -0.410187752684E+08
 -0.213975586944E+05
 -0.120331486734E+05
  0.906478294919E+00
 -0.491884521318E-01
 -0.421207937207E+00
 -0.231739356461E+00
 -0.288206868674E+00
 -0.134396966542E+00
 -0.151142509466E+00
  0.285494720834E+00
  0.263720870375E+00
 -0.277915363502E+00
 -0.303955097886E+00
 -0.394455215300E+00
 -0.526959204481E+00
 -0.335499311258E+00
 -0.301145663408E+00
 -0.375064304666E+00
 -0.419627682434E+00
  0.896398337867E+00
 -0.119830767304E+05
 -0.213200821135E+05
 -0.410202981447E+08
 -0.854332683807E+08
 -0.484536722756E+06
 -0.181707782191E+05
 -0.279329268272E+02
 -0.114044831561E+00
 -0.431628478600E+00
 -0.377245606170E+00
 -0.221226240077E+00
 -0.229691693394E+00
 -0.273298495471E-01
 -0.308474998116E+00
 -0.325469230936E+00
 -0.419516762499E+00
 -0.424166612095E+00
 -0.332930214415E+00
  0.472796744141E+00
 -0.354941220927E+02
 -0.182753492947E+05
 -0.483217992795E+06
 -0.854232960383E+08
 -0.583897570762E+08
 -0.579601497718E+06
 -0.217233540487E+05
 -0.426017001469E+02
  0.269899322195E+00
 -0.535272340179E+00
 -0.474257743433E+00
 -0.294860772478E+00
 -0.301316519701E+00
 -0.174917342857E+00
 -0.270064524298E+00
 -0.332429925264E+00
 -0.351145847508E+00
 -0.496736140132E+00
 -0.426292057534E+00
  0.961320059685E+00
 -0.556060877146E+02
 -0.218255475572E+05
 -0.577593852702E+06
 -0.583813740265E+08
SCALARS sigma float 1
LOOKUP_TABLE default
  0.000000000000E+00
  0.000000000000E+00
  0.000000000000E+00
  0.000000000000E+00
  0.000000000000E+00
  0.000000000000E+00
  0.000000000000E+00
  0.000000000000E+00
  0.000000000000E+00
  0.000000000000E+00
  0.000000000000E+00
  0.000000000000E+00
  0.000000000000E+00
  0.000000000000E+00
  0.000000000000E+00
  0.000000000000E+00
  0.000000000000E+00
  0.000000000000E+00
  0.000000000000E+00
  0.000000000000E+00
  0.000000000000E+00
  0.000000000000E+00
  0.000000000000E+00
  0.000000000000E+00
  0.000000000000E+00
  0.000000000000E+00
  0.000000000000E+00
  0.000000000000E+00
  0.000000000000E+00
  0.000000000000E+00
  0.000000000000E+00
  0.000000000000E+00
  0.000000000000E+00
  0.000000000000E+00
  0.000000000000E+00
  0.000000000000E+00
  0.000000000000E+00
  0.000000000000E+00
  0.000000000000E+00
  0.000000000000E+00
  0.000000000000E+00
  0.000000000000E+00
  0.000000000000E+00
  0.000000000000E+00
  0.000000000000E+00
  0.000000000000E+00
  0.000000000000E+00
  0.000000000000E+00
  0.000000000000E+00
  0.000000000000E+00
  0.000000000000E+00
  0.000000000000E+00
  0.000000000000E+00
  0.000000000000E+00
  0.000000000000E+00
  0.000000000000E+00
  0.000000000000E+00
  0.000000000000E+00
  0.000000000000E+00
  0.000000000000E+00
  0.000000000000E+00
  0.000000000000E+00
  0.000000000000E+00
  0.000000000000E+00
  0.000000000000E+00
  0.000000000000E+00
  0.000000000000E+00
  0.000000000000E+00
  0.000000000000E+00
  0.000000000000E+00
  0.000000000000E+00
  0.000000000000E+00
  0.000000000000E+00
  0.000000000000E+00
  0.000000000000E+00
  0.000000000000E+00
  0.000000000000E+00
  0.000000000000E+00
  0.000000000000E+00
  0.000000000000E+00
  0.000000000000E+00
  0.000000000000E+00
  0.000000000000E+00
  0.000000000000E+00
  0.000000000000E+00
  0.000000000000E+00
  0.000000000000E+00
  0.000000000000E+00
  0.000000000000E+00
  0.000000000000E+00
  0.000000000000E+00
  0.000000000000E+00
  0.000000000000E+00
  0.000000000000E+00
  0.000000000000E+00
  0.000000000000E+00
  0.000000000000E+00
  0.000000000000E+00
  0.000000000000E+00
  0.000000000000E+00
  0.000000000000E+00
  0.000000000000E+00
  0.000000000000E+00
  0.000000000000E+00
  0.000000000000E+00
  0.000000000000E+00
  0.000000000000E+00
  0.000000000000E+00
  0.000000000000E+00
  0.000000000000E+00
  0.000000000000E+00
  0.000000000000E+00
  0.000000000000E+00
  0.000000000000E+00
  0.000000000000E+00
  0.000000000000E+00
  0.000000000000E+00
  0.000000000000E+00
  0.000000000000E+00
  0.000000000000E+00
  0.000000000000E+00
  0.000000000000E+00
  0.000000000000E+00
  0.000000000000E+00
  0.000000000000E+00
  0.000000000000E+00
  0.000000000000E+00
  0.000000000000E+00
  0.000000000000E+00
  0.000000000000E+00
  0.000000000000E+00
  0.000000000000E+00
  0.000000000000E+00
  0.000000000000E+00
  0.000000000000E+00
  0.000000000000E+00
  0.000000000000E+00
  0.000000000000E+00
  0.000000000000E+00
  0.000000000000E+00
  0.000000000000E+00
  0.000000000000E+00
  0.000000000000E+00
  0.000000000000E+00
  0.000000000000E+00
  0.000000000000E+00
  0.000000000000E+00
  0.000000000000E+00
  0.000000000000E+00
  0.000000000000E+00
  0.000000000000E+00
  0.000000000000E+00
  0.000000000000E+00
  0.000000000000E+00
  0.000000000000E+00
  0.000000000000E+00
  0.000000000000E+00
  0.000000000000E+00
  0.000000000000E+00
  0.000000000000E+00
  0.000000000000E+00
  0.000000000000E+00
  0.000000000000E+00
  0.000000000000E+00
  0.000000000000E+00
  0.000000000000E+00
  0.000000000000E+00
  0.000000000000E+00
  0.000000000000E+00
  0.000000000000E+00
  0.000000000000E+00
  0.000000000000E+00
  0.000000000000E+00
  0.000000000000E+00
  0.000000000000E+00
  0.000000000000E+00
  0.000000000000E+00
  0.000000000000E+00
  0.000000000000E+00
  0.000000000000E+00
  0.000000000000E+00
  0.000000000000E+00
  0.000000000000E+00
  0.000000000000E+00
  0.000000000000E+00
  0.000000000000E+00
  0.000000000000E+00
  0.000000000000E+00
  0.000000000000E+00
  0.000000000000E+00
  0.000000000000E+00
  0.000000000000E+00
  0.000000000000E+00
  0.000000000000E+00
  0.000000000000E+00
  0.000000000000E+00
  0.000000000000E+00
  0.000000000000E+00
  0.000000000000E+00
  0.000000000000E+00
  0.000000000000E+00
  0.000000000000E+00
  0.000000000000E+00
  0.000000000000E+00
  0.000000000000E+00
  0.000000000000E+00
  0.000000000000E+00
  0.000000000000E+00
  0.000000000000E+00
  0.000000000000E+00
  0.000000000000E+00
  0.000000000000E+00
  0.000000000000E+00
  0.000000000000E+00
  0.000000000000E+00
  0.000000000000E+00
  0.000000000000E+00
  0.000000000000E+00
  0.000000000000E+00
  0.000000000000E+00
  0.000000000000E+00
  0.000000000000E+00
  0.000000000000E+00
  0.000000000000E+00
  0.000000000000E+00
  0.000000000000E+00
  0.000000000000E+00
  0.000000000000E+00
  0.000000000000E+00
  0.000000000000E+00
  0.000000000000E+00
  0.000000000000E+00
  0.000000000000E+00
  0.000000000000E+00
  0.000000000000E+00
  0.000000000000E+00
  0.000000000000E+00
  0.000000000000E+00
  0.000000000000E+00
  0.000000000000E+00
  0.000000000000E+00
  0.000000000000E+00
  0.000000000000E+00
  0.000000000000E+00
  0.000000000000E+00
  0.000000000000E+00
  0.000000000000E+00
  0.000000000000E+00
  0.000000000000E+00
  0.000000000000E+00
  0.000000000000E+00
  0.000000000000E+00
  0.000000000000E+00
  0.000000000000E+00
  0.000000000000E+00
  0.000000000000E+00
SCALARS inclination float 1
LOOKUP_TABLE default
  0.100000000000E+01
  0.100000000000E+01
  0.100000000000E+01
  0.100000000000E+01
  0.100000000000E+01
  0.100000000000E+01
  0.100000000000E+01
  0.100000000000E+01
  0.100000000000E+01
  0.100000000000E+01
  0.100000000000E+01
  0.100000000000E+01
  0.100000000000E+01
  0.100000000000E+01
  0.100000000000E+01
  0.100000000000E+01
  0.100000000000E+01
  0.100000000000E+01
  0.100000000000E+01
  0.100000000000E+01
  0.100000000000E+01
  0.100000000000E+01
  0.100000000000E+01
  0.100000000000E+01
  0.100000000000E+01
  0.100000000000E+01
  0.100000000000E+01
  0.100000000000E+01
  0.100000000000E+01
  0.100000000000E+01
  0.100000000000E+01
  0.100000000000E+01
  0.100000000000E+01
  0.100000000000E+01
  0.100000000000E+01
  0.100000000000E+01
  0.100000000000E+01
  0.100000000000E+01
  0.100000000000E+01
  0.100000000000E+01
  0.100000000000E+01
  0.100000000000E+01
  0.100000000000E+01
  0.100000000000E+01
  0.100000000000E+01
  0.100000000000E+01
  0.100000000000E+01
  0.100000000000E+01
  0.100000000000E+01
  0.100000000000E+01
  0.100000000000E+01
  0.100000000000E+01
  0.100000000000E+01
  0.100000000000E+01
  0.100000000000E+01
  0.100000000000E+01
  0.100000000000E+01
  0.100000000000E+01
  0.100000000000E+01
  0.100000000000E+01
  0.100000000000E+01
  0.100000000000E+01
  0.100000000000E+01
  0.100000000000E+01
  0.100000000000E+01
  0.100000000000E+01
  0.100000000000E+01
  0.100000000000E+01
  0.100000000000E+01
  0.100000000000E+01
  0.100000000000E+01
  0.100000000000E+01
  0.100000000000E+01
  0.100000000000E+01
  0.100000000000E+01
  0.100000000000E+01
  0.100000000000E+01
  0.100000000000E+01
  0.100000000000E+01
  0.100000000000E+01
  0.100000000000E+01
  0.100000000000E+01
  0.100000000000E+01
  0.100000000000E+01
  0.100000000000E+01
  0.100000000000E+01
  0.100000000000E+01
  0.100000000000E+01
  0.100000000000E+01
  0.100000000000E+01
  0.100000000000E+01
  0.100000000000E+01
  0.100000000000E+01
  0.100000000000E+01
  0.100000000000E+01
  0.100000000000E+01
  0.100000000000E+01
  0.100000000000E+01
  0.100000000000E+01
  0.100000000000E+01
  0.100000000000E+01
  0.100000000000E+01
  0.100000000000E+01
  0.100000000000E+01
  0.100000000000E+01
  0.100000000000E+01
  0.100000000000E+01
  0.100000000000E+01
  0.100000000000E+01
  0.100000000000E+01
  0.100000000000E+01
  0.100000000000E+01
  0.100000000000E+01
  0.100000000000E+01
  0.100000000000E+01
  0.100000000000E+01
  0.100000000000E+01
  0.100000000000E+01
  0.100000000000E+01
  0.100000000000E+01
  0.100000000000E+01
  0.100000000000E+01
  0.100000000000E+01
  0.100000000000E+01
  0.100000000000E+01
  0.100000000000E+01
  0.100000000000E+01
  0.100000000000E+01
  0.100000000000E+01
  0.100000000000E+01
  0.100000000000E+01
  0.100000000000E+01
  0.100000000000E+01
  0.100000000000E+01
  0.100000000000E+01
  0.100000000000E+01
  0.100000000000E+01
  0.100000000000E+01
  0.100000000000E+01
  0.100000000000E+01
  0.100000000000E+01
  0.100000000000E+01
  0.100000000000E+01
  0.100000000000E+01
  0.100000000000E+01
  0.100000000000E+01
  0.100000000000E+01
  0.100000000000E+01
  0.100000000000E+01
  0.100000000000E+01
  0.100000000000E+01
  0.100000000000E+01
  0.100000000000E+01
  0.100000000000E+01
  0.100000000000E+01
  0.100000000000E+01
  0.100000000000E+01
  0.100000000000E+01
  0.100000000000E+01
  0.100000000000E+01
  0.100000000000E+01
  0.100000000000E+01
  0.100000000000E+01
  0.100000000000E+01
  0.100000000000E+01
  0.100000000000E+01
  0.100000000000E+01
  0.100000000000E+01
  0.100000000000E+01
  0.100000000000E+01
  0.100000000000E+01
  0.100000000000E+01
  0.100000000000E+01
  0.100000000000E+01
  0.100000000000E+01
  0.100000000000E+01
  0.100000000000E+01
  0.100000000000E+01
  0.100000000000E+01
  0.100000000000E+01
  0.100000000000E+01
  0.100000000000E+01
  0.100000000000E+01
  0.100000000000E+01
  0.100000000000E+01
  0.100000000000E+01
  0.100000000000E+01
  0.100000000000E+01
  0.100000000000E+01
  0.100000000000E+01
  0.100000000000E+01
  0.100000000000E+01
  0.100000000000E+01
  0.100000000000E+01
  0.100000000000E+01
  0.100000000000E+01
  0.100000000000E+01
  0.100000000000E+01
  0.100000000000E+01
  0.100000000000E+01
  0.100000000000E+01
  0.100000000000E+01
  0.100000000000E+01
  0.100000000000E+01
  0.100000000000E+01
  0.100000000000E+01
  0.100000000000E+01
  0.100000000000E+01
  0.100000000000E+01
  0.100000000000E+01
  0.100000000000E+01
  0.100000000000E+01
  0.100000000000E+01
  0.100000000000E+01
  0.100000000000E+01
  0.100000000000E+01
  0.100000000000E+01
  0.100000000000E+01
  0.100000000000E+01
  0.100000000000E+01
  0.100000000000E+01
  0.100000000000E+01
  0.100000000000E+01
  0.100000000000E+01
  0.100000000000E+01
  0.100000000000E+01
  0.100000000000E+01
  0.100000000000E+01
  0.100000000000E+01
  0.100000000000E+01
  0.100000000000E+01
  0.100000000000E+01
  0.100000000000E+01
  0.100000000000E+01
  0.100000000000E+01
  0.100000000000E+01
  0.100000000000E+01
  0.100000000000E+01
  0.100000000000E+01
  0.100000000000E+01
  0.100000000000E+01
  0.100000000000E+01
  0.100000000000E+01
  0.100000000000E+01
  0.100000000000E+01
  0.100000000000E+01
  0.100000000000E+01
  0.100000000000E+01
  0.100000000000E+01
  0.100000000000E+01
  0.100000000000E+01
  0.100000000000E+01
  0.100000000000E+01
  0.100000000000E+01
  0.100000000000E+01
  0.100000000000E+01
VECTORS v float
  0.152658004877E+03  0.404535014016E+01  0.158798997541E+02
  0.155967330412E+03  0.309160475128E+01  0.163354409967E+02
  0.160083300169E+03 -0.102438536169E+01  0.173737919223E+02
  0.162825316416E+03  0.686242317148E+00  0.174850045284E+02
  0.167349169079E+03 -0.383763289731E+01  0.166735487631E+02
  0.169355516649E+03 -0.511459875349E+00  0.165449984224E+02
  0.169973132357E+03 -0.112908145100E+01  0.353568207239E+01
  0.171180088293E+03 -0.558291135802E+01  0.365265648804E+01
  0.154681130156E+03  0.109160599155E+02 -0.199441660801E+02
  0.162152661558E+03 -0.943703627095E+01 -0.238042003019E+02
  0.988168850891E+02  0.538987632620E+02 -0.260368281254E+02
  0.105033784366E+03  0.400296208022E+02 -0.376797196160E+02
  0.147081150450E+03 -0.201774528146E+01  0.864253038296E+02
  0.129678840255E+03  0.368046818919E+02  0.538345860343E+02
  0.191309847022E+03 -0.248263426169E+02  0.299840191382E+02
  0.182307466417E+03 -0.303081241879E+00  0.253330993648E+02
  0.189375395140E+03 -0.737100961551E+01 -0.406559688312E+01
  0.189386452365E+03 -0.741181242601E+01 -0.406667143331E+01
  0.182329435999E+03 -0.354770816608E+00 -0.177933931333E+02
  0.178594571820E+03 -0.654652128727E+01 -0.180326945181E+02
  0.170992380925E+03  0.105570734015E+01 -0.183258939035E+02
  0.165994472113E+03 -0.206227750820E+01 -0.181231769450E+02
  0.160170151897E+03  0.376207151513E+01 -0.167128882278E+02
  0.154138423554E+03  0.550041233725E+01 -0.158826082783E+02
  0.152409463844E+03  0.804678951531E+01  0.154257639110E+02
  0.152701160286E+03  0.786812706290E+01  0.154760282614E+02
  0.158961467272E+03  0.160778395287E+01  0.169689581190E+02
  0.160112081772E+03  0.147928528362E+01  0.171068992627E+02
  0.165803366623E+03 -0.421202643202E+01  0.165594552637E+02
  0.167352320180E+03 -0.350232490365E+01  0.166411965010E+02
  0.171179342845E+03 -0.732936353938E+01  0.368873094491E+01
  0.171388416192E+03 -0.784335656577E+01  0.370367455567E+01
  0.162353352427E+03  0.119170971151E+01 -0.223575445472E+02
  0.163837463899E+03 -0.166032908034E+01 -0.229590942836E+02
  0.108472881957E+03  0.537042734212E+02 -0.317466695681E+02
  0.107329293916E+03  0.555337593833E+02 -0.300233211791E+02
  0.158652870966E+03  0.421018233327E+01  0.895228225062E+02
  0.151518031122E+03  0.156243281215E+02  0.787709019432E+02
  0.196240676414E+03 -0.290983256279E+02  0.312607114167E+02
  0.191404661677E+03 -0.198048867018E+02  0.293005592162E+02
  0.189267690416E+03 -0.176679001537E+02 -0.427615418441E+01
  0.189370891796E+03 -0.179216138379E+02 -0.428352733833E+01
  0.178588997538E+03 -0.713968182941E+01 -0.180899255095E+02
  0.175338238318E+03 -0.862911904088E+01 -0.179183754564E+02
  0.166026032662E+03  0.683130422423E+00 -0.178305150307E+02
  0.163164220111E+03  0.100273304894E+01 -0.174874301851E+02
  0.154188971515E+03  0.997803343831E+01 -0.154095533143E+02
  0.153017584469E+03  0.106955020401E+02 -0.152077161482E+02
  0.152243205099E+03  0.921952929667E+01  0.152826939102E+02
  0.152421161800E+03  0.908301425009E+01  0.153162881253E+02
  0.158712656440E+03  0.279148263693E+01  0.168144669046E+02
  0.158973679754E+03  0.267013064149E+01  0.168557113956E+02
  0.165143704135E+03 -0.349992217444E+01  0.164258449410E+02
  0.165809305479E+03 -0.358007296251E+01  0.164984812040E+02
  0.171387854789E+03 -0.915864291186E+01  0.373084253278E+01
  0.170565735090E+03 -0.761738222022E+01  0.368200477175E+01
  0.163851756125E+03 -0.903402062860E+00 -0.228560705423E+02
  0.163000998210E+03  0.414601903234E+00 -0.225551927449E+02
  0.107440335456E+03  0.559752854510E+02 -0.298317549006E+02
  0.105154124379E+03  0.590462869801E+02 -0.267264403179E+02