# vtk DataFile Version 3.0
MachLine results file. Generated by MachLine, USU AeroLab (c) 2022.
ASCII
DATASET POLYDATA
POINTS                 114 float
  0.000000000000E+00  0.000000000000E+00  0.000000000000E+00
  0.997314477224E+04  0.000000000000E+00  0.732381971276E+03
  0.113538098335E+01  0.000000000000E+00 -0.658124566078E+00
  0.997319893265E+04  0.000000000000E+00  0.731644446835E+03
  0.113538098335E+01  0.000000000000E+00  0.658124566078E+00
  0.997310279182E+04  0.000000000000E+00  0.732953635825E+03
  0.192375373840E+01  0.192375373840E+01  0.000000000000E+00
  0.997315509094E+04  0.192375373840E+01  0.732241457390E+03
  0.305913543701E+01  0.192375373840E+01 -0.658124983311E+00
  0.997320925138E+04  0.192375373840E+01  0.731503932481E+03
  0.305913543701E+01  0.192375373840E+01  0.658124983311E+00
  0.997311311049E+04  0.192375373840E+01  0.732813122302E+03
  0.423028087616E+01  0.000000000000E+00 -0.108747220039E+01
  0.997324689338E+04  0.000000000000E+00  0.730991345975E+03
  0.423028087616E+01  0.000000000000E+00  0.108747220039E+01
  0.997308803215E+04  0.000000000000E+00  0.733154624336E+03
  0.660571479797E+01  0.547033166885E+01  0.658125698566E+00
  0.997313213370E+04  0.547033166885E+01  0.732554075486E+03
  0.113188476562E+02  0.192375373840E+01  0.980746448040E+00
  0.997313384945E+04  0.192375373840E+01  0.732530711391E+03
  0.113820018768E+02  0.113820018768E+02  0.000000000000E+00
  0.997320582341E+04  0.113820018768E+02  0.731550612624E+03
  0.125173873901E+02  0.113820018768E+02 -0.658127009869E+00
  0.997325998402E+04  0.113820018768E+02  0.730813085420E+03
  0.145402030945E+02  0.000000000000E+00 -0.479613035917E+00
  0.997325779514E+04  0.000000000000E+00  0.730842892353E+03
  0.145402030945E+02  0.000000000000E+00  0.479613035917E+00
  0.997318773181E+04  0.000000000000E+00  0.731796973296E+03
  0.148654365540E+02  0.547033166885E+01 -0.980747580528E+00
  0.997329614326E+04  0.547033166885E+01  0.730320690266E+03
  0.148654365540E+02  0.547033166885E+01  0.980747580528E+00
  0.997315287268E+04  0.547033166885E+01  0.732271664294E+03
  0.156122989655E+02  0.113820018768E+02 -0.108747613430E+01
  0.997330794492E+04  0.113820018768E+02  0.730159982225E+03
  0.156122989655E+02  0.113820018768E+02  0.108747613430E+01
  0.997314908311E+04  0.113820018768E+02  0.732323268412E+03
  0.190000000000E+02  0.000000000000E+00  0.000000000000E+00
  0.997324668508E+04  0.000000000000E+00  0.730994182505E+03
  0.209237651825E+02  0.192375373840E+01  0.000000000000E+00
  0.997325700384E+04  0.192375373840E+01  0.730853667783E+03
  0.239865016937E+02  0.197561950684E+02  0.108747911453E+01
  0.997319400073E+04  0.197561950684E+02  0.731711606928E+03
  0.244703655243E+02  0.547033166885E+01  0.000000000000E+00
  0.997327602721E+04  0.547033166885E+01  0.730594618723E+03
  0.291513423920E+02  0.197561950684E+02 -0.980752110481E+00
  0.997337277081E+04  0.197561950684E+02  0.729277221565E+03
  0.291513423920E+02  0.197561950684E+02  0.980752110481E+00
  0.997322949957E+04  0.197561950684E+02  0.731228204604E+03
  0.303820724487E+02  0.113820018768E+02  0.000000000000E+00
  0.997330773662E+04  0.113820018768E+02  0.730162818698E+03
  0.334741249084E+02  0.292438049316E+02 -0.108748245239E+01
  0.997340375324E+04  0.292438049316E+02  0.728855321126E+03
  0.334741249084E+02  0.292438049316E+02  0.108748245239E+01
  0.997324489051E+04  0.292438049316E+02  0.731018619881E+03
  0.387533912659E+02  0.376179962158E+02  0.658132553101E+00
  0.997330456799E+04  0.376179962158E+02  0.730205967334E+03
  0.387563171387E+02  0.197561950684E+02  0.000000000000E+00
  0.997335265468E+04  0.197561950684E+02  0.729551151185E+03
  0.437841453552E+02  0.292438049316E+02  0.479617565870E+00
  0.997334459112E+04  0.292438049316E+02  0.729660955975E+03
  0.446650657654E+02  0.435296669006E+02 -0.658133804798E+00
  0.997343241931E+04  0.435296669006E+02  0.728464963553E+03
  0.446650657654E+02  0.435296669006E+02  0.658133804798E+00
  0.997333627713E+04  0.435296669006E+02  0.729774170922E+03
  0.468944816589E+02  0.292438049316E+02  0.144200220704E+00
  0.997338577383E+04  0.292438049316E+02  0.729100154079E+03
  0.470131988525E+02  0.376179962158E+02 -0.980757772923E+00
  0.997346857925E+04  0.376179962158E+02  0.727972558889E+03
  0.470131988525E+02  0.376179962158E+02  0.980757772923E+00
  0.997332530718E+04  0.376179962158E+02  0.729923553192E+03
  0.470762481689E+02  0.470762481689E+02  0.000000000000E+00
  0.997339728140E+04  0.470762481689E+02  0.728943450823E+03
  0.477600097656E+02  0.435296669006E+02 -0.108748745918E+01
  0.997348038072E+04  0.435296669006E+02  0.727811853483E+03
  0.477600097656E+02  0.435296669006E+02  0.108748745918E+01
  0.997332151726E+04  0.435296669006E+02  0.729975162198E+03
  0.482439842224E+02  0.292438049316E+02  0.000000000000E+00
  0.997340354494E+04  0.292438049316E+02  0.728858157614E+03
  0.539993209839E+02  0.497689704895E+02  0.768971264362E+00
  0.997337824879E+04  0.497689704895E+02  0.729202625732E+03
  0.543178405762E+02  0.500874900818E+02 -0.157378642191E-15
  0.997343612410E+04  0.500874900818E+02  0.728414513948E+03
  0.566182289124E+02  0.376179962158E+02  0.000000000000E+00
  0.997344846300E+04  0.376179962158E+02  0.728246490101E+03
  0.580700759888E+02  0.435296669006E+02 -0.479619771242E+00
  0.997349128262E+04  0.435296669006E+02  0.727663397821E+03
  0.590887413025E+02  0.496935043335E+02  0.693503141403E+00
  0.997341105990E+04  0.496935043335E+02  0.728755823441E+03
  0.593759994507E+02  0.499807624817E+02  0.000000000000E+00
  0.997346325522E+04  0.499807624817E+02  0.728045058364E+03
  0.625299339294E+02  0.435296669006E+02  0.000000000000E+00
  0.997348017240E+04  0.435296669006E+02  0.727814690214E+03
  0.638795776367E+02  0.493391418457E+02  0.339143037796E+00
  0.997346264014E+04  0.493391418457E+02  0.728053434125E+03
  0.660765380859E+02  0.470762481689E+02  0.000000000000E+00
  0.997349919579E+04  0.470762481689E+02  0.727555640876E+03
  0.666507873535E+02  0.490000000000E+02  0.144201144576E+00
  0.997349174330E+04  0.490000000000E+02  0.727657124514E+03
  0.667527542114E+02  0.491019668579E+02 -0.101965606213E+00
  0.997351027063E+04  0.491019668579E+02  0.727404830347E+03
  0.667527542114E+02  0.491019668579E+02  0.101965606213E+00
  0.997349537518E+04  0.491019668579E+02  0.727607667706E+03
  0.680002975464E+02  0.490000000000E+02  0.000000000000E+00
  0.997350951452E+04  0.490000000000E+02  0.727415126572E+03
  0.190000000000E+02  0.000000000000E+00  0.000000000000E+00
  0.997324668508E+04  0.000000000000E+00  0.730994182505E+03
  0.209237651825E+02  0.192375373840E+01  0.000000000000E+00
  0.997325700384E+04  0.192375373840E+01  0.730853667783E+03
  0.244703655243E+02  0.547033166885E+01  0.000000000000E+00
  0.997327602721E+04  0.547033166885E+01  0.730594618723E+03
  0.303820724487E+02  0.113820018768E+02  0.000000000000E+00
  0.997330773662E+04  0.113820018768E+02  0.730162818698E+03
  0.387563171387E+02  0.197561950684E+02  0.000000000000E+00
  0.997335265468E+04  0.197561950684E+02  0.729551151185E+03
POLYGONS                  18                  72
3                  38                  39                  37
3                  38                  37                  36
3                  42                  43                  39
3                  42                  39                  38
3                  48                  49                  43
3                  48                  43                  42
3                  56                  57                  49
3                  56                  49                  48
3                  76                  77                  57
3                  76                  57                  56
3                  82                  83                  77
3                  82                  77                  76
3                  90                  91                  83
3                  90                  83                  82
3                  94                  95                  91
3                  94                  91                  90
3                 102                 103                  95
3                 102                  95                  94
CELL_DATA                  18
NORMALS normals float
  0.730425627137E-01 -0.730429972321E-01 -0.994650443416E+00
  0.730425627137E-01 -0.730429972322E-01 -0.994650443416E+00
  0.730425625694E-01 -0.730430241361E-01 -0.994650441451E+00
  0.730425625694E-01 -0.730430241361E-01 -0.994650441451E+00
  0.730425626116E-01 -0.730430162675E-01 -0.994650442026E+00
  0.730425626116E-01 -0.730430162674E-01 -0.994650442026E+00
  0.730425626355E-01 -0.730430118220E-01 -0.994650442350E+00
  0.730425626355E-01 -0.730430118220E-01 -0.994650442350E+00
  0.730425626817E-01 -0.730430032070E-01 -0.994650442980E+00
  0.730425626817E-01 -0.730430032070E-01 -0.994650442980E+00
  0.730425625467E-01 -0.730430283704E-01 -0.994650441142E+00
  0.730425625467E-01 -0.730430283704E-01 -0.994650441142E+00
  0.730425627688E-01 -0.730429869656E-01 -0.994650444166E+00
  0.730425627688E-01 -0.730429869656E-01 -0.994650444166E+00
  0.730425625170E-01 -0.730430339041E-01 -0.994650440737E+00
  0.730425625170E-01 -0.730430339041E-01 -0.994650440737E+00
  0.730425634865E-01 -0.730428531657E-01 -0.994650453939E+00
  0.730425634865E-01 -0.730428531657E-01 -0.994650453939E+00
POINT_DATA                 114
SCALARS mu float 1
LOOKUP_TABLE default
  0.000000000000E+00
  0.000000000000E+00
  0.000000000000E+00
  0.000000000000E+00
  0.000000000000E+00
  0.000000000000E+00
  0.000000000000E+00
  0.000000000000E+00
  0.000000000000E+00
  0.000000000000E+00
  0.000000000000E+00
  0.000000000000E+00
  0.000000000000E+00
  0.000000000000E+00
  0.000000000000E+00
  0.000000000000E+00
  0.000000000000E+00
  0.000000000000E+00
  0.000000000000E+00
  0.000000000000E+00
  0.000000000000E+00
  0.000000000000E+00
  0.000000000000E+00
  0.000000000000E+00
  0.000000000000E+00
  0.000000000000E+00
  0.000000000000E+00
  0.000000000000E+00
  0.000000000000E+00
  0.000000000000E+00
  0.000000000000E+00
  0.000000000000E+00
  0.000000000000E+00
  0.000000000000E+00
  0.000000000000E+00
  0.000000000000E+00
 -0.208738924217E+01
 -0.208738924217E+01
 -0.212204632029E+01
 -0.212204632029E+01
  0.000000000000E+00
  0.000000000000E+00
 -0.219293889915E+01
 -0.219293889915E+01
  0.000000000000E+00
  0.000000000000E+00
  0.000000000000E+00
  0.000000000000E+00
 -0.228139947074E+01
 -0.228139947074E+01
  0.000000000000E+00
  0.000000000000E+00
  0.000000000000E+00
  0.000000000000E+00
  0.000000000000E+00
  0.000000000000E+00
 -0.233580950009E+01
 -0.233580950009E+01
  0.000000000000E+00
  0.000000000000E+00
  0.000000000000E+00
  0.000000000000E+00
  0.000000000000E+00
  0.000000000000E+00
  0.000000000000E+00
  0.000000000000E+00
  0.000000000000E+00
  0.000000000000E+00
  0.000000000000E+00
  0.000000000000E+00
  0.000000000000E+00
  0.000000000000E+00
  0.000000000000E+00
  0.000000000000E+00
  0.000000000000E+00
  0.000000000000E+00
 -0.227590590766E+01
 -0.227590590766E+01
  0.000000000000E+00
  0.000000000000E+00
  0.000000000000E+00
  0.000000000000E+00
 -0.201513906029E+01
 -0.201513906029E+01
  0.000000000000E+00
  0.000000000000E+00
  0.000000000000E+00
  0.000000000000E+00
  0.000000000000E+00
  0.000000000000E+00
 -0.151831197009E+01
 -0.151831197009E+01
  0.000000000000E+00
  0.000000000000E+00
 -0.832601959723E+00
 -0.832601959723E+00
  0.000000000000E+00
  0.000000000000E+00
  0.000000000000E+00
  0.000000000000E+00
  0.000000000000E+00
  0.000000000000E+00
  0.000000000000E+00
  0.000000000000E+00
  0.208738924217E+01
  0.208738924217E+01
  0.212204632029E+01
  0.212204632029E+01
  0.219293889915E+01
  0.219293889915E+01
  0.228139947074E+01
  0.228139947074E+01
  0.233580950009E+01
  0.233580950009E+01
