# vtk DataFile Version 3.0
MachLine results file. Generated by MachLine, USU AeroLab (c) 2022.
ASCII
DATASET POLYDATA
POINTS                 144 float
  0.312930634121E-04  0.000000000000E+00  0.387506237003E-20
  0.113539063053E+01  0.000000000000E+00 -0.658087935210E+00
  0.113539063053E+01  0.000000000000E+00  0.658087935210E+00
  0.192378249374E+01  0.192372498306E+01  0.118693775247E-20
  0.305914835645E+01  0.192374081896E+01 -0.658086193634E+00
  0.305914835645E+01  0.192374081896E+01  0.658086193634E+00
  0.423028253315E+01  0.000000000000E+00 -0.108742011765E+01
  0.423028253315E+01  0.000000000000E+00  0.108742011765E+01
  0.547037632114E+01  0.547028701656E+01  0.184311801238E-20
  0.615404028205E+01  0.192375045511E+01 -0.108741647537E+01
  0.615404028205E+01  0.192375045511E+01  0.108741647537E+01
  0.660573385881E+01  0.547031260802E+01 -0.658068469811E+00
  0.660573385881E+01  0.547031260802E+01  0.658068469811E+00
  0.939508564654E+01  0.000000000000E+00 -0.980702541365E+00
  0.939508564654E+01  0.000000000000E+00  0.980702541365E+00
  0.970062414602E+01  0.547032722042E+01 -0.108739780002E+01
  0.970062414602E+01  0.547032722042E+01  0.108739780002E+01
  0.113188445158E+02  0.192375687882E+01 -0.980693094219E+00
  0.113188445158E+02  0.192375687882E+01  0.980693094219E+00
  0.113820643673E+02  0.113819393863E+02  0.103177094566E-19
  0.125174139439E+02  0.113819753230E+02 -0.658047284009E+00
  0.125174139439E+02  0.113819753230E+02  0.658047284009E+00
  0.145401991734E+02  0.000000000000E+00 -0.479574165270E+00
  0.145401991734E+02  0.000000000000E+00  0.479574165270E+00
  0.148654325708E+02  0.547033565208E+01 -0.980679907908E+00
  0.148654325708E+02  0.547033565208E+01  0.980679907908E+00
  0.156123048447E+02  0.113819959977E+02 -0.108737528443E+01
  0.156123048447E+02  0.113819959977E+02  0.108737528443E+01
  0.164639622288E+02  0.192375787923E+01 -0.479572980793E+00
  0.164639622288E+02  0.192375787923E+01  0.479572980793E+00
  0.176505079470E+02  0.000000000000E+00 -0.144172424756E+00
  0.176505079470E+02  0.000000000000E+00  0.144172424756E+00
  0.189999778925E+02  0.000000000000E+00 -0.165542730925E-05
  0.195742705951E+02  0.192375720641E+01 -0.144166632792E+00
  0.195742705951E+02  0.192375720641E+01  0.144166632792E+00
  0.197562681851E+02  0.197561219516E+02  0.150902427192E-19
  0.200105551723E+02  0.547033748596E+01 -0.479557181615E+00
  0.200105551723E+02  0.547033748596E+01  0.479557181615E+00
  0.207771191273E+02  0.113820071544E+02 -0.980659764437E+00
  0.207771191273E+02  0.113820071544E+02  0.980659764437E+00
  0.208916146114E+02  0.197561629460E+02 -0.658032293233E+00
  0.208916146114E+02  0.197561629460E+02  0.658032293233E+00
  0.209237410836E+02  0.192377783745E+01 -0.254601661134E-05
  0.231208669354E+02  0.547033723104E+01 -0.144147288307E+00
  0.231208669354E+02  0.547033723104E+01  0.144147288307E+00
  0.239865086400E+02  0.197561881221E+02 -0.108735995859E+01
  0.239865086400E+02  0.197561881221E+02  0.108735995859E+01
  0.244703257500E+02  0.547037144337E+01 -0.420209809024E-05
  0.259222501778E+02  0.113820100762E+02 -0.479534889879E+00
  0.259222501778E+02  0.113820100762E+02  0.479534889879E+00
  0.290325693319E+02  0.113820100595E+02 -0.144123159709E+00
  0.290325693319E+02  0.113820100595E+02  0.144123159709E+00
  0.291513358854E+02  0.197562015750E+02 -0.980641566995E+00
  0.291513358854E+02  0.197562015750E+02  0.980641566995E+00
  0.292438739780E+02  0.292437358852E+02  0.570007673422E-20
  0.303792302038E+02  0.292437728021E+02 -0.658034298375E+00
  0.303792302038E+02  0.292437728021E+02  0.658034298375E+00
  0.303820150452E+02  0.113820592806E+02 -0.606459828689E-05
  0.334741318570E+02  0.292437979831E+02 -0.108736325854E+01
  0.334741318570E+02  0.292437979831E+02  0.108736325854E+01
  0.342964796805E+02  0.197562051036E+02 -0.479518310694E+00
  0.342964796805E+02  0.197562051036E+02  0.479518310694E+00
  0.374068082499E+02  0.197562052085E+02 -0.144105313513E+00
  0.374068082499E+02  0.197562052085E+02  0.144105313513E+00
  0.376180497188E+02  0.376179427128E+02  0.220844969606E-20
  0.386389740370E+02  0.292438117601E+02 -0.980639078250E+00
  0.386389740370E+02  0.292438117601E+02  0.980639078250E+00
  0.387534178424E+02  0.376179696393E+02 -0.658052759190E+00
  0.387534178424E+02  0.376179696393E+02  0.658052759190E+00
  0.387562492294E+02  0.197562629782E+02 -0.717453034836E-05
  0.418483373371E+02  0.376179903301E+02 -0.108738447037E+01
  0.418483373371E+02  0.376179903301E+02  0.108738447037E+01
  0.435297029672E+02  0.435296308340E+02 -0.148872652358E-20
  0.437841353047E+02  0.292438149822E+02 -0.479519620832E+00
  0.437841353047E+02  0.292438149822E+02  0.479519620832E+00
  0.446650848654E+02  0.435296478006E+02 -0.658076458324E+00
  0.446650848654E+02  0.435296478006E+02  0.658076458324E+00
  0.468944715132E+02  0.292438150774E+02 -0.144105707172E+00
  0.468944715132E+02  0.292438150774E+02  0.144105707172E+00
  0.470131928898E+02  0.376180021786E+02 -0.980656468792E+00
  0.470131928898E+02  0.376180021786E+02  0.980656468792E+00
  0.470762711240E+02  0.470762252138E+02 -0.189503762973E-20
  0.477600142238E+02  0.435296624425E+02 -0.108741098466E+01
  0.477600142238E+02  0.435296624425E+02  0.108741098466E+01
  0.482116561869E+02  0.470762352010E+02 -0.658095644386E+00
  0.482116561869E+02  0.470762352010E+02  0.658095644386E+00
  0.482439203362E+02  0.292438688182E+02 -0.674948747450E-05
  0.490000098337E+02  0.489999829894E+02  0.328552793022E-20
  0.501354069086E+02  0.489999871344E+02 -0.658111061843E+00
  0.501354069086E+02  0.489999871344E+02  0.658111061843E+00
  0.506007778866E+02  0.494653516704E+02 -0.465360197472E+00
  0.506007778866E+02  0.494653516704E+02  0.465360197472E+00
  0.507935375703E+02  0.496581169850E+02 -0.771259651005E-15
  0.513065943267E+02  0.470762448761E+02 -0.108743228644E+01
  0.513065943267E+02  0.470762448761E+02  0.108743228644E+01
  0.521583703386E+02  0.376180044784E+02 -0.479538356774E+00
  0.521583703386E+02  0.376180044784E+02  0.479538356774E+00
  0.529248840674E+02  0.435296714441E+02 -0.980682430110E+00
  0.529248840674E+02  0.435296714441E+02  0.980682430110E+00
  0.532303491166E+02  0.489999893063E+02 -0.108744779990E+01
  0.532303491166E+02  0.489999893063E+02  0.108744779990E+01
  0.539993229218E+02  0.497689436952E+02 -0.768946532731E+00
  0.539993229218E+02  0.497689436952E+02  0.768946532731E+00
  0.543178430301E+02  0.500874571974E+02 -0.157374059169E-15
  0.552687143289E+02  0.376180044211E+02 -0.144124171041E+00
  0.552687143289E+02  0.376180044211E+02  0.144124171041E+00
  0.564714741318E+02  0.470762515457E+02 -0.980703384050E+00
  0.564714741318E+02  0.470762515457E+02  0.980703384050E+00
  0.566181803863E+02  0.376180447422E+02 -0.512671807591E-05
  0.580700700039E+02  0.435296728856E+02 -0.479561446547E+00
  0.580700700039E+02  0.435296728856E+02  0.479561446547E+00
  0.583952342525E+02  0.489999966035E+02 -0.980715337112E+00
  0.583952342525E+02  0.489999966035E+02  0.980715337112E+00
  0.590887388161E+02  0.496934812578E+02 -0.693469805575E+00
  0.590887388161E+02  0.496934812578E+02  0.693469805575E+00
  0.593759966941E+02  0.499807194883E+02 -0.424930093259E-20
  0.611804219244E+02  0.435296725276E+02 -0.144148458102E+00
  0.611804219244E+02  0.435296725276E+02  0.144148458102E+00
  0.616166681578E+02  0.470762525270E+02 -0.479577866536E+00
  0.616166681578E+02  0.470762525270E+02  0.479577866536E+00
  0.625299026009E+02  0.435296982293E+02 -0.330981405380E-05
  0.635404285646E+02  0.489999966685E+02 -0.479587400581E+00
  0.635404285646E+02  0.489999966685E+02  0.479587400581E+00
  0.638795744263E+02  0.493391226712E+02 -0.339121163529E+00
  0.638795744263E+02  0.493391226712E+02  0.339121163529E+00
  0.640200547551E+02  0.494795968058E+02  0.296949892487E-15
  0.647270242582E+02  0.470762518038E+02 -0.144167179154E+00
  0.647270242582E+02  0.470762518038E+02  0.144167179154E+00
  0.660765195290E+02  0.470762667259E+02 -0.196051129310E-05
  0.666507849833E+02  0.489999978860E+02 -0.144179063945E+00
  0.666507849833E+02  0.489999978860E+02  0.144179063945E+00
  0.667527523879E+02  0.491019555434E+02 -0.101954743525E+00
  0.667527523879E+02  0.491019555434E+02  0.101954743525E+00
  0.667949891457E+02  0.491441877800E+02 -0.260490388611E-16
  0.680002928756E+02  0.489999838682E+02  0.822676812894E-21
  0.482439203362E+02  0.292438688182E+02  0.674948747450E-05
  0.387562492294E+02  0.197562629782E+02  0.717453034836E-05
  0.209237410836E+02  0.192377783745E+01  0.254601661134E-05
  0.189999778925E+02  0.000000000000E+00  0.165542730925E-05
  0.303820150452E+02  0.113820592806E+02  0.606459828689E-05
  0.660765195290E+02  0.470762667259E+02  0.196051129310E-05
  0.625299026009E+02  0.435296982293E+02  0.330981405380E-05
  0.244703257500E+02  0.547037144337E+01  0.420209809024E-05
  0.566181803863E+02  0.376180447422E+02  0.512671807591E-05
VERTICES                 144                 288
1                   0
1                   1
1                   2
1                   3
1                   4
1                   5
1                   6
1                   7
1                   8
1                   9
1                  10
1                  11
1                  12
1                  13
1                  14
1                  15
1                  16
1                  17
1                  18
1                  19
1                  20
1                  21
1                  22
1                  23
1                  24
1                  25
1                  26
1                  27
1                  28
1                  29
1                  30
1                  31
1                  32
1                  33
1                  34
1                  35
1                  36
1                  37
1                  38
1                  39
1                  40
1                  41
1                  42
1                  43
1                  44
1                  45
1                  46
1                  47
1                  48
1                  49
1                  50
1                  51
1                  52
1                  53
1                  54
1                  55
1                  56
1                  57
1                  58
1                  59
1                  60
1                  61
1                  62
1                  63
1                  64
1                  65
1                  66
1                  67
1                  68
1                  69
1                  70
1                  71
1                  72
1                  73
1                  74
1                  75
1                  76
1                  77
1                  78
1                  79
1                  80
1                  81
1                  82
1                  83
1                  84
1                  85
1                  86
1                  87
1                  88
1                  89
1                  90
1                  91
1                  92
1                  93
1                  94
1                  95
1                  96
1                  97
1                  98
1                  99
1                 100
1                 101
1                 102
1                 103
1                 104
1                 105
1                 106
1                 107
1                 108
1                 109
1                 110
1                 111
1                 112
1                 113
1                 114
1                 115
1                 116
1                 117
1                 118
1                 119
1                 120
1                 121
1                 122
1                 123
1                 124
1                 125
1                 126
1                 127
1                 128
1                 129
1                 130
1                 131
1                 132
1                 133
1                 134
1                 135
1                 136
1                 137
1                 138
1                 139
1                 140
1                 141
1                 142
1                 143
POINT_DATA                 144
SCALARS phi float 1
LOOKUP_TABLE default
  0.000000000000E+00
 -0.111022302463E-15
 -0.222044604925E-15
 -0.888178419700E-15
  0.444089209850E-15
  0.111022302463E-15
  0.666133814775E-15
 -0.333066907388E-15
  0.222044604925E-15
 -0.111022302463E-15
 -0.111022302463E-15
  0.111022302463E-14
 -0.333066907388E-15
 -0.277555756156E-16
  0.263677968348E-15
  0.222044604925E-15
  0.000000000000E+00
  0.180411241502E-15
  0.346944695195E-16
  0.555111512313E-15
  0.000000000000E+00
  0.333066907388E-15
  0.111022302463E-15
  0.111022302463E-15
  0.641847686111E-16
  0.111022302463E-15
 -0.166533453694E-15
  0.333066907388E-15
  0.166533453694E-15
 -0.222044604925E-15
 -0.388578058619E-15
  0.222044604925E-15
 -0.388578058619E-15
 -0.166533453694E-15
 -0.555111512313E-16
 -0.111022302463E-15
 -0.166533453694E-15
  0.222044604925E-15
 -0.263677968348E-15
 -0.166533453694E-15
 -0.888178419700E-15
 -0.111022302463E-15
  0.111022302463E-15
 -0.111022302463E-15
  0.555111512313E-16
  0.499600361081E-15
 -0.138777878078E-15
 -0.111022302463E-15
  0.499600361081E-15
 -0.388578058619E-15
  0.555111512313E-16
  0.222044604925E-15
 -0.111022302463E-15
 -0.333066907388E-15
 -0.444089209850E-15
 -0.111022302463E-15
  0.111022302463E-15
 -0.111022302463E-15
 -0.555111512313E-16
 -0.555111512313E-16
 -0.555111512313E-16
 -0.555111512313E-15
  0.222044604925E-15
  0.000000000000E+00
 -0.555111512313E-15
 -0.971445146547E-16
  0.222044604925E-15
  0.000000000000E+00
 -0.277555756156E-15
 -0.111022302463E-15
  0.555111512313E-16
 -0.555111512313E-16
 -0.222044604925E-15
  0.000000000000E+00
 -0.166533453694E-15
  0.222044604925E-15
  0.555111512313E-16
 -0.222044604925E-15
  0.222044604925E-15
  0.582867087928E-15
  0.222044604925E-15
 -0.721644966006E-15
 -0.527355936697E-15
  0.277555756156E-16
  0.000000000000E+00
 -0.166533453694E-15
  0.666133814775E-15
 -0.277555756156E-15
 -0.166533453694E-15
  0.277555756156E-15
  0.111022302463E-15
  0.000000000000E+00
  0.000000000000E+00
  0.111022302463E-15
 -0.138777878078E-16
  0.000000000000E+00
  0.333066907388E-15
 -0.277555756156E-16
 -0.444089209850E-15
  0.971445146547E-16
  0.000000000000E+00
  0.364291929955E-16
 -0.832667268469E-16
 -0.832667268469E-16
  0.388578058619E-15
 -0.222044604925E-15
 -0.832667268469E-16
 -0.388578058619E-15
  0.000000000000E+00
  0.555111512313E-16
  0.000000000000E+00
 -0.138777878078E-15
 -0.277555756156E-15
 -0.222044604925E-15
  0.166533453694E-15
 -0.555111512313E-16
 -0.111022302463E-15
 -0.166533453694E-15
  0.111022302463E-15
  0.499600361081E-15
 -0.333066907388E-15
  0.388578058619E-15
 -0.333066907388E-15
  0.277555756156E-15
  0.222044604925E-15
  0.166533453694E-15
  0.000000000000E+00
  0.277555756156E-15
  0.111022302463E-15
 -0.555111512313E-16
 -0.999200722163E-15
  0.166533453694E-15
 -0.555111512313E-15
 -0.832667268469E-15
  0.555111512313E-16
 -0.333066907388E-15
 -0.555111512313E-15
 -0.610622663544E-15
  0.222044604925E-15
  0.277555756156E-15
 -0.555111512313E-16
 -0.499600361081E-15
  0.555111512313E-16
  0.000000000000E+00
SCALARS phi_mu float 1
LOOKUP_TABLE default
  0.622117958813E+00
  0.789136295175E+00
  0.736689492034E+00
  0.790371841222E+00
  0.805008468953E+00
  0.736083309913E+00
  0.679547429289E+00
  0.564455127284E+00
  0.757780178082E+00
  0.570653122959E+00
  0.447291861434E+00
  0.742110775221E+00
  0.670311657329E+00
  0.241263592160E+00
  0.114422783391E+00
  0.457875755365E+00
  0.332692668434E+00
  0.104156743639E+00
 -0.205216520566E-01
  0.682935093455E+00
  0.660910988729E+00
  0.588798401813E+00
 -0.210330084723E+00
 -0.284804543019E+00
 -0.102805894548E-01
 -0.132925198250E+00
  0.371796994126E+00
  0.246807485968E+00
 -0.290465818126E+00
 -0.359396497806E+00
 -0.384419219612E+00
 -0.409938500873E+00
 -0.396729442613E+00
 -0.392186430302E+00
 -0.414603313449E+00
  0.634437836919E+00
 -0.337493183998E+00
 -0.404647855992E+00
 -0.717626629617E-01
 -0.193529822997E+00
  0.613610512192E+00
  0.541577708099E+00
 -0.358266216834E+00
 -0.398641838341E+00
 -0.420660955769E+00
  0.330148642168E+00
  0.205389533418E+00
 -0.356746114368E+00
 -0.363939462441E+00
 -0.430655680771E+00
 -0.411905062134E+00
 -0.433814408343E+00
 -0.100945510706E+00
 -0.222441719320E+00
  0.607836802351E+00
  0.587597917673E+00
  0.515634389720E+00
 -0.366287089994E+00
  0.305893709899E+00
  0.181269032987E+00
 -0.382610625233E+00
 -0.449197715785E+00
 -0.425984412394E+00
 -0.447855718607E+00
  0.582875693923E+00
 -0.122230406625E+00
 -0.243579480743E+00
  0.562010649164E+00
  0.490151591498E+00
 -0.378733752492E+00
  0.278597885595E+00
  0.154198348580E+00
  0.546762357347E+00
 -0.400889007548E+00
 -0.467392526651E+00
  0.522791056701E+00
  0.451218533898E+00
 -0.442153833113E+00
 -0.463997794895E+00
 -0.151259904939E+00
 -0.272287967082E+00
  0.489422953110E+00
  0.230840709457E+00
  0.107239891479E+00
  0.454395128669E+00
  0.383848966570E+00
 -0.393854693614E+00
  0.378413484959E+00
  0.316672075264E+00
  0.255483960224E+00
  0.252676657050E+00
  0.212865159238E+00
  0.213578946440E+00
  0.143534952500E+00
  0.242452718508E-01
 -0.426219308247E+00
 -0.492491506458E+00
 -0.199565880345E+00
 -0.319060923835E+00
  0.475396795466E-01
 -0.516556729990E-01
 -0.824097074194E-02
 -0.702907107026E-01
 -0.543109715815E-01
 -0.460898815761E+00
 -0.482663028204E+00
 -0.238628138907E+00
 -0.351164428306E+00
 -0.408779594189E+00
 -0.442340131071E+00
 -0.507574720161E+00
 -0.243945434023E+00
 -0.334979910751E+00
 -0.255507016572E+00
 -0.311722822359E+00
 -0.283569305206E+00
 -0.450556393042E+00
 -0.472013212141E+00
 -0.405436586171E+00
 -0.467103668659E+00
 -0.387843058895E+00
 -0.331344388990E+00
 -0.378395859762E+00
 -0.319311591666E+00
 -0.348406681413E+00
 -0.326526780140E+00
 -0.379590756249E+00
 -0.400196168076E+00
 -0.309548184423E+00
 -0.268398867960E+00
 -0.282982927512E+00
 -0.260892967241E+00
 -0.269936743314E+00
 -0.261598108927E+00
 -0.195804734480E+00
 -0.393856156198E+00
 -0.378735305575E+00
 -0.358266793885E+00
 -0.396729949927E+00
 -0.366288411260E+00
 -0.309548611321E+00
 -0.387843783568E+00
 -0.356747043255E+00
 -0.408780711762E+00
SCALARS phi_sigma float 1
LOOKUP_TABLE default
 -0.622117958813E+00
 -0.789136295175E+00
 -0.736689492034E+00
 -0.790371841222E+00
 -0.805008468953E+00
 -0.736083309913E+00
 -0.679547429289E+00
 -0.564455127284E+00
 -0.757780178082E+00
 -0.570653122959E+00
 -0.447291861434E+00
 -0.742110775221E+00
 -0.670311657329E+00
 -0.241263592160E+00
 -0.114422783391E+00
 -0.457875755365E+00
 -0.332692668434E+00
 -0.104156743639E+00
  0.205216520566E-01
 -0.682935093455E+00
 -0.660910988729E+00
 -0.588798401813E+00
  0.210330084723E+00
  0.284804543019E+00
  0.102805894548E-01
  0.132925198250E+00
 -0.371796994126E+00
 -0.246807485968E+00
  0.290465818126E+00
  0.359396497806E+00
  0.384419219612E+00
  0.409938500873E+00
  0.396729442613E+00
  0.392186430302E+00
  0.414603313449E+00
 -0.634437836919E+00
  0.337493183998E+00
  0.404647855992E+00
  0.717626629617E-01
  0.193529822997E+00
 -0.613610512192E+00
 -0.541577708099E+00
  0.358266216834E+00
  0.398641838341E+00
  0.420660955769E+00
 -0.330148642168E+00
 -0.205389533418E+00
  0.356746114368E+00
  0.363939462441E+00
  0.430655680771E+00
  0.411905062134E+00
  0.433814408343E+00
  0.100945510706E+00
  0.222441719320E+00
 -0.607836802351E+00
 -0.587597917673E+00
 -0.515634389720E+00
  0.366287089994E+00
 -0.305893709899E+00
 -0.181269032987E+00
  0.382610625233E+00
  0.449197715785E+00
  0.425984412394E+00
  0.447855718607E+00
 -0.582875693923E+00
  0.122230406625E+00
  0.243579480743E+00
 -0.562010649164E+00
 -0.490151591498E+00
  0.378733752492E+00
 -0.278597885595E+00
 -0.154198348580E+00
 -0.546762357347E+00
  0.400889007548E+00
  0.467392526651E+00
 -0.522791056701E+00
 -0.451218533898E+00
  0.442153833113E+00
  0.463997794895E+00
  0.151259904939E+00
  0.272287967082E+00
 -0.489422953110E+00
 -0.230840709457E+00
 -0.107239891479E+00
 -0.454395128669E+00
 -0.383848966570E+00
  0.393854693614E+00
 -0.378413484959E+00
 -0.316672075264E+00
 -0.255483960224E+00
 -0.252676657050E+00
 -0.212865159238E+00
 -0.213578946440E+00
 -0.143534952500E+00
 -0.242452718508E-01
  0.426219308247E+00
  0.492491506458E+00
  0.199565880345E+00
  0.319060923835E+00
 -0.475396795466E-01
  0.516556729990E-01
  0.824097074194E-02
  0.702907107026E-01
  0.543109715815E-01
  0.460898815761E+00
  0.482663028204E+00
  0.238628138907E+00
  0.351164428306E+00
  0.408779594189E+00
  0.442340131071E+00
  0.507574720161E+00
  0.243945434023E+00
  0.334979910751E+00
  0.255507016572E+00
  0.311722822359E+00
  0.283569305206E+00
  0.450556393042E+00
  0.472013212141E+00
  0.405436586171E+00
  0.467103668659E+00
  0.387843058895E+00
  0.331344388990E+00
  0.378395859762E+00
  0.319311591666E+00
  0.348406681413E+00
  0.326526780140E+00
  0.379590756249E+00
  0.400196168076E+00
  0.309548184423E+00
  0.268398867960E+00
  0.282982927512E+00
  0.260892967241E+00
  0.269936743314E+00
  0.261598108927E+00
  0.195804734480E+00
  0.393856156198E+00
  0.378735305575E+00
  0.358266793885E+00
  0.396729949927E+00
  0.366288411260E+00
  0.309548611321E+00
  0.387843783568E+00
  0.356747043255E+00
  0.408780711762E+00
