# vtk DataFile Version 3.0
MachLine results file. Generated by MachLine, USU AeroLab (c) 2022.
ASCII
DATASET POLYDATA
POINTS                3696 float
  0.000000000000E+00  0.000000000000E+00  0.000000000000E+00
  0.997314477224E+04  0.000000000000E+00  0.732381971276E+03
  0.147665724158E+00  0.000000000000E+00 -0.234920635819E+00
  0.997316272326E+04  0.000000000000E+00  0.732137524988E+03
  0.147665724158E+00  0.000000000000E+00  0.234920635819E+00
  0.997312840534E+04  0.000000000000E+00  0.732604846109E+03
  0.339639574289E+00  0.339639574289E+00  0.000000000000E+00
  0.997314659401E+04  0.339639574289E+00  0.732357163488E+03
  0.473465979099E+00  0.000000000000E+00 -0.436293870211E+00
  0.997317917940E+04  0.000000000000E+00  0.731913434942E+03
  0.473465979099E+00  0.000000000000E+00  0.436293870211E+00
  0.997311544427E+04  0.000000000000E+00  0.732781342267E+03
  0.487305283546E+00  0.339639574289E+00 -0.234920650721E+00
  0.997316454503E+04  0.339639574289E+00  0.732112717185E+03
  0.487305283546E+00  0.339639574289E+00  0.234920650721E+00
  0.997313022711E+04  0.339639574289E+00  0.732580038336E+03
  0.735364913940E+00  0.735364913940E+00  0.000000000000E+00
  0.997314871662E+04  0.735364913940E+00  0.732328259109E+03
  0.813105583191E+00  0.339639574289E+00 -0.436293929815E+00
  0.997318100118E+04  0.339639574289E+00  0.731888627091E+03
  0.813105583191E+00  0.339639574289E+00  0.436293929815E+00
  0.997311726604E+04  0.339639574289E+00  0.732756534535E+03
  0.883030653000E+00  0.735364913940E+00 -0.234920680523E+00
  0.997316666764E+04  0.735364913940E+00  0.732083812775E+03
  0.883030653000E+00  0.735364913940E+00  0.234920680523E+00
  0.997313234971E+04  0.735364913940E+00  0.732551133985E+03
  0.944064557552E+00  0.000000000000E+00 -0.604293465614E+00
  0.997319397456E+04  0.000000000000E+00  0.731711963235E+03
  0.944064557552E+00  0.000000000000E+00  0.604293465614E+00
  0.997310569754E+04  0.000000000000E+00  0.732914067508E+03
  0.119528055191E+01  0.119528055191E+01  0.000000000000E+00
  0.997315118353E+04  0.119528055191E+01  0.732294666175E+03
  0.120883107185E+01  0.735364913940E+00 -0.436293989420E+00
  0.997318312379E+04  0.735364913940E+00  0.731859722643E+03
  0.120883107185E+01  0.735364913940E+00  0.436293989420E+00
  0.997311938864E+04  0.735364913940E+00  0.732727630205E+03
  0.128370416164E+01  0.339639574289E+00 -0.604293525219E+00
  0.997319579633E+04  0.339639574289E+00  0.731687155385E+03
  0.128370416164E+01  0.339639574289E+00  0.604293525219E+00
  0.997310751931E+04  0.339639574289E+00  0.732889259776E+03
  0.134294629097E+01  0.119528055191E+01 -0.234920725226E+00
  0.997316913455E+04  0.119528055191E+01  0.732050219796E+03
  0.134294629097E+01  0.119528055191E+01  0.234920725226E+00
  0.997313481662E+04  0.119528055191E+01  0.732517541095E+03
  0.157641971111E+01  0.000000000000E+00 -0.760520398617E+00
  0.997320877746E+04  0.000000000000E+00  0.731510386100E+03
  0.157641971111E+01  0.000000000000E+00  0.760520398617E+00
  0.997309767834E+04  0.000000000000E+00  0.733023268287E+03
  0.166874670982E+01  0.119528055191E+01 -0.436294049025E+00
  0.997318559070E+04  0.119528055191E+01  0.731826129649E+03
  0.166874670982E+01  0.119528055191E+01  0.436294049025E+00
  0.997312185555E+04  0.119528055191E+01  0.732694037330E+03
  0.167942965031E+01  0.735364913940E+00 -0.604293584824E+00
  0.997319791894E+04  0.735364913940E+00  0.731658250937E+03
  0.167942965031E+01  0.735364913940E+00  0.604293584824E+00
  0.997310964191E+04  0.735364913940E+00  0.732860355446E+03
  0.172824025154E+01  0.172824025154E+01  0.000000000000E+00
  0.997315404224E+04  0.172824025154E+01  0.732255737991E+03
  0.187590610981E+01  0.172824025154E+01 -0.234920769930E+00
  0.997317199326E+04  0.172824025154E+01  0.732011291559E+03
  0.187590610981E+01  0.172824025154E+01  0.234920769930E+00
  0.997313767532E+04  0.172824025154E+01  0.732478612947E+03
  0.191605937481E+01  0.339639574289E+00 -0.760520458221E+00
  0.997321059923E+04  0.339639574289E+00  0.731485578245E+03
  0.191605937481E+01  0.339639574289E+00  0.760520458221E+00
  0.997309950010E+04  0.339639574289E+00  0.732998460551E+03
  0.213934540749E+01  0.119528055191E+01 -0.604293704033E+00
  0.997320038586E+04  0.119528055191E+01  0.731624657875E+03
  0.213934540749E+01  0.119528055191E+01  0.604293704033E+00
  0.997311210881E+04  0.119528055191E+01  0.732826762621E+03
  0.220170640945E+01  0.172824025154E+01 -0.436294138432E+00
  0.997318844942E+04  0.172824025154E+01  0.731787201377E+03
  0.220170640945E+01  0.172824025154E+01  0.436294138432E+00
  0.997312471425E+04  0.172824025154E+01  0.732655109235E+03
  0.231178498268E+01  0.735364913940E+00 -0.760520577431E+00
  0.997321272185E+04  0.735364913940E+00  0.731456673729E+03
  0.231178498268E+01  0.735364913940E+00  0.760520577431E+00
  0.997310162270E+04  0.735364913940E+00  0.732969556272E+03
  0.234375929832E+01  0.234375929832E+01  0.000000000000E+00
  0.997315734378E+04  0.234375929832E+01  0.732210779548E+03
  0.239635515213E+01  0.000000000000E+00 -0.902061045170E+00
  0.997322351380E+04  0.000000000000E+00  0.731309715327E+03
  0.239635515213E+01  0.000000000000E+00  0.902061045170E+00
  0.997309173799E+04  0.000000000000E+00  0.733104160407E+03
  0.249142503738E+01  0.234375929832E+01 -0.234920814633E+00
  0.997317529481E+04  0.234375929832E+01  0.731966333080E+03
  0.249142503738E+01  0.234375929832E+01  0.234920814633E+00
  0.997314097686E+04  0.234375929832E+01  0.732433654557E+03
  0.267230534554E+01  0.172824025154E+01 -0.604293823242E+00
  0.997320324458E+04  0.172824025154E+01  0.731585729555E+03
  0.267230534554E+01  0.172824025154E+01  0.604293823242E+00
  0.997311496751E+04  0.172824025154E+01  0.732787834539E+03
  0.273599505424E+01  0.339639574289E+00 -0.902061164379E+00
  0.997322533558E+04  0.339639574289E+00  0.731284907396E+03
  0.273599505424E+01  0.339639574289E+00  0.902061164379E+00
  0.997309355975E+04  0.339639574289E+00  0.733079352713E+03
  0.277170085907E+01  0.119528055191E+01 -0.760520696640E+00
  0.997321518877E+04  0.119528055191E+01  0.731423080658E+03
  0.277170085907E+01  0.119528055191E+01  0.760520696640E+00
  0.997310408960E+04  0.119528055191E+01  0.732935963439E+03
  0.281722569466E+01  0.234375929832E+01 -0.436294227839E+00
  0.997319175097E+04  0.234375929832E+01  0.731742242827E+03
  0.281722569466E+01  0.234375929832E+01  0.436294227839E+00
  0.997312801578E+04  0.234375929832E+01  0.732610150864E+03
  0.305185556412E+01  0.305185556412E+01  0.000000000000E+00
  0.997316114189E+04  0.305185556412E+01  0.732159059125E+03
  0.313172078133E+01  0.735364913940E+00 -0.902061283588E+00
  0.997322745820E+04  0.735364913940E+00  0.731256002871E+03
  0.313172078133E+01  0.735364913940E+00  0.902061283588E+00
  0.997309568235E+04  0.735364913940E+00  0.733050448425E+03
  0.319952154160E+01  0.305185556412E+01 -0.234920859337E+00
  0.997317909292E+04  0.305185556412E+01  0.731914612595E+03
  0.319952154160E+01  0.305185556412E+01  0.234920859337E+00
  0.997314477497E+04  0.305185556412E+01  0.732381934161E+03
  0.328782463074E+01  0.234375929832E+01 -0.604293942451E+00
  0.997320654613E+04  0.234375929832E+01  0.731540770976E+03
  0.328782463074E+01  0.234375929832E+01  0.604293942451E+00
  0.997311826904E+04  0.234375929832E+01  0.732742876197E+03
  0.330466079712E+01  0.172824025154E+01 -0.760520815849E+00
  0.997321804749E+04  0.172824025154E+01  0.731384152339E+03
  0.330466079712E+01  0.172824025154E+01  0.760520815849E+00
  0.997310694830E+04  0.172824025154E+01  0.732897035356E+03
  0.342464399338E+01  0.000000000000E+00 -0.102348911762E+01
  0.997323789866E+04  0.000000000000E+00  0.731113830801E+03
  0.342464399338E+01  0.000000000000E+00  0.102348911762E+01
  0.997308838427E+04  0.000000000000E+00  0.733149829386E+03
  0.352532196045E+01  0.305185556412E+01 -0.436294317245E+00
  0.997319554908E+04  0.305185556412E+01  0.731690522315E+03
  0.352532196045E+01  0.305185556412E+01  0.436294317245E+00
  0.997313181389E+04  0.305185556412E+01  0.732558430529E+03
  0.359163665771E+01  0.119528055191E+01 -0.902061402798E+00
  0.997322992512E+04  0.119528055191E+01  0.731222409800E+03
  0.359163665771E+01  0.119528055191E+01  0.902061402798E+00
  0.997309814925E+04  0.119528055191E+01  0.733016855592E+03
  0.376428389549E+01  0.339639574289E+00 -0.102348923683E+01
  0.997323972044E+04  0.339639574289E+00  0.731089022869E+03
  0.376428389549E+01  0.339639574289E+00  0.102348923683E+01
  0.997309020603E+04  0.339639574289E+00  0.733125021691E+03
  0.386280250549E+01  0.386280250549E+01  0.000000000000E+00
  0.997316549167E+04  0.386280250549E+01  0.732099826332E+03
  0.392018008232E+01  0.234375929832E+01 -0.760520994663E+00
  0.997322134904E+04  0.234375929832E+01  0.731339193700E+03
  0.392018008232E+01  0.234375929832E+01  0.760520994663E+00
  0.997311024983E+04  0.234375929832E+01  0.732852077074E+03
  0.399592113495E+01  0.305185556412E+01 -0.604294061661E+00
  0.997321034425E+04  0.305185556412E+01  0.731489050417E+03
  0.399592113495E+01  0.305185556412E+01  0.604294061661E+00
  0.997312206715E+04  0.305185556412E+01  0.732691155875E+03
  0.401046848297E+01  0.386280250549E+01 -0.234920918941E+00
  0.997318344271E+04  0.386280250549E+01  0.731855379743E+03
  0.401046848297E+01  0.386280250549E+01  0.234920918941E+00
  0.997314912475E+04  0.386280250549E+01  0.732322701428E+03
  0.412459707260E+01  0.172824025154E+01 -0.902061522007E+00
  0.997323278384E+04  0.172824025154E+01  0.731183481446E+03
  0.412459707260E+01  0.172824025154E+01  0.902061522007E+00
  0.997310100796E+04  0.172824025154E+01  0.732977927475E+03
  0.416000986099E+01  0.735364913940E+00 -0.102348935604E+01
  0.997324184306E+04  0.735364913940E+00  0.731060118327E+03
  0.416000986099E+01  0.735364913940E+00  0.102348935604E+01
  0.997309232863E+04  0.735364913940E+00  0.733096117386E+03
  0.433626890182E+01  0.386280250549E+01 -0.436294436455E+00
[...]
CELL_DATA                  78
NORMALS normals float
  0.730425627410E-01 -0.730429921512E-01 -0.994650443787E+00
  0.730425627410E-01 -0.730429921515E-01 -0.994650443787E+00
  0.730425632417E-01 -0.730428987969E-01 -0.994650450606E+00
  0.730425632417E-01 -0.730428987968E-01 -0.994650450606E+00
  0.730425622037E-01 -0.730430923251E-01 -0.994650436470E+00
  0.730425622037E-01 -0.730430923247E-01 -0.994650436470E+00
  0.730425627657E-01 -0.730429875367E-01 -0.994650444124E+00
  0.730425627657E-01 -0.730429875369E-01 -0.994650444124E+00
  0.730425629187E-01 -0.730429590238E-01 -0.994650446207E+00
  0.730425629187E-01 -0.730429590239E-01 -0.994650446207E+00
  0.730425622765E-01 -0.730430787452E-01 -0.994650437462E+00
  0.730425622765E-01 -0.730430787451E-01 -0.994650437462E+00
  0.730425629697E-01 -0.730429495108E-01 -0.994650446902E+00
  0.730425629697E-01 -0.730429495109E-01 -0.994650446902E+00
  0.730425622164E-01 -0.730430899475E-01 -0.994650436644E+00
  0.730425622164E-01 -0.730430899475E-01 -0.994650436644E+00
  0.730425629014E-01 -0.730429622443E-01 -0.994650445972E+00
  0.730425629014E-01 -0.730429622443E-01 -0.994650445972E+00
  0.730425626652E-01 -0.730430062879E-01 -0.994650442755E+00
  0.730425626652E-01 -0.730430062879E-01 -0.994650442755E+00
  0.730425623477E-01 -0.730430654699E-01 -0.994650438432E+00
  0.730425623477E-01 -0.730430654700E-01 -0.994650438432E+00
  0.730425629912E-01 -0.730429455089E-01 -0.994650447194E+00
  0.730425629912E-01 -0.730429455088E-01 -0.994650447194E+00
  0.730425622426E-01 -0.730430850753E-01 -0.994650437000E+00
  0.730425622426E-01 -0.730430850754E-01 -0.994650437000E+00
  0.730425626784E-01 -0.730430038253E-01 -0.994650442934E+00
  0.730425626784E-01 -0.730430038254E-01 -0.994650442934E+00
  0.730425626425E-01 -0.730430105141E-01 -0.994650442446E+00
  0.730425626425E-01 -0.730430105141E-01 -0.994650442446E+00
  0.730425629694E-01 -0.730429495740E-01 -0.994650446897E+00
  0.730425629694E-01 -0.730429495740E-01 -0.994650446897E+00
  0.730425628864E-01 -0.730429650458E-01 -0.994650445767E+00
  0.730425628864E-01 -0.730429650458E-01 -0.994650445767E+00
  0.730425626135E-01 -0.730430159149E-01 -0.994650442051E+00
  0.730425626135E-01 -0.730430159149E-01 -0.994650442051E+00
  0.730425623251E-01 -0.730430696950E-01 -0.994650438123E+00
  0.730425623251E-01 -0.730430696949E-01 -0.994650438123E+00
  0.730425623439E-01 -0.730430661857E-01 -0.994650438379E+00
  0.730425623439E-01 -0.730430661858E-01 -0.994650438379E+00
  0.730425623251E-01 -0.730430696949E-01 -0.994650438123E+00
  0.730425623251E-01 -0.730430696949E-01 -0.994650438123E+00
  0.730425633045E-01 -0.730428870874E-01 -0.994650451461E+00
  0.730425633045E-01 -0.730428870874E-01 -0.994650451461E+00
  0.730425621712E-01 -0.730430983837E-01 -0.994650436028E+00
  0.730425621712E-01 -0.730430983838E-01 -0.994650436028E+00
  0.730425627818E-01 -0.730429845336E-01 -0.994650444343E+00
  0.730425627818E-01 -0.730429845336E-01 -0.994650444343E+00
  0.730425626425E-01 -0.730430105140E-01 -0.994650442446E+00
  0.730425626425E-01 -0.730430105140E-01 -0.994650442446E+00
  0.730425624644E-01 -0.730430437214E-01 -0.994650440020E+00
  0.730425624644E-01 -0.730430437214E-01 -0.994650440020E+00
  0.730425631724E-01 -0.730429117226E-01 -0.994650449662E+00
  0.730425631724E-01 -0.730429117226E-01 -0.994650449662E+00
  0.730425629911E-01 -0.730429455154E-01 -0.994650447193E+00
  0.730425629911E-01 -0.730429455154E-01 -0.994650447193E+00
  0.730425627716E-01 -0.730429864471E-01 -0.994650444204E+00
  0.730425627716E-01 -0.730429864470E-01 -0.994650444204E+00
  0.730425612451E-01 -0.730432710420E-01 -0.994650423416E+00
  0.730425612451E-01 -0.730432710421E-01 -0.994650423416E+00
  0.730425636116E-01 -0.730428298398E-01 -0.994650455643E+00
  0.730425636116E-01 -0.730428298397E-01 -0.994650455643E+00
  0.730425634231E-01 -0.730428649855E-01 -0.994650453075E+00
  0.730425634231E-01 -0.730428649855E-01 -0.994650453075E+00
  0.730425613657E-01 -0.730432485538E-01 -0.994650425059E+00
  0.730425613657E-01 -0.730432485539E-01 -0.994650425059E+00
  0.730425650320E-01 -0.730425650319E-01 -0.994650474985E+00
  0.730425650320E-01 -0.730425650319E-01 -0.994650474985E+00
  0.730425602016E-01 -0.730434655727E-01 -0.994650409207E+00
  0.730425602016E-01 -0.730434655727E-01 -0.994650409207E+00
  0.730425594534E-01 -0.730436050701E-01 -0.994650399018E+00
  0.730425594534E-01 -0.730436050701E-01 -0.994650399018E+00
  0.730425682642E-01 -0.730419624282E-01 -0.994650519000E+00
  0.730425682642E-01 -0.730419624283E-01 -0.994650519000E+00
  0.730425612755E-01 -0.730432653704E-01 -0.994650423831E+00
  0.730425612755E-01 -0.730432653707E-01 -0.994650423831E+00
  0.730425650319E-01 -0.730425650533E-01 -0.994650474983E+00
  0.730425650319E-01 -0.730425650531E-01 -0.994650474983E+00
POINT_DATA                3696
SCALARS mu float 1
LOOKUP_TABLE default
  0.000000000000E+00
  0.000000000000E+00
  0.000000000000E+00
  0.000000000000E+00
  0.000000000000E+00
  0.000000000000E+00
  0.000000000000E+00
  0.000000000000E+00
  0.000000000000E+00
  0.000000000000E+00
  0.000000000000E+00
  0.000000000000E+00
  0.000000000000E+00
  0.000000000000E+00
  0.000000000000E+00
  0.000000000000E+00
  0.000000000000E+00
  0.000000000000E+00
  0.000000000000E+00
  0.000000000000E+00
  0.000000000000E+00
  0.000000000000E+00
  0.000000000000E+00
  0.000000000000E+00
  0.000000000000E+00
  0.000000000000E+00
  0.000000000000E+00
  0.000000000000E+00
  0.000000000000E+00
  0.000000000000E+00
  0.000000000000E+00
  0.000000000000E+00
  0.000000000000E+00
  0.000000000000E+00
  0.000000000000E+00
  0.000000000000E+00
  0.000000000000E+00
  0.000000000000E+00
  0.000000000000E+00
  0.000000000000E+00
  0.000000000000E+00
  0.000000000000E+00
  0.000000000000E+00
  0.000000000000E+00
  0.000000000000E+00
  0.000000000000E+00
  0.000000000000E+00
  0.000000000000E+00
  0.000000000000E+00
  0.000000000000E+00
  0.000000000000E+00
  0.000000000000E+00
  0.000000000000E+00
  0.000000000000E+00
  0.000000000000E+00
  0.000000000000E+00
  0.000000000000E+00
  0.000000000000E+00
  0.000000000000E+00
  0.000000000000E+00
  0.000000000000E+00
  0.000000000000E+00
  0.000000000000E+00
  0.000000000000E+00
  0.000000000000E+00
  0.000000000000E+00
  0.000000000000E+00
  0.000000000000E+00
  0.000000000000E+00
  0.000000000000E+00
  0.000000000000E+00
  0.000000000000E+00
  0.000000000000E+00
  0.000000000000E+00
  0.000000000000E+00
  0.000000000000E+00
  0.000000000000E+00
  0.000000000000E+00
  0.000000000000E+00
  0.000000000000E+00
  0.000000000000E+00
  0.000000000000E+00
  0.000000000000E+00
  0.000000000000E+00
  0.000000000000E+00
  0.000000000000E+00
  0.000000000000E+00
  0.000000000000E+00
  0.000000000000E+00
  0.000000000000E+00
  0.000000000000E+00
  0.000000000000E+00
  0.000000000000E+00
  0.000000000000E+00
  0.000000000000E+00
  0.000000000000E+00
  0.000000000000E+00
  0.000000000000E+00
  0.000000000000E+00
  0.000000000000E+00
  0.000000000000E+00
  0.000000000000E+00
  0.000000000000E+00
  0.000000000000E+00
  0.000000000000E+00
  0.000000000000E+00
  0.000000000000E+00
  0.000000000000E+00
  0.000000000000E+00
  0.000000000000E+00
  0.000000000000E+00
  0.000000000000E+00
  0.000000000000E+00
  0.000000000000E+00
  0.000000000000E+00
  0.000000000000E+00
  0.000000000000E+00
  0.000000000000E+00
  0.000000000000E+00
  0.000000000000E+00
  0.000000000000E+00
  0.000000000000E+00
  0.000000000000E+00
  0.000000000000E+00
  0.000000000000E+00
  0.000000000000E+00
  0.000000000000E+00
  0.000000000000E+00
  0.000000000000E+00
  0.000000000000E+00
  0.000000000000E+00
  0.000000000000E+00
  0.000000000000E+00
  0.000000000000E+00
  0.000000000000E+00
  0.000000000000E+00
  0.000000000000E+00
  0.000000000000E+00
  0.000000000000E+00
  0.000000000000E+00
  0.000000000000E+00
  0.000000000000E+00
  0.000000000000E+00
  0.000000000000E+00
  0.000000000000E+00
  0.000000000000E+00
  0.000000000000E+00
  0.000000000000E+00
  0.000000000000E+00
  0.000000000000E+00
  0.000000000000E+00
  0.000000000000E+00
  0.000000000000E+00
  0.000000000000E+00
  0.000000000000E+00
  0.000000000000E+00
  0.000000000000E+00
  0.000000000000E+00
  0.000000000000E+00
  0.000000000000E+00
  0.000000000000E+00
  0.000000000000E+00
  0.000000000000E+00
  0.000000000000E+00
  0.000000000000E+00
  0.000000000000E+00
  0.000000000000E+00
  0.000000000000E+00
  0.000000000000E+00
  0.000000000000E+00
  0.000000000000E+00
  0.000000000000E+00
  0.000000000000E+00
  0.000000000000E+00
  0.000000000000E+00
  0.000000000000E+00
  0.000000000000E+00
  0.000000000000E+00
  0.000000000000E+00
  0.000000000000E+00
  0.000000000000E+00
  0.000000000000E+00
  0.000000000000E+00
  0.000000000000E+00
  0.000000000000E+00
  0.000000000000E+00
  0.000000000000E+00
  0.000000000000E+00
  0.000000000000E+00
  0.000000000000E+00
  0.000000000000E+00
  0.000000000000E+00
  0.000000000000E+00
  0.000000000000E+00
  0.000000000000E+00
  0.000000000000E+00
  0.000000000000E+00
  0.000000000000E+00
  0.000000000000E+00
  0.000000000000E+00
  0.000000000000E+00
  0.000000000000E+00
  0.000000000000E+00
  0.000000000000E+00
  0.000000000000E+00
  0.000000000000E+00
  0.000000000000E+00
  0.000000000000E+00
  0.000000000000E+00
  0.000000000000E+00
  0.000000000000E+00
  0.000000000000E+00
  0.000000000000E+00
  0.000000000000E+00
  0.000000000000E+00
  0.000000000000E+00
  0.000000000000E+00
  0.000000000000E+00
  0.000000000000E+00
  0.000000000000E+00
  0.000000000000E+00
  0.000000000000E+00
  0.000000000000E+00
  0.000000000000E+00
  0.000000000000E+00
  0.000000000000E+00
  0.000000000000E+00
  0.000000000000E+00
  0.000000000000E+00
  0.000000000000E+00
  0.000000000000E+00
  0.000000000000E+00
  0.000000000000E+00
  0.000000000000E+00
  0.000000000000E+00
  0.000000000000E+00
  0.000000000000E+00
  0.000000000000E+00
  0.000000000000E+00
  0.000000000000E+00
  0.000000000000E+00
  0.000000000000E+00
  0.000000000000E+00
  0.000000000000E+00
  0.000000000000E+00
  0.000000000000E+00
  0.000000000000E+00
  0.000000000000E+00
  0.000000000000E+00
  0.000000000000E+00
  0.000000000000E+00
  0.000000000000E+00
  0.000000000000E+00
  0.000000000000E+00
  0.000000000000E+00
  0.000000000000E+00
  0.000000000000E+00
  0.000000000000E+00
  0.000000000000E+00
  0.000000000000E+00
  0.000000000000E+00
  0.000000000000E+00
  0.000000000000E+00
  0.000000000000E+00
  0.000000000000E+00
  0.000000000000E+00
  0.000000000000E+00
  0.000000000000E+00
  0.000000000000E+00
  0.000000000000E+00
  0.000000000000E+00
  0.000000000000E+00
  0.000000000000E+00
  0.000000000000E+00
  0.000000000000E+00
  0.000000000000E+00
  0.000000000000E+00
  0.000000000000E+00
  0.000000000000E+00
  0.000000000000E+00
  0.000000000000E+00
  0.000000000000E+00
  0.000000000000E+00
  0.000000000000E+00
  0.000000000000E+00
  0.000000000000E+00
  0.000000000000E+00
  0.000000000000E+00
  0.000000000000E+00
  0.000000000000E+00
  0.000000000000E+00
  0.000000000000E+00
  0.000000000000E+00
  0.000000000000E+00
  0.000000000000E+00
  0.000000000000E+00
  0.000000000000E+00
  0.000000000000E+00
  0.000000000000E+00
  0.000000000000E+00
  0.000000000000E+00
  0.000000000000E+00
  0.000000000000E+00
  0.000000000000E+00
  0.000000000000E+00
  0.000000000000E+00
  0.000000000000E+00
  0.000000000000E+00
  0.000000000000E+00
  0.000000000000E+00
  0.000000000000E+00
  0.000000000000E+00
  0.000000000000E+00
  0.000000000000E+00
  0.000000000000E+00
  0.000000000000E+00
  0.000000000000E+00
  0.000000000000E+00
  0.000000000000E+00
  0.000000000000E+00
  0.000000000000E+00
  0.000000000000E+00
  0.000000000000E+00
  0.000000000000E+00
  0.000000000000E+00
  0.000000000000E+00
  0.000000000000E+00
  0.000000000000E+00
  0.000000000000E+00
  0.000000000000E+00
  0.000000000000E+00
  0.000000000000E+00
  0.000000000000E+00
  0.000000000000E+00
  0.000000000000E+00
  0.000000000000E+00
  0.000000000000E+00
  0.000000000000E+00
  0.000000000000E+00
  0.000000000000E+00
  0.000000000000E+00
  0.000000000000E+00
  0.000000000000E+00
  0.000000000000E+00
  0.000000000000E+00
  0.000000000000E+00
  0.000000000000E+00
  0.000000000000E+00
  0.000000000000E+00
  0.000000000000E+00
  0.000000000000E+00
  0.000000000000E+00
  0.000000000000E+00
  0.000000000000E+00
  0.000000000000E+00
  0.000000000000E+00
  0.000000000000E+00
  0.000000000000E+00
  0.000000000000E+00
  0.000000000000E+00
  0.000000000000E+00
  0.000000000000E+00
  0.000000000000E+00
  0.000000000000E+00
  0.000000000000E+00
  0.000000000000E+00
  0.000000000000E+00
  0.000000000000E+00
  0.000000000000E+00
  0.000000000000E+00
  0.000000000000E+00
  0.000000000000E+00
  0.000000000000E+00
  0.000000000000E+00
  0.000000000000E+00
  0.000000000000E+00
  0.000000000000E+00
  0.000000000000E+00
  0.000000000000E+00
  0.000000000000E+00
  0.000000000000E+00
  0.000000000000E+00
  0.000000000000E+00
  0.000000000000E+00
  0.000000000000E+00
  0.000000000000E+00
  0.000000000000E+00
  0.000000000000E+00
  0.000000000000E+00
  0.000000000000E+00
  0.000000000000E+00
  0.000000000000E+00
  0.000000000000E+00
  0.000000000000E+00
  0.000000000000E+00
  0.000000000000E+00
  0.000000000000E+00
  0.000000000000E+00
  0.000000000000E+00
  0.000000000000E+00
  0.000000000000E+00
  0.000000000000E+00
  0.000000000000E+00
  0.000000000000E+00
  0.000000000000E+00
  0.000000000000E+00
  0.000000000000E+00
  0.000000000000E+00
  0.000000000000E+00
  0.000000000000E+00
  0.000000000000E+00
  0.000000000000E+00
  0.000000000000E+00
  0.000000000000E+00
  0.000000000000E+00
  0.000000000000E+00
  0.000000000000E+00
  0.000000000000E+00
  0.000000000000E+00
  0.000000000000E+00
  0.000000000000E+00
  0.000000000000E+00
  0.000000000000E+00
  0.000000000000E+00
  0.000000000000E+00
  0.000000000000E+00
  0.000000000000E+00
  0.000000000000E+00
  0.000000000000E+00
  0.000000000000E+00
  0.000000000000E+00
  0.000000000000E+00
  0.000000000000E+00
  0.000000000000E+00
  0.000000000000E+00
  0.000000000000E+00
  0.000000000000E+00
  0.000000000000E+00
  0.000000000000E+00
  0.000000000000E+00
  0.000000000000E+00
  0.000000000000E+00
  0.000000000000E+00
  0.000000000000E+00
  0.000000000000E+00
  0.000000000000E+00
  0.000000000000E+00
  0.000000000000E+00
  0.000000000000E+00
  0.000000000000E+00
  0.000000000000E+00
  0.000000000000E+00
  0.000000000000E+00
  0.000000000000E+00
  0.000000000000E+00
  0.000000000000E+00
  0.000000000000E+00
  0.000000000000E+00
  0.000000000000E+00
  0.000000000000E+00
  0.000000000000E+00
  0.000000000000E+00
  0.000000000000E+00
  0.000000000000E+00
  0.000000000000E+00
  0.000000000000E+00
  0.000000000000E+00
  0.000000000000E+00
  0.000000000000E+00
  0.000000000000E+00
  0.000000000000E+00
  0.000000000000E+00
  0.000000000000E+00
  0.000000000000E+00
  0.000000000000E+00
  0.000000000000E+00
  0.000000000000E+00
  0.000000000000E+00
  0.000000000000E+00
  0.000000000000E+00
  0.000000000000E+00
  0.000000000000E+00
  0.000000000000E+00
  0.000000000000E+00
  0.000000000000E+00
  0.000000000000E+00
  0.000000000000E+00
  0.000000000000E+00
  0.000000000000E+00
  0.000000000000E+00
  0.000000000000E+00
  0.000000000000E+00
  0.000000000000E+00
  0.000000000000E+00
  0.000000000000E+00
  0.000000000000E+00
  0.000000000000E+00
  0.000000000000E+00
  0.000000000000E+00
  0.000000000000E+00
  0.000000000000E+00
  0.000000000000E+00
  0.000000000000E+00
  0.000000000000E+00
  0.000000000000E+00
  0.000000000000E+00
  0.000000000000E+00
  0.000000000000E+00
  0.000000000000E+00
  0.000000000000E+00
  0.000000000000E+00
  0.000000000000E+00
  0.000000000000E+00
  0.000000000000E+00
  0.000000000000E+00
  0.000000000000E+00
  0.000000000000E+00
  0.000000000000E+00
  0.000000000000E+00
  0.000000000000E+00
  0.000000000000E+00
  0.000000000000E+00
  0.000000000000E+00
  0.000000000000E+00
  0.000000000000E+00
  0.000000000000E+00
  0.000000000000E+00
  0.000000000000E+00
  0.000000000000E+00
  0.000000000000E+00
  0.000000000000E+00
  0.000000000000E+00
  0.000000000000E+00
  0.000000000000E+00
  0.000000000000E+00
  0.000000000000E+00
  0.000000000000E+00
  0.000000000000E+00
  0.000000000000E+00
  0.000000000000E+00
  0.000000000000E+00
  0.000000000000E+00
  0.000000000000E+00
  0.000000000000E+00
  0.000000000000E+00
  0.000000000000E+00
  0.000000000000E+00
  0.000000000000E+00
  0.000000000000E+00
  0.000000000000E+00
  0.000000000000E+00
  0.000000000000E+00
  0.000000000000E+00
  0.000000000000E+00
  0.000000000000E+00
  0.000000000000E+00
  0.000000000000E+00
  0.000000000000E+00
  0.000000000000E+00
  0.000000000000E+00
  0.000000000000E+00
  0.000000000000E+00
  0.000000000000E+00
  0.000000000000E+00
  0.000000000000E+00
  0.000000000000E+00
  0.000000000000E+00
  0.000000000000E+00
  0.000000000000E+00
  0.000000000000E+00
  0.000000000000E+00
  0.000000000000E+00
  0.000000000000E+00
  0.000000000000E+00
  0.000000000000E+00
  0.000000000000E+00
  0.000000000000E+00
  0.000000000000E+00
  0.000000000000E+00
  0.000000000000E+00
  0.000000000000E+00
  0.000000000000E+00
  0.000000000000E+00
  0.000000000000E+00
  0.000000000000E+00
  0.000000000000E+00
  0.000000000000E+00
  0.000000000000E+00
  0.000000000000E+00
  0.000000000000E+00
  0.000000000000E+00
  0.000000000000E+00
  0.000000000000E+00
  0.000000000000E+00
  0.000000000000E+00
  0.000000000000E+00
  0.000000000000E+00
  0.000000000000E+00
  0.000000000000E+00
  0.000000000000E+00
  0.000000000000E+00
  0.000000000000E+00
  0.000000000000E+00
  0.000000000000E+00
  0.000000000000E+00
  0.000000000000E+00
  0.000000000000E+00
  0.000000000000E+00
  0.000000000000E+00
  0.000000000000E+00
  0.000000000000E+00
  0.000000000000E+00
  0.000000000000E+00
  0.000000000000E+00
  0.000000000000E+00
  0.000000000000E+00
  0.000000000000E+00
  0.000000000000E+00
  0.000000000000E+00
  0.000000000000E+00
  0.000000000000E+00
  0.000000000000E+00
  0.000000000000E+00
  0.000000000000E+00
  0.000000000000E+00
  0.000000000000E+00
  0.000000000000E+00
  0.000000000000E+00
  0.000000000000E+00
  0.000000000000E+00
  0.000000000000E+00
  0.000000000000E+00
  0.000000000000E+00
  0.000000000000E+00
  0.000000000000E+00
  0.000000000000E+00
  0.000000000000E+00
  0.000000000000E+00
  0.000000000000E+00
  0.000000000000E+00
  0.000000000000E+00
  0.000000000000E+00
  0.000000000000E+00
  0.000000000000E+00
  0.000000000000E+00
  0.000000000000E+00
  0.000000000000E+00
  0.000000000000E+00
  0.000000000000E+00
  0.000000000000E+00
  0.000000000000E+00
  0.000000000000E+00
  0.000000000000E+00
  0.000000000000E+00
  0.000000000000E+00
  0.000000000000E+00
  0.000000000000E+00
  0.000000000000E+00
  0.000000000000E+00
  0.000000000000E+00
  0.000000000000E+00
  0.000000000000E+00
  0.000000000000E+00
  0.000000000000E+00
  0.000000000000E+00
  0.000000000000E+00
  0.000000000000E+00
  0.000000000000E+00
  0.000000000000E+00
  0.000000000000E+00
  0.000000000000E+00
  0.000000000000E+00
  0.000000000000E+00
  0.000000000000E+00
  0.000000000000E+00
  0.000000000000E+00
  0.000000000000E+00
  0.000000000000E+00
  0.000000000000E+00
  0.000000000000E+00
  0.000000000000E+00
  0.000000000000E+00
  0.000000000000E+00
  0.000000000000E+00
  0.000000000000E+00
  0.000000000000E+00
  0.000000000000E+00
  0.000000000000E+00
  0.000000000000E+00
  0.000000000000E+00
  0.000000000000E+00
  0.000000000000E+00
  0.000000000000E+00
  0.000000000000E+00
  0.000000000000E+00
  0.000000000000E+00
  0.000000000000E+00
  0.000000000000E+00
  0.000000000000E+00
  0.000000000000E+00
  0.000000000000E+00
  0.000000000000E+00
  0.000000000000E+00
  0.000000000000E+00
  0.000000000000E+00
  0.000000000000E+00
  0.000000000000E+00
  0.000000000000E+00
  0.000000000000E+00
  0.000000000000E+00
  0.000000000000E+00
  0.000000000000E+00
  0.000000000000E+00
  0.000000000000E+00
  0.000000000000E+00
  0.000000000000E+00
  0.000000000000E+00
  0.000000000000E+00
  0.000000000000E+00