# vtk DataFile Version 3.0
TriPan results file. Generated by TriPan, USU AeroLab (c) 2021.
ASCII
DATASET POLYDATA
POINTS                7064 float
  0.000000000000E+00  0.000000000000E+00  0.000000000000E+00
  0.389988087118E-01  0.000000000000E+00 -0.109218262136E+00
  0.389988087118E-01  0.000000000000E+00  0.109218262136E+00
  0.147665724158E+00  0.000000000000E+00 -0.234920635819E+00
  0.147665724158E+00  0.000000000000E+00  0.234920635819E+00
  0.161138445139E+00  0.161138445139E+00  0.000000000000E+00
  0.200137257576E+00  0.161138445139E+00 -0.109218269587E+00
  0.200137257576E+00  0.161138445139E+00  0.109218269587E+00
  0.290265858173E+00  0.000000000000E+00 -0.347333192825E+00
  0.290265858173E+00  0.000000000000E+00  0.347333192825E+00
  0.308804154396E+00  0.161138445139E+00 -0.234920650721E+00
  0.308804154396E+00  0.161138445139E+00  0.234920650721E+00
  0.335006117821E+00  0.335006117821E+00  0.000000000000E+00
  0.374004930258E+00  0.335006117821E+00 -0.109218277037E+00
  0.374004930258E+00  0.335006117821E+00  0.109218277037E+00
  0.451404303312E+00  0.161138445139E+00 -0.347333222628E+00
  0.451404303312E+00  0.161138445139E+00  0.347333222628E+00
  0.473465979099E+00  0.000000000000E+00 -0.436293870211E+00
  0.473465979099E+00  0.000000000000E+00  0.436293870211E+00
  0.482671856880E+00  0.335006117821E+00 -0.234920650721E+00
  0.482671856880E+00  0.335006117821E+00  0.234920650721E+00
  0.522506594658E+00  0.522506594658E+00  0.000000000000E+00
  0.561505436897E+00  0.522506594658E+00 -0.109218284488E+00
  0.561505436897E+00  0.522506594658E+00  0.109218284488E+00
  0.625271975994E+00  0.335006117821E+00 -0.347333222628E+00
  0.625271975994E+00  0.335006117821E+00  0.347333222628E+00
  0.634604454041E+00  0.161138445139E+00 -0.436293900013E+00
  0.634604454041E+00  0.161138445139E+00  0.436293900013E+00
  0.670172333717E+00  0.522506594658E+00 -0.234920665622E+00
  0.670172333717E+00  0.522506594658E+00  0.234920665622E+00
  0.689334988594E+00  0.000000000000E+00 -0.522850036621E+00
  0.689334988594E+00  0.000000000000E+00  0.522850036621E+00
  0.724590361118E+00  0.724590361118E+00  0.000000000000E+00
  0.763589203358E+00  0.724590361118E+00 -0.109218291938E+00
  0.763589203358E+00  0.724590361118E+00  0.109218291938E+00
  0.808472156525E+00  0.335006117821E+00 -0.436293929815E+00
  0.808472156525E+00  0.335006117821E+00  0.436293929815E+00
  0.812772512436E+00  0.522506594658E+00 -0.347333252430E+00
  0.812772512436E+00  0.522506594658E+00  0.347333252430E+00
  0.850473463535E+00  0.161138445139E+00 -0.522850036621E+00
  0.850473463535E+00  0.161138445139E+00  0.522850036621E+00
  0.872256100178E+00  0.724590361118E+00 -0.234920680523E+00
  0.872256100178E+00  0.724590361118E+00  0.234920680523E+00
  0.942254066467E+00  0.942254066467E+00  0.000000000000E+00
  0.944064557552E+00  0.000000000000E+00 -0.604293465614E+00
  0.944064557552E+00  0.000000000000E+00  0.604293465614E+00
  0.981252849102E+00  0.942254066467E+00 -0.109218299389E+00
  0.981252849102E+00  0.942254066467E+00  0.109218299389E+00
  0.995972692966E+00  0.522506594658E+00 -0.436293959618E+00
  0.995972692966E+00  0.522506594658E+00  0.436293959618E+00
  0.101485633850E+01  0.724590361118E+00 -0.347333282232E+00
  0.101485633850E+01  0.724590361118E+00  0.347333282232E+00
  0.102434122562E+01  0.335006117821E+00 -0.522850096226E+00
  0.102434122562E+01  0.335006117821E+00  0.522850096226E+00
  0.108991980553E+01  0.942254066467E+00 -0.234920710325E+00
  0.108991980553E+01  0.942254066467E+00  0.234920710325E+00
  0.110520303249E+01  0.161138445139E+00 -0.604293525219E+00
  0.110520303249E+01  0.161138445139E+00  0.604293525219E+00
  0.117653930187E+01  0.117653930187E+01  0.000000000000E+00
  0.119805645943E+01  0.724590361118E+00 -0.436293989420E+00
  0.119805645943E+01  0.724590361118E+00  0.436293989420E+00
  0.121184170246E+01  0.522506594658E+00 -0.522850096226E+00
  0.121184170246E+01  0.522506594658E+00  0.522850096226E+00
  0.121553814411E+01  0.117653930187E+01 -0.109218306839E+00
  0.121553814411E+01  0.117653930187E+01  0.109218306839E+00
  0.123251998425E+01  0.942254066467E+00 -0.347333312035E+00
  0.123251998425E+01  0.942254066467E+00  0.347333312035E+00
  0.123833239079E+01  0.000000000000E+00 -0.683996438980E+00
  0.123833239079E+01  0.000000000000E+00  0.683996438980E+00
  0.127907073498E+01  0.335006117821E+00 -0.604293525219E+00
  0.127907073498E+01  0.335006117821E+00  0.604293525219E+00
  0.132420504093E+01  0.117653930187E+01 -0.234920725226E+00
  0.132420504093E+01  0.117653930187E+01  0.234920725226E+00
  0.139947092533E+01  0.161138445139E+00 -0.683996498585E+00
  0.139947092533E+01  0.161138445139E+00  0.683996498585E+00
  0.141392552853E+01  0.724590361118E+00 -0.522850155830E+00
  0.141392552853E+01  0.724590361118E+00  0.522850155830E+00
  0.141572022438E+01  0.942254066467E+00 -0.436294019222E+00
  0.141572022438E+01  0.942254066467E+00  0.436294019222E+00
  0.142853081226E+01  0.142853081226E+01  0.000000000000E+00
  0.146657133102E+01  0.522506594658E+00 -0.604293584824E+00
  0.146657133102E+01  0.522506594658E+00  0.604293584824E+00
  0.146680521965E+01  0.117653930187E+01 -0.347333341837E+00
  0.146680521965E+01  0.117653930187E+01  0.347333341837E+00
  0.146752965450E+01  0.142853081226E+01 -0.109218314290E+00
  0.146752965450E+01  0.142853081226E+01  0.109218314290E+00
  0.157333862782E+01  0.335006117821E+00 -0.683996558189E+00
  0.157333862782E+01  0.335006117821E+00  0.683996558189E+00
  0.157619655132E+01  0.142853081226E+01 -0.234920740128E+00
  0.157619655132E+01  0.142853081226E+01  0.234920740128E+00
  0.157641971111E+01  0.000000000000E+00 -0.760520398617E+00
  0.157641971111E+01  0.000000000000E+00  0.760520398617E+00
  0.163158929348E+01  0.942254066467E+00 -0.522850155830E+00
  0.163158929348E+01  0.942254066467E+00  0.522850155830E+00
  0.165000545979E+01  0.117653930187E+01 -0.436294049025E+00
  0.165000545979E+01  0.117653930187E+01  0.436294049025E+00
  0.166865515709E+01  0.724590361118E+00 -0.604293584824E+00
  0.166865515709E+01  0.724590361118E+00  0.604293584824E+00
  0.169935321808E+01  0.169935321808E+01  0.000000000000E+00
  0.171879673004E+01  0.142853081226E+01 -0.347333371639E+00
  0.171879673004E+01  0.142853081226E+01  0.347333371639E+00
  0.173755824566E+01  0.161138445139E+00 -0.760520458221E+00
  0.173755824566E+01  0.161138445139E+00  0.760520458221E+00
  0.173835194111E+01  0.169935321808E+01 -0.109218329191E+00
  0.173835194111E+01  0.169935321808E+01  0.109218329191E+00
  0.176083922386E+01  0.522506594658E+00 -0.683996558189E+00
  0.176083922386E+01  0.522506594658E+00  0.683996558189E+00
  0.184701895714E+01  0.169935321808E+01 -0.234920755029E+00
  0.184701895714E+01  0.169935321808E+01  0.234920755029E+00
  0.186587452888E+01  0.117653930187E+01 -0.522850215435E+00
  0.186587452888E+01  0.117653930187E+01  0.522850215435E+00
  0.188631892204E+01  0.942254066467E+00 -0.604293644428E+00
  0.188631892204E+01  0.942254066467E+00  0.604293644428E+00
  0.190199697018E+01  0.142853081226E+01 -0.436294078827E+00
  0.190199697018E+01  0.142853081226E+01  0.436294078827E+00
  0.191142594814E+01  0.335006117821E+00 -0.760520458221E+00
  0.191142594814E+01  0.335006117821E+00  0.760520458221E+00
  0.196138751507E+01  0.000000000000E+00 -0.833668828011E+00
  0.196138751507E+01  0.000000000000E+00  0.833668828011E+00
  0.196292304993E+01  0.724590361118E+00 -0.683996617794E+00
  0.196292304993E+01  0.724590361118E+00  0.683996617794E+00
  0.198961913586E+01  0.169935321808E+01 -0.347333401442E+00
  0.198961913586E+01  0.169935321808E+01  0.347333401442E+00
  0.199016737938E+01  0.199016737938E+01  0.000000000000E+00
  0.202916622162E+01  0.199016737938E+01 -0.109218336642E+00
  0.202916622162E+01  0.199016737938E+01  0.109218336642E+00
  0.209892654419E+01  0.522506594658E+00 -0.760520517826E+00
  0.209892654419E+01  0.522506594658E+00  0.760520517826E+00
  0.211786603928E+01  0.142853081226E+01 -0.522850275040E+00
  0.211786603928E+01  0.142853081226E+01  0.522850275040E+00
  0.212060427666E+01  0.117653930187E+01 -0.604293704033E+00
  0.212060427666E+01  0.117653930187E+01  0.604293704033E+00
  0.212252616882E+01  0.161138445139E+00 -0.833668828011E+00
  0.212252616882E+01  0.161138445139E+00  0.833668828011E+00
  0.213783311844E+01  0.199016737938E+01 -0.234920784831E+00
  0.213783311844E+01  0.199016737938E+01  0.234920784831E+00
  0.217281937599E+01  0.169935321808E+01 -0.436294138432E+00
  0.217281937599E+01  0.169935321808E+01  0.436294138432E+00
  0.218058681488E+01  0.942254066467E+00 -0.683996677399E+00
  0.218058681488E+01  0.942254066467E+00  0.683996677399E+00
  0.228043341637E+01  0.199016737938E+01 -0.347333431244E+00
  0.228043341637E+01  0.199016737938E+01  0.347333431244E+00
  0.229639387131E+01  0.335006117821E+00 -0.833668887615E+00
  0.229639387131E+01  0.335006117821E+00  0.833668887615E+00
  0.230101037025E+01  0.724590361118E+00 -0.760520577431E+00
  0.230101037025E+01  0.724590361118E+00  0.760520577431E+00
  0.230216526985E+01  0.230216526985E+01  0.000000000000E+00
  0.234116411209E+01  0.230216526985E+01 -0.109218344092E+00
  0.234116411209E+01  0.230216526985E+01  0.109218344092E+00
  0.237259578705E+01  0.142853081226E+01 -0.604293763638E+00
  0.237259578705E+01  0.142853081226E+01  0.604293763638E+00
  0.238868856430E+01  0.169935321808E+01 -0.522850275040E+00
  0.238868856430E+01  0.169935321808E+01  0.522850275040E+00
  0.239635515213E+01  0.000000000000E+00 -0.902061045170E+00
  0.239635515213E+01  0.000000000000E+00  0.902061045170E+00
  0.241487216949E+01  0.117653930187E+01 -0.683996737003E+00
  0.241487216949E+01  0.117653930187E+01  0.683996737003E+00
  0.244983124733E+01  0.230216526985E+01 -0.234920799732E+00
  0.244983124733E+01  0.230216526985E+01  0.234920799732E+00
  0.246363353729E+01  0.199016737938E+01 -0.436294168234E+00
  0.246363353729E+01  0.199016737938E+01  0.436294168234E+00
[...]
CELL_DATA               13888
SCALARS sigma float 1
LOOKUP_TABLE default
 -0.326424675403E-01
 -0.326409195397E-01
 -0.327133359255E-01
 -0.327133298381E-01
 -0.327965912684E-01
 -0.327977509410E-01
 -0.328941257041E-01
 -0.328941256519E-01
 -0.330049543970E-01
 -0.330049227573E-01
 -0.331335919103E-01
 -0.331328343778E-01
 -0.332721962427E-01
 -0.332728851241E-01
 -0.334548569046E-01
 -0.334548142165E-01
 -0.337434092524E-01
 -0.337428887990E-01
 -0.341357957478E-01
 -0.341362275094E-01
 -0.343048629308E-01
 -0.343047142118E-01
 -0.340685860180E-01
 -0.340687200571E-01
 -0.337926701432E-01
 -0.337926701596E-01
 -0.337535963303E-01
 -0.337535505016E-01
 -0.323485436973E-01
 -0.323484841149E-01
 -0.308365092390E-01
 -0.308365632404E-01
 -0.287372136179E-01
 -0.287372136192E-01
 -0.226822526308E-01
 -0.226822130415E-01
 -0.172916682780E-01
 -0.172915972337E-01
 -0.759501453254E-02
 -0.759510531777E-02
  0.188747424863E-02
  0.188746414054E-02
  0.159761155468E-01
  0.159761482837E-01
  0.326444513053E-01
  0.326444752041E-01
  0.507188642276E-01
  0.507187115362E-01
  0.802180032891E-01
  0.802180033024E-01
  0.106479703685E+00
  0.106479703671E+00
  0.131542549482E+00
  0.131542590523E+00
  0.155509953269E+00
  0.155510106278E+00
  0.178103719993E+00
  0.178103580520E+00
  0.199720508117E+00
  0.199720562545E+00
  0.224566181602E+00
  0.224566258201E+00
  0.253738287976E+00
  0.253738124355E+00
  0.284742047237E+00
  0.284742047230E+00
  0.320644711051E+00
  0.320644675856E+00
  0.357279373053E+00
  0.357279506228E+00
  0.411563452086E+00
  0.411563389891E+00
  0.459590359408E+00
  0.459590332042E+00
  0.573863708252E+00
  0.573863710111E+00
  0.639894006977E+00
  0.639894002086E+00
  0.701679020352E+00
  0.701679021873E+00
  0.665820788669E+00
  0.665820788180E+00
  0.563498699483E+00
  0.563498687220E+00
  0.476057315649E+00
  0.476057311596E+00
  0.338844356672E+00
  0.338844393913E+00
  0.284146714852E+00
  0.284146794871E+00
  0.223812625924E+00
  0.223812463063E+00
  0.183859596673E+00
  0.183859638650E+00
  0.145238371916E+00
  0.145238371924E+00
  0.112279974213E+00
  0.112280161342E+00
  0.815822040828E-01
  0.815821180266E-01
  0.556654290506E-01
  0.556653688177E-01
  0.332816259497E-01
  0.332817782201E-01
  0.100463171380E-01
  0.100461527431E-01
 -0.144279647599E-01
 -0.144280080305E-01
 -0.398330718309E-01
 -0.398330718165E-01
 -0.662512096732E-01
 -0.662512096865E-01
 -0.956832252814E-01
 -0.956830760331E-01
 -0.113590488275E+00
 -0.113590511179E+00
 -0.130020617447E+00
 -0.130020648227E+00
 -0.143845110055E+00
 -0.143845100709E+00
 -0.153117469698E+00
 -0.153117375452E+00
 -0.162572046128E+00
 -0.162572120122E+00
 -0.167816385880E+00
 -0.167816427130E+00
 -0.173697021085E+00
 -0.173697021084E+00
 -0.175733428559E+00
 -0.175733372464E+00
 -0.177199222044E+00
 -0.177199283716E+00
 -0.178560832841E+00
 -0.178560880083E+00
 -0.178598737132E+00
 -0.178598737115E+00
 -0.178866178038E+00
 -0.178866041194E+00
 -0.179094787795E+00
 -0.179094938887E+00
 -0.178931576806E+00
 -0.178931140259E+00
 -0.178550487774E+00
 -0.178551011581E+00
 -0.178271388940E+00
 -0.178271431719E+00
 -0.178095104975E+00
 -0.178094417352E+00
 -0.177959372212E+00
 -0.177960125632E+00
 -0.177835436966E+00
 -0.177835468331E+00
 -0.177728064306E+00
 -0.177728064358E+00
 -0.177634664769E+00
 -0.177633521490E+00
 -0.177552828241E+00
 -0.177552834229E+00
 -0.177482649872E+00
 -0.177484169423E+00
 -0.326409261418E-01
 -0.326424666854E-01
 -0.327133515246E-01
 -0.327133393540E-01
 -0.327977499829E-01
 -0.327965906898E-01
 -0.328931466644E-01
 -0.328941246916E-01
 -0.330058161949E-01
 -0.330049493337E-01
 -0.331328338390E-01
 -0.331335910465E-01
 -0.332722238560E-01
 -0.332721996462E-01
 -0.334554374742E-01
 -0.334548515793E-01
 -0.337428882527E-01
 -0.337434083748E-01
 -0.341358327791E-01
 -0.341357991550E-01
 -0.343048620558E-01
 -0.343048620537E-01
 -0.340687192077E-01
 -0.340685852703E-01
 -0.337927169122E-01
 -0.337926671860E-01
 -0.337535482232E-01
 -0.337535939872E-01
 -0.323484834124E-01
 -0.323485429462E-01
 -0.308365625598E-01
 -0.308365086021E-01
 -0.287370893758E-01
 -0.287372139874E-01
 -0.226823251823E-01
 -0.226822522008E-01
 -0.172915977640E-01
 -0.172916687784E-01
 -0.759508467532E-02
 -0.759501472449E-02
  0.188746412875E-02
  0.188739419756E-02
  0.159761476908E-01
  0.159761476908E-01
  0.326444741704E-01
  0.326444741704E-01
  0.507187115373E-01
  0.507188641668E-01
  0.802180028776E-01
  0.802180028777E-01
  0.106479700762E+00
  0.106479700761E+00
  0.131542585102E+00
  0.131542543978E+00
  0.155510108274E+00
  0.155509923842E+00
  0.178103587179E+00
  0.178103783431E+00
  0.199720559342E+00
  0.199720454141E+00
  0.224566275677E+00
  0.224566275679E+00
  0.253738126414E+00
  0.253738246193E+00
  0.284742030679E+00
  0.284741903883E+00
  0.320644674081E+00
  0.320644806078E+00
  0.357279506637E+00
  0.357279414289E+00
  0.411563393119E+00
  0.411563405778E+00
  0.459590317365E+00
  0.459590347408E+00
  0.573863676755E+00
  0.573863692754E+00
  0.639893958237E+00
  0.639893961474E+00
  0.701679026919E+00
  0.701679023518E+00
  0.665820792614E+00
  0.665820793457E+00
  0.563498639762E+00
  0.563498660869E+00
  0.476057319949E+00
  0.476057287978E+00
  0.338844386076E+00
  0.338844345851E+00
  0.284146733167E+00
  0.284146717080E+00
  0.223812514289E+00
  0.223812626180E+00
  0.183859751817E+00
  0.183859595656E+00
  0.145238216761E+00
  0.145238363474E+00
  0.112280111259E+00
  0.112279975123E+00
  0.815822104338E-01
  0.815822104317E-01
  0.556653123013E-01
  0.556654281579E-01
  0.332818405378E-01
  0.332816271941E-01
  0.100461198118E-01
  0.100463172670E-01
 -0.144280074088E-01
 -0.144279641652E-01
 -0.398330707429E-01
 -0.398330707424E-01
 -0.662512093223E-01
 -0.662512093224E-01
 -0.956830759184E-01
 -0.956832252835E-01
 -0.113590484678E+00
 -0.113590484678E+00
 -0.130020612622E+00
 -0.130020612622E+00
 -0.143845174097E+00
 -0.143845109156E+00
 -0.153117379322E+00
 -0.153117451625E+00
 -0.162572124827E+00
 -0.162572051215E+00
 -0.167816423949E+00
 -0.167816499622E+00
 -0.173697023318E+00
 -0.173696894166E+00
 -0.175733368834E+00
 -0.175733424615E+00
 -0.177199279602E+00
 -0.177199218262E+00
 -0.178560867688E+00
 -0.178560820718E+00
 -0.178598721486E+00
 -0.178598772295E+00
 -0.178866037268E+00
 -0.178866173503E+00
 -0.179094934308E+00
 -0.179094934310E+00
 -0.178931158119E+00
 -0.178931192013E+00
 -0.178551006938E+00
 -0.178550484883E+00
 -0.178271403342E+00
 -0.178271989074E+00
 -0.178094435570E+00
 -0.178094459684E+00
 -0.177960120993E+00
 -0.177959369303E+00
 -0.177835441050E+00
 -0.177836298988E+00
 -0.177728058887E+00
 -0.177727093552E+00
 -0.177633518356E+00
 -0.177634659847E+00
 -0.177552852837E+00
 -0.177552864795E+00
 -0.177484164775E+00
 -0.177482653943E+00
 -0.326409353694E-01
 -0.326409283907E-01
 -0.327133558614E-01
 -0.327133497768E-01
 -0.327977587427E-01
 -0.327977482305E-01
 -0.328931308175E-01
 -0.328931490321E-01
 -0.330058146037E-01
 -0.330058146037E-01
 -0.331328637913E-01
 -0.331328361710E-01
 -0.332722462034E-01
 -0.332722219664E-01
 -0.334554357184E-01
 -0.334554357184E-01
 -0.337428906679E-01
 -0.337428906654E-01
 -0.341357976473E-01
 -0.341358312512E-01
 -0.343049205314E-01
 -0.343048602492E-01
 -0.340685310541E-01
 -0.340687193966E-01
 -0.337927186084E-01
 -0.337927185905E-01
 -0.337535956458E-01
 -0.337535499426E-01
 -0.323484005303E-01
 -0.323484855030E-01
 -0.308366426056E-01
 -0.308365627611E-01
 -0.287372131679E-01
 -0.287370886861E-01
 -0.226822121212E-01
 -0.226823245767E-01
 -0.172915978656E-01
 -0.172915978547E-01
 -0.759508449630E-02
 -0.759508450033E-02
  0.188739425025E-02
  0.188746417610E-02
  0.159761483344E-01
  0.159761483351E-01
  0.326444750972E-01
  0.326444750967E-01
  0.507188641763E-01
  0.507187116041E-01
  0.802180032363E-01
  0.802180032363E-01
  0.106479703065E+00
  0.106479680814E+00
  0.131542548949E+00
  0.131542590162E+00
  0.155509920662E+00
  0.155510074798E+00
  0.178103781231E+00
  0.178103682640E+00
  0.199720449913E+00
  0.199720555740E+00
  0.224566258325E+00
  0.224566144835E+00
  0.253738251088E+00
  0.253738205145E+00
  0.284741896281E+00
  0.284742024537E+00
  0.320644796554E+00
  0.320644662666E+00
  0.357279408239E+00
  0.357279458040E+00
  0.411563392956E+00
  0.411563379988E+00
  0.459590348104E+00
  0.459590348107E+00
  0.573863701521E+00
  0.573863676964E+00
  0.639893968848E+00
  0.639893969141E+00
  0.701678975776E+00
  0.701679006730E+00
  0.665820752365E+00
  0.665820747312E+00
  0.563498670472E+00
  0.563498646256E+00
  0.476057281312E+00
  0.476057327222E+00
  0.338844386593E+00
  0.338844386589E+00
  0.284146708015E+00
  0.284146724315E+00
  0.223812570340E+00
  0.223812510499E+00
  0.183859589109E+00
  0.183859746356E+00
  0.145238360343E+00
  0.145238212884E+00
  0.112280061503E+00
  0.112280113425E+00
  0.815820779582E-01
  0.815822041293E-01
  0.556654271540E-01
  0.556653111226E-01
  0.332817333688E-01
  0.332818401266E-01
  0.100462840909E-01
  0.100461196064E-01
 -0.144279647213E-01
 -0.144280079540E-01
 -0.398330944940E-01
 -0.398330716047E-01
 -0.662512096184E-01
 -0.662512096184E-01
 -0.956832254087E-01
 -0.956830759364E-01
 -0.113590487903E+00
 -0.113590487903E+00
 -0.130020617859E+00
 -0.130020617860E+00
 -0.143845112920E+00
 -0.143845178113E+00
 -0.153117448097E+00
 -0.153117448093E+00
 -0.162572052068E+00
 -0.162572052079E+00
 -0.167816495142E+00
 -0.167816379063E+00
 -0.173696889997E+00
 -0.173697018423E+00
 -0.175733425762E+00
 -0.175733507938E+00
 -0.177199229715E+00
 -0.177199142537E+00
 -0.178560829813E+00
 -0.178560876532E+00
 -0.178598781165E+00
 -0.178598781183E+00
 -0.178866174494E+00
 -0.178865983577E+00
 -0.179094924879E+00
 -0.179094985726E+00
 -0.178931184003E+00
 -0.178931150225E+00
 -0.178550497649E+00
 -0.178550497652E+00
 -0.178271979718E+00
 -0.178271979718E+00
 -0.178094449570E+00
 -0.178094473663E+00
 -0.177959381829E+00
 -0.177959409201E+00
 -0.177836290415E+00
 -0.177836290415E+00
 -0.177727106345E+00
 -0.177727088391E+00
 -0.177634650356E+00
 -0.177634660695E+00
 -0.177552855308E+00
 -0.177552861281E+00
 -0.177482666171E+00
 -0.177482673010E+00
 -0.326424821471E-01
 -0.326409350190E-01
 -0.327133615936E-01
 -0.327133555108E-01
 -0.327966241128E-01
 -0.327977618215E-01
 -0.328941442632E-01
 -0.328931304200E-01
 -0.330049513650E-01
 -0.330058176163E-01
 -0.331336199234E-01
 -0.331328633204E-01
 -0.332722218043E-01
 -0.332722459965E-01
 -0.334548538589E-01
 -0.334554392071E-01
 -0.337434476008E-01
 -0.337428903351E-01
 -0.341358306232E-01
 -0.341357970423E-01
 -0.343044463384E-01
 -0.343049238748E-01
 -0.340687752230E-01
 -0.340685325687E-01
 -0.337927181348E-01
 -0.337927181544E-01
 -0.337535500377E-01
 -0.337535957166E-01
 -0.323484850571E-01
 -0.323484001463E-01
 -0.308366412482E-01
 -0.308366412469E-01
 -0.287372128649E-01
 -0.287372128518E-01
 -0.226822129543E-01
 -0.226822129555E-01
 -0.172915977098E-01
 -0.172915977194E-01
 -0.759508445228E-02
 -0.759508444658E-02
  0.188746412433E-02
  0.188747424489E-02
  0.159761479771E-01
  0.159760825532E-01
  0.326444742470E-01
  0.326444981135E-01
  0.507187116841E-01
  0.507188642042E-01
  0.802180028834E-01
  0.802180028834E-01
  0.106479678379E+00
  0.106479678379E+00
  0.131542585753E+00
  0.131542585753E+00
  0.155510074580E+00
  0.155509888920E+00
  0.178103687310E+00
  0.178103786330E+00
  0.199720562492E+00
  0.199720507081E+00
  0.224566149230E+00
  0.224566149232E+00
  0.253738207025E+00
  0.253738207019E+00
  0.284742046290E+00
  0.284742046294E+00
  0.320644667919E+00
  0.320644803544E+00
  0.357279449096E+00
  0.357279308818E+00
  0.411563398118E+00
  0.411563411362E+00
  0.459590369776E+00
  0.459590430018E+00
  0.573863643784E+00
  0.573863616737E+00
  0.639894013005E+00
  0.639894013635E+00
  0.701679011070E+00
  0.701679008375E+00
  0.665820756309E+00
  0.665820756484E+00
  0.563498713912E+00
  0.563498709099E+00
  0.476057205813E+00
  0.476057253787E+00
  0.338844481105E+00
  0.338844402569E+00
  0.284146737019E+00
  0.284146720532E+00
  0.223812397430E+00
  0.223812564737E+00
  0.183859750364E+00
  0.183859592121E+00
  0.145238371444E+00
  0.145238371438E+00
  0.112280062329E+00
  0.112280062336E+00
  0.815820795568E-01
  0.815820795546E-01
  0.556653685276E-01
  0.556654290360E-01
  0.332818410810E-01
  0.332817342414E-01
  0.100460865411E-01
  0.100462840769E-01
 -0.144279642377E-01
 -0.144279642377E-01
 -0.398330935827E-01
 -0.398330935832E-01
 -0.662512093270E-01
 -0.662512093270E-01
 -0.956830759881E-01
 -0.956832255596E-01
 -0.113590461930E+00
 -0.113590484947E+00
 -0.130020677027E+00
 -0.130020614945E+00
 -0.143845099505E+00
 -0.143845108975E+00
 -0.153117447090E+00
 -0.153117447096E+00
 -0.162572050705E+00
 -0.162572050695E+00
 -0.167816385236E+00
 -0.167816385235E+00
 -0.173697016513E+00
 -0.173697016526E+00
 -0.175733500194E+00
 -0.175733500196E+00
 -0.177199140434E+00
 -0.177199227204E+00
 -0.178560876907E+00
 -0.178560830387E+00
 -0.178598778784E+00
 -0.178598778764E+00
 -0.178865991529E+00
 -0.178866236722E+00
 -0.179095003181E+00
 -0.179094522556E+00
 -0.178931147054E+00
 -0.178931180722E+00
 -0.178550495891E+00
 -0.178551052535E+00
 -0.178271998308E+00
 -0.178271415622E+00
 -0.178094472556E+00
 -0.178094448550E+00
 -0.177959406671E+00
 -0.177960155272E+00
 -0.177836306647E+00
 -0.177835451796E+00
 -0.177727086243E+00
 -0.177728084404E+00
 -0.177634677370E+00
 -0.177633559586E+00
 -0.177552859378E+00
 -0.177552865344E+00
 -0.177482671105E+00
 -0.177484185910E+00
 -0.326409473584E-01
 -0.326424801255E-01
 -0.327133690783E-01
 -0.327133629973E-01
 -0.327966360167E-01
 -0.327966255088E-01
 -0.328941604339E-01
 -0.328941421769E-01
 -0.330049527668E-01
 -0.330049528118E-01
 -0.331336179140E-01
 -0.331336178766E-01
 -0.332722472989E-01
 -0.332722231508E-01
 -0.334548551214E-01
 -0.334548550879E-01
 -0.337434452102E-01
 -0.337434452400E-01
 -0.341357988456E-01
 -0.341358324075E-01
 -0.343045081311E-01
 -0.343044479072E-01
 -0.340687725600E-01
 -0.340687725797E-01
 -0.337927178596E-01
 -0.337927178580E-01
 -0.337535949327E-01
 -0.337535492747E-01
 -0.323484838435E-01
 -0.323484838435E-01
 -0.308366410294E-01
 -0.308366410434E-01
 -0.287372126816E-01
 -0.287372126829E-01
 -0.226822128311E-01
 -0.226822128299E-01
 -0.172915976367E-01
 -0.172915976270E-01
 -0.759508441631E-02
 -0.759508442465E-02
  0.188747423416E-02
  0.188740431059E-02
  0.159760825488E-01
  0.159761479424E-01
  0.326444982340E-01
  0.326446211053E-01
  0.507188641787E-01
  0.507187254621E-01
  0.802180031957E-01
  0.802180031957E-01
  0.106479680468E+00
  0.106479702761E+00
  0.131542589520E+00
  0.131542548146E+00
  0.155509889666E+00
  0.155510075867E+00
  0.178103783228E+00
  0.178103584399E+00
  0.199720513506E+00
  0.199720513508E+00
  0.224566157847E+00
  0.224566272817E+00
  0.253738206250E+00
  0.253738206256E+00
  0.284742045339E+00
  0.284742045332E+00
  0.320644824717E+00
  0.320644824720E+00
  0.357279307458E+00
  0.357279449738E+00
  0.411563379238E+00
  0.411563311044E+00
  0.459590429973E+00
  0.459590306378E+00
  0.573863673018E+00
  0.573863715983E+00
  0.639894033778E+00
  0.639894026518E+00
  0.701679102722E+00
  0.701679046889E+00
  0.665820848643E+00
  0.665820845835E+00
  0.563498698625E+00
  0.563498731650E+00
  0.476057325541E+00
  0.476057252502E+00
  0.338844321704E+00
  0.338844481072E+00
  0.284146630679E+00
  0.284146714840E+00
  0.223812565139E+00
  0.223812396577E+00
  0.183859762508E+00
  0.183859762505E+00
  0.145238370948E+00
  0.145238370957E+00
  0.112280061995E+00
  0.112280061989E+00
  0.815822093940E-01
  0.815820826866E-01
  0.556653703203E-01
  0.556653703183E-01
  0.332816266746E-01
  0.332818405014E-01
  0.100462841600E-01
  0.100460865893E-01
 -0.144280078670E-01
 -0.144279646508E-01
 -0.398330714905E-01
 -0.398330943642E-01
 -0.662512095849E-01
 -0.662512095849E-01
 -0.956832121007E-01
 -0.956830759400E-01
 -0.113590343647E+00
 -0.113590462349E+00
 -0.130020614778E+00
 -0.130020676991E+00
 -0.143845164332E+00
 -0.143845098688E+00
 -0.153117446539E+00
 -0.153117446530E+00
 -0.162572049917E+00
 -0.162572049927E+00
 -0.167816384314E+00
 -0.167816384315E+00
 -0.173697015426E+00
 -0.173697015425E+00
 -0.175733499028E+00
 -0.175733499014E+00
 -0.177199220557E+00
 -0.177199220557E+00
 -0.178560826351E+00
 -0.178560872689E+00
 -0.178598777301E+00
 -0.178598777303E+00
 -0.178866222844E+00
 -0.178866222825E+00
 -0.179094530747E+00
 -0.179094591199E+00
 -0.178931190074E+00
 -0.178931156507E+00
 -0.178551040043E+00
 -0.178551040013E+00
 -0.178271422171E+00
 -0.178271422205E+00
 -0.178094455757E+00
 -0.178094479679E+00
 -0.177960144279E+00
 -0.177960144316E+00
 -0.177835459592E+00
 -0.177835459548E+00
 -0.177728073131E+00
 -0.177728091086E+00
 -0.177633567147E+00
 -0.177633577461E+00
 -0.177552872962E+00
 -0.177552878921E+00
 -0.177484174919E+00
 -0.177482675260E+00
 -0.326425027708E-01
 -0.326409490586E-01
 -0.327133797482E-01
 -0.327133675864E-01
 -0.327966345327E-01
 -0.327966345333E-01
 -0.328941407748E-01
 -0.328941590276E-01
 -0.330049829829E-01
 -0.330049513021E-01
 -0.331328633029E-01
 -0.331336194612E-01
 -0.332722729171E-01
 -0.332722487459E-01
 -0.334554384612E-01
 -0.334548536327E-01
 -0.337429277716E-01
 -0.337434468126E-01
 -0.341358337956E-01
 -0.341358002489E-01
 -0.343049228640E-01
 -0.343045061011E-01
 -0.340687710441E-01
 -0.340687710441E-01
 -0.337927163814E-01
 -0.337927163635E-01
 -0.337533926992E-01
 -0.337535954480E-01
 -0.323485686955E-01
 -0.323484839362E-01
 -0.308365622896E-01
 -0.308366419197E-01
 -0.287371654598E-01
 -0.287372139650E-01
 -0.226823251338E-01
 -0.226822128884E-01
 -0.172915656326E-01
 -0.172915978563E-01
 -0.759501473741E-02
 -0.759508463259E-02
  0.188740438943E-02
  0.188739428181E-02
  0.159761482162E-01
  0.159761482162E-01
  0.326446209916E-01
  0.326444981638E-01
  0.507187254480E-01
  0.507187254480E-01
  0.802180031649E-01
  0.802180031649E-01
  0.106479702614E+00
  0.106479680302E+00
  0.131542547740E+00
  0.131542723597E+00
  0.155510075615E+00
  0.155509951331E+00
  0.178103579133E+00
  0.178103593354E+00
  0.199720505363E+00
  0.199720561304E+00
  0.224566265536E+00
  0.224566192814E+00
  0.253738203375E+00
  0.253738203371E+00
  0.284742041087E+00
  0.284742041089E+00
  0.320644818428E+00
  0.320644818432E+00
  0.357279466740E+00
  0.357279374571E+00
  0.411563339426E+00
  0.411563408842E+00
  0.459590284738E+00
  0.459590284730E+00
  0.573863714028E+00
  0.573863728634E+00
  0.639893968653E+00
  0.639893985571E+00
  0.701678966725E+00
  0.701679011666E+00
  0.665820764199E+00
  0.665820772576E+00
  0.563498706229E+00
  0.563498647669E+00
  0.476057347896E+00
  0.476057323919E+00
  0.338844305739E+00
  0.338844305750E+00
  0.284146735284E+00
  0.284146650274E+00
  0.223812467254E+00
  0.223812575790E+00
  0.183859758904E+00
  0.183859758900E+00
  0.145238368786E+00
  0.145238368783E+00
  0.112280060716E+00
  0.112280060720E+00
  0.815821269068E-01
  0.815822067490E-01
  0.556654287052E-01
  0.556653680502E-01
  0.332816409387E-01
  0.332816256905E-01
  0.100461526011E-01
  0.100462841437E-01
 -0.144278244818E-01
 -0.144280078225E-01
 -0.398330943026E-01
 -0.398330714354E-01
 -0.662512095595E-01
 -0.662512095595E-01
 -0.956832120741E-01
 -0.956832120740E-01
 -0.113590462103E+00
 -0.113590343251E+00
 -0.130020617006E+00
 -0.130020617006E+00
 -0.143845179859E+00
 -0.143845170341E+00
 -0.153117450890E+00
 -0.153117379674E+00
 -0.162572051992E+00
 -0.162572019109E+00
 -0.167816384740E+00
 -0.167816499264E+00
 -0.173697023182E+00
 -0.173696973729E+00
 -0.175733504088E+00
 -0.175733423069E+00
 -0.177199221064E+00
 -0.177199307073E+00
 -0.178560875415E+00
 -0.178560670299E+00
 -0.178598769395E+00
 -0.178598769413E+00
 -0.178866214866E+00
 -0.178866214866E+00
 -0.179094580601E+00
 -0.179094997913E+00
 -0.178931163862E+00
 -0.178931197341E+00
 -0.178551048492E+00
 -0.178550532159E+00
 -0.178271414272E+00
 -0.178271994321E+00
 -0.178094487424E+00
 -0.178094511332E+00