# vtk DataFile Version 3.0
TriPan results file. Generated by TriPan, USU AeroLab (c) 2021.
ASCII
DATASET POLYDATA
POINTS                  40 float
  0.190003013611E+02  0.000000000000E+00  0.000000000000E+00
  0.989763129761E+02  0.000000000000E+00  0.146783448745E+02
  0.197581977844E+02  0.757896304131E+00  0.000000000000E+00
  0.990010106695E+02  0.757896304131E+00  0.145437777261E+02
  0.207892742157E+02  0.178897356987E+01  0.000000000000E+00
  0.990346105240E+02  0.178897356987E+01  0.143607065164E+02
  0.221730995178E+02  0.317279767990E+01  0.000000000000E+00
  0.990797054630E+02  0.317279767990E+01  0.141150035166E+02
  0.239969177246E+02  0.499661636353E+01  0.000000000000E+00
  0.991391385220E+02  0.499661636353E+01  0.137911782449E+02
  0.263439254761E+02  0.734362459183E+01  0.000000000000E+00
  0.992156208433E+02  0.734362459183E+01  0.133744588482E+02
  0.292731380463E+02  0.102728376389E+02  0.000000000000E+00
  0.993110755673E+02  0.102728376389E+02  0.128543669592E+02
  0.327924232483E+02  0.137921218872E+02  0.000000000000E+00
  0.994257590836E+02  0.137921218872E+02  0.122295056202E+02
  0.368323059082E+02  0.178320064545E+02  0.000000000000E+00
  0.995574073935E+02  0.178320064545E+02  0.115122103903E+02
  0.412342338562E+02  0.222339305878E+02  0.000000000000E+00
  0.997008537318E+02  0.222339305878E+02  0.107306327591E+02
  0.457663688660E+02  0.267660694122E+02  0.000000000000E+00
  0.998485431487E+02  0.267660694122E+02  0.992593641083E+01
  0.501682968140E+02  0.311679935455E+02  0.000000000000E+00
  0.999919894869E+02  0.311679935455E+02  0.914435877965E+01
  0.542081794739E+02  0.352078781128E+02  0.000000000000E+00
  0.100123637797E+03  0.352078781128E+02  0.842706354973E+01
  0.577274627686E+02  0.387271614075E+02  0.000000000000E+00
  0.100238321251E+03  0.387271614075E+02  0.780220254941E+01
  0.606566772461E+02  0.416563758850E+02  0.000000000000E+00
  0.100333776037E+03  0.416563758850E+02  0.728211032174E+01
  0.630036849976E+02  0.440033836365E+02  0.000000000000E+00
  0.100410258358E+03  0.440033836365E+02  0.686539092505E+01
  0.648275070190E+02  0.458272018433E+02  0.000000000000E+00
  0.100469691542E+03  0.458272018433E+02  0.654156497605E+01
  0.662113265991E+02  0.472110252380E+02  0.000000000000E+00
  0.100514786294E+03  0.472110252380E+02  0.629586299225E+01
  0.672424011230E+02  0.482421035767E+02  0.000000000000E+00
  0.100548386087E+03  0.482421035767E+02  0.611279212115E+01
  0.680002975464E+02  0.490000000000E+02  0.000000000000E+00
  0.100573083780E+03  0.490000000000E+02  0.597822497278E+01
POLYGONS                  38                 152
3                   0                   1                   3
3                   0                   3                   2
3                   2                   3                   5
3                   2                   5                   4
3                   4                   5                   7
3                   4                   7                   6
3                   6                   7                   9
3                   6                   9                   8
3                   8                   9                  11
3                   8                  11                  10
3                  10                  11                  13
3                  10                  13                  12
3                  12                  13                  15
3                  12                  15                  14
3                  14                  15                  17
3                  14                  17                  16
3                  16                  17                  19
3                  16                  19                  18
3                  18                  19                  21
3                  18                  21                  20
3                  20                  21                  23
3                  20                  23                  22
3                  22                  23                  25
3                  22                  25                  24
3                  24                  25                  27
3                  24                  27                  26
3                  26                  27                  29
3                  26                  29                  28
3                  28                  29                  31
3                  28                  31                  30
3                  30                  31                  33
3                  30                  33                  32
3                  32                  33                  35
3                  32                  35                  34
3                  34                  35                  37
3                  34                  37                  36
3                  36                  37                  39
3                  36                  39                  38
POINT_DATA                  40
SCALARS mu float 1
LOOKUP_TABLE default
 -0.118161056395E-02
 -0.118161056395E-02
 -0.118435890165E-03
 -0.118435890165E-03
 -0.136826110733E-03
 -0.136826110733E-03
 -0.143828410092E-03
 -0.143828410092E-03
 -0.174579130789E-03
 -0.174579130789E-03
 -0.196601920813E-03
 -0.196601920813E-03
 -0.232480145815E-03
 -0.232480145815E-03
 -0.274561683071E-03
 -0.274561683071E-03
 -0.293829793364E-03
 -0.293829793364E-03
 -0.303113058528E-03
 -0.303113058528E-03
 -0.294130591861E-03
 -0.294130591861E-03
 -0.273819959062E-03
 -0.273819959062E-03
 -0.238137707072E-03
 -0.238137707072E-03
 -0.195062519012E-03
 -0.195062519012E-03
 -0.149597175906E-03
 -0.149597175906E-03
 -0.106701803112E-03
 -0.106701803112E-03
 -0.730116888832E-04
 -0.730116888832E-04
 -0.383968760076E-04
 -0.383968760076E-04
 -0.113699212643E-02
 -0.113699212643E-02
  0.000000000000E+00
  0.000000000000E+00
