# vtk DataFile Version 3.0
TriPan results file. Generated by TriPan, USU AeroLab (c) 2021.
ASCII
DATASET POLYDATA
POINTS                  34 float
  0.190003013611E+02  0.000000000000E+00  0.000000000000E+00
  0.989763129761E+02  0.000000000000E+00  0.146783448745E+02
  0.199284744263E+02  0.928174138069E+00  0.000000000000E+00
  0.990065595019E+02  0.928174138069E+00  0.145135445156E+02
  0.212622661591E+02  0.226196575165E+01  0.000000000000E+00
  0.990500239889E+02  0.226196575165E+01  0.142767251502E+02
  0.231392364502E+02  0.413893461227E+01  0.000000000000E+00
  0.991111891235E+02  0.413893461227E+01  0.139434625409E+02
  0.257042465210E+02  0.670394468307E+01  0.000000000000E+00
  0.991947755217E+02  0.670394468307E+01  0.134880360735E+02
  0.290725154877E+02  0.100722141266E+02  0.000000000000E+00
  0.993045378475E+02  0.100722141266E+02  0.128899881929E+02
  0.332713356018E+02  0.142710342407E+02  0.000000000000E+00
  0.994413654780E+02  0.142710342407E+02  0.121444730646E+02
  0.381787681580E+02  0.191784667969E+02  0.000000000000E+00
  0.996012847767E+02  0.191784667969E+02  0.112731413305E+02
  0.435003013611E+02  0.245000000000E+02  0.000000000000E+00
  0.997746984402E+02  0.245000000000E+02  0.103282845850E+02
  0.488218345642E+02  0.298215332031E+02  0.000000000000E+00
  0.999481121038E+02  0.298215332031E+02  0.938342783941E+01
  0.537292671204E+02  0.347289657593E+02  0.000000000000E+00
  0.100108031402E+03  0.347289657593E+02  0.851209610529E+01
  0.579280853271E+02  0.389277839661E+02  0.000000000000E+00
  0.100244858971E+03  0.389277839661E+02  0.776658131574E+01
  0.612963562012E+02  0.422960548401E+02  0.000000000000E+00
  0.100354621359E+03  0.422960548401E+02  0.716853309641E+01
  0.638613662720E+02  0.448610649109E+02  0.000000000000E+00
  0.100438207757E+03  0.448610649109E+02  0.671310662901E+01
  0.657383346558E+02  0.467380332947E+02  0.000000000000E+00
  0.100499372829E+03  0.467380332947E+02  0.637984435836E+01
  0.670721282959E+02  0.480718269348E+02  0.000000000000E+00
  0.100542837379E+03  0.480718269348E+02  0.614302465435E+01
  0.680002975464E+02  0.490000000000E+02  0.000000000000E+00
  0.100573083780E+03  0.490000000000E+02  0.597822497278E+01
POLYGONS                  32                 128
3                   0                   1                   3
3                   0                   3                   2
3                   2                   3                   5
3                   2                   5                   4
3                   4                   5                   7
3                   4                   7                   6
3                   6                   7                   9
3                   6                   9                   8
3                   8                   9                  11
3                   8                  11                  10
3                  10                  11                  13
3                  10                  13                  12
3                  12                  13                  15
3                  12                  15                  14
3                  14                  15                  17
3                  14                  17                  16
3                  16                  17                  19
3                  16                  19                  18
3                  18                  19                  21
3                  18                  21                  20
3                  20                  21                  23
3                  20                  23                  22
3                  22                  23                  25
3                  22                  25                  24
3                  24                  25                  27
3                  24                  27                  26
3                  26                  27                  29
3                  26                  29                  28
3                  28                  29                  31
3                  28                  31                  30
3                  30                  31                  33
3                  30                  33                  32
POINT_DATA                  34
SCALARS mu float 1
LOOKUP_TABLE default
 -0.518369691257E-03
 -0.518369691257E-03
 -0.944362890110E-04
 -0.944362890110E-04
 -0.112766120019E-03
 -0.112766120019E-03
 -0.140438653897E-03
 -0.140438653897E-03
 -0.173738912366E-03
 -0.173738912366E-03
 -0.211761364909E-03
 -0.211761364909E-03
 -0.242628192552E-03
 -0.242628192552E-03
 -0.262312435780E-03
 -0.262312435780E-03
 -0.265833785470E-03
 -0.265833785470E-03
 -0.249656341261E-03
 -0.249656341261E-03
 -0.213846763515E-03
 -0.213846763515E-03
 -0.168514916965E-03
 -0.168514916965E-03
 -0.121515685528E-03
 -0.121515685528E-03
 -0.792402830356E-04
 -0.792402830356E-04
 -0.251546705954E-04
 -0.251546705954E-04
  0.926959122296E-04
  0.926959122296E-04
  0.000000000000E+00
  0.000000000000E+00
