# vtk DataFile Version 3.0
TriPan results file. Generated by TriPan, USU AeroLab (c) 2021.
ASCII
DATASET POLYDATA
POINTS                  20 float
  0.190000000000E+02  0.000000000000E+00  0.000000000000E+00
  0.983633386421E+04  0.000000000000E+00  0.180181793636E+04
  0.209237651825E+02  0.192375373840E+01  0.000000000000E+00
  0.983639655426E+04  0.192375373840E+01  0.180147636516E+04
  0.244703655243E+02  0.547033166885E+01  0.000000000000E+00
  0.983651212789E+04  0.547033166885E+01  0.180084665392E+04
  0.303820724487E+02  0.113820018768E+02  0.000000000000E+00
  0.983670477364E+04  0.113820018768E+02  0.179979700978E+04
  0.387563171387E+02  0.197561950684E+02  0.000000000000E+00
  0.983697766651E+04  0.197561950684E+02  0.179831013348E+04
  0.482439842224E+02  0.292438049316E+02  0.000000000000E+00
  0.983728684265E+04  0.292438049316E+02  0.179662556516E+04
  0.566182289124E+02  0.376179962158E+02  0.000000000000E+00
  0.983755973552E+04  0.376179962158E+02  0.179513868886E+04
  0.625299339294E+02  0.435296669006E+02  0.000000000000E+00
  0.983775238121E+04  0.435296669006E+02  0.179408904506E+04
  0.660765380859E+02  0.470762481689E+02  0.000000000000E+00
  0.983786795497E+04  0.470762481689E+02  0.179345933314E+04
  0.680002975464E+02  0.490000000000E+02  0.000000000000E+00
  0.983793064483E+04  0.490000000000E+02  0.179311776295E+04
POLYGONS                  18                  72
3                   0                   1                   3
3                   0                   3                   2
3                   2                   3                   5
3                   2                   5                   4
3                   4                   5                   7
3                   4                   7                   6
3                   6                   7                   9
3                   6                   9                   8
3                   8                   9                  11
3                   8                  11                  10
3                  10                  11                  13
3                  10                  13                  12
3                  12                  13                  15
3                  12                  15                  14
3                  14                  15                  17
3                  14                  17                  16
3                  16                  17                  19
3                  16                  19                  18
POINT_DATA                  20
SCALARS mu float 1
LOOKUP_TABLE default
 -0.594604050054E-03
 -0.594604050054E-03
 -0.143496057555E-03
 -0.143496057555E-03
 -0.206239403958E-03
 -0.206239403958E-03
 -0.278447004263E-03
 -0.278447004263E-03
 -0.319059639343E-03
 -0.319059639343E-03
 -0.293880106259E-03
 -0.293880106259E-03
 -0.210577533611E-03
 -0.210577533611E-03
 -0.112325777115E-03
 -0.112325777115E-03
 -0.372331623227E-04
 -0.372331623227E-04
  0.000000000000E+00
  0.000000000000E+00
