# vtk DataFile Version 3.0
TriPan results file. Generated by TriPan, USU AeroLab (c) 2021.
ASCII
DATASET POLYDATA
POINTS                1848 float
  0.559710450636E-05  0.000000000000E+00  0.120211578351E-21
  0.147669420356E+00  0.000000000000E+00 -0.234916154167E+00
  0.147669420356E+00  0.000000000000E+00  0.234916154167E+00
  0.339643488108E+00  0.339635660470E+00  0.000000000000E+00
  0.473468632512E+00  0.000000000000E+00 -0.436287762525E+00
  0.473468632512E+00  0.000000000000E+00  0.436287762525E+00
  0.487308608206E+00  0.339636249629E+00 -0.234917183841E+00
  0.487308608206E+00  0.339636249629E+00  0.234917183841E+00
  0.735369269503E+00  0.735360558377E+00 -0.623642789854E-22
  0.813108237056E+00  0.339636920424E+00 -0.436288359745E+00
  0.813108237056E+00  0.339636920424E+00  0.436288359745E+00
  0.883034320569E+00  0.735361246371E+00 -0.234916856065E+00
  0.883034320569E+00  0.735361246371E+00  0.234916856065E+00
  0.944066647098E+00  0.000000000000E+00 -0.604286064991E+00
  0.944066647098E+00  0.000000000000E+00  0.604286064991E+00
  0.119528541420E+01  0.119527568962E+01 -0.139239588662E-21
  0.120883396323E+01  0.735362022563E+00 -0.436287920848E+00
  0.120883396323E+01  0.735362022563E+00  0.436287920848E+00
  0.128370629013E+01  0.339637445796E+00 -0.604286441728E+00
  0.128370629013E+01  0.339637445796E+00  0.604286441728E+00
  0.134295035247E+01  0.119527649041E+01 -0.234916489990E+00
  0.134295035247E+01  0.119527649041E+01  0.234916489990E+00
  0.157642143906E+01  0.000000000000E+00 -0.760511625665E+00
  0.157642143906E+01  0.000000000000E+00  0.760511625665E+00
  0.166874987392E+01  0.119527738781E+01 -0.436287408051E+00
  0.166874987392E+01  0.119527738781E+01  0.436287408051E+00
  0.167943194385E+01  0.735362620399E+00 -0.604285952066E+00
  0.167943194385E+01  0.735362620399E+00  0.604285952066E+00
  0.172824569053E+01  0.172823481255E+01 -0.389385905703E-21
  0.187591062046E+01  0.172823574089E+01 -0.234916066324E+00
  0.187591062046E+01  0.172823574089E+01  0.234916066324E+00
  0.191606115975E+01  0.339637789350E+00 -0.760511930360E+00
  0.191606115975E+01  0.339637789350E+00  0.760511930360E+00
  0.213934789061E+01  0.119527806879E+01 -0.604285440358E+00
  0.213934789061E+01  0.119527806879E+01  0.604285440358E+00
  0.220170988446E+01  0.172823677653E+01 -0.436286844900E+00
  0.220170988446E+01  0.172823677653E+01  0.436286844900E+00
  0.231178688624E+01  0.735363010380E+00 -0.760511482838E+00
  0.231178688624E+01  0.735363010380E+00  0.760511482838E+00
  0.234376538790E+01  0.234375320874E+01 -0.348769880774E-21
  0.239635655070E+01  0.000000000000E+00 -0.902050767795E+00
  0.239635655070E+01  0.000000000000E+00  0.902050767795E+00
  0.249143005586E+01  0.234375427984E+01 -0.234915581477E+00
  0.249143005586E+01  0.234375427984E+01  0.234915581477E+00
  0.267230804490E+01  0.172823755218E+01 -0.604284839933E+00
  0.267230804490E+01  0.172823755218E+01  0.604284839933E+00
  0.273599651581E+01  0.339638112717E+00 -0.902051094889E+00
  0.273599651581E+01  0.339638112717E+00  0.902051094889E+00
  0.277170289895E+01  0.119527851203E+01 -0.760510950761E+00
  0.277170289895E+01  0.119527851203E+01  0.760510950761E+00
  0.281722952122E+01  0.234375547176E+01 -0.436286196457E+00
  0.281722952122E+01  0.234375547176E+01  0.436286196457E+00
  0.305186238041E+01  0.305184874783E+01 -0.195195463795E-21
  0.313172232612E+01  0.735363369156E+00 -0.902050640810E+00
  0.313172232612E+01  0.735363369156E+00  0.902050640810E+00
  0.319952712879E+01  0.305184997693E+01 -0.234915033141E+00
  0.319952712879E+01  0.305184997693E+01  0.234915033141E+00
  0.328782757476E+01  0.234375635430E+01 -0.604284144956E+00
  0.328782757476E+01  0.234375635430E+01  0.604284144956E+00
  0.330466299259E+01  0.172823805608E+01 -0.760510326632E+00
  0.330466299259E+01  0.172823805608E+01  0.760510326632E+00
  0.342464501736E+01  0.000000000000E+00 -0.102347726804E+01
  0.342464501736E+01  0.000000000000E+00  0.102347726804E+01
  0.352532618079E+01  0.305185134378E+01 -0.436285459385E+00
  0.352532618079E+01  0.305185134378E+01  0.436285459385E+00
  0.359163829815E+01  0.119527891148E+01 -0.902050101036E+00
  0.359163829815E+01  0.119527891148E+01  0.902050101036E+00
  0.376428499675E+01  0.339638473036E+00 -0.102347755842E+01
  0.376428499675E+01  0.339638473036E+00  0.102347755842E+01
  0.386281012443E+01  0.386279488655E+01 -0.436361510624E-21
  0.392018245394E+01  0.234375692670E+01 -0.760509663821E+00
  0.392018245394E+01  0.234375692670E+01  0.760509663821E+00
  0.399592435318E+01  0.305185234589E+01 -0.604283351599E+00
  0.399592435318E+01  0.305185234589E+01  0.604283351599E+00
  0.401047470017E+01  0.386279628829E+01 -0.234914435781E+00
  0.401047470017E+01  0.386279628829E+01  0.234914435781E+00
  0.412459882225E+01  0.172823850189E+01 -0.902049467796E+00
  0.412459882225E+01  0.172823850189E+01  0.902049467796E+00
  0.416001101646E+01  0.735363758474E+00 -0.102347710272E+01
  0.416001101646E+01  0.735363758474E+00  0.102347710272E+01
  0.433627355849E+01  0.386279784882E+01 -0.436284662791E+00
  0.433627355849E+01  0.386279784882E+01  0.436284662791E+00
  0.461992719359E+01  0.119527933413E+01 -0.102347656107E+01
  0.461992719359E+01  0.119527933413E+01  0.102347656107E+01
  0.462827939417E+01  0.305185299490E+01 -0.760508898570E+00
  0.462827939417E+01  0.305185299490E+01  0.760508898570E+00
  0.466872311975E+01  0.000000000000E+00 -0.111145353779E+01
  0.466872311975E+01  0.000000000000E+00  0.111145353779E+01
  0.474011846960E+01  0.234375742494E+01 -0.902048794181E+00
  0.474011846960E+01  0.234375742494E+01  0.902048794181E+00
  0.478678312943E+01  0.478676614119E+01 -0.486485741194E-21
  0.480687159859E+01  0.386279898322E+01 -0.604282518577E+00
  0.480687159859E+01  0.386279898322E+01  0.604282518577E+00
  0.493444751927E+01  0.478676772883E+01 -0.234913791519E+00
  0.493444751927E+01  0.478676772883E+01  0.234913791519E+00
  0.500836336858E+01  0.339638975791E+00 -0.111145376435E+01
  0.500836336858E+01  0.339638975791E+00  0.111145376435E+01
  0.515288767965E+01  0.172823896258E+01 -0.102347604475E+01
  0.515288767965E+01  0.172823896258E+01  0.102347604475E+01
  0.526024664267E+01  0.478676950112E+01 -0.436283779756E+00
  0.526024664267E+01  0.478676950112E+01  0.436283779756E+00
  0.540408912163E+01  0.735364289471E+00 -0.111145330904E+01
  0.540408912163E+01  0.735364289471E+00  0.111145330904E+01
  0.543922703165E+01  0.386279971700E+01 -0.760508029793E+00
  0.543922703165E+01  0.386279971700E+01  0.760508029793E+00
  0.544821511269E+01  0.305185355186E+01 -0.902048075774E+00
  0.544821511269E+01  0.305185355186E+01  0.902048075774E+00
  0.573084453819E+01  0.478677078010E+01 -0.604281589405E+00
  0.573084453819E+01  0.478677078010E+01  0.604281589405E+00
  0.576840728392E+01  0.234375792871E+01 -0.102347530863E+01
  0.576840728392E+01  0.234375792871E+01  0.102347530863E+01
  0.583338631872E+01  0.583336745020E+01 -0.675413266973E-21
  0.586400574314E+01  0.119527989759E+01 -0.111145288712E+01
  0.586400574314E+01  0.119527989759E+01  0.111145288712E+01
  0.598105051178E+01  0.583336923462E+01 -0.234913090871E+00
  0.598105051178E+01  0.583336923462E+01  0.234913090871E+00
  0.611307647464E+01  0.000000000000E+00 -0.114006672374E+01
  0.611307647464E+01  0.000000000000E+00  0.114006672374E+01
  0.625916268514E+01  0.386280033901E+01 -0.902047251677E+00
  0.625916268514E+01  0.386280033901E+01  0.902047251677E+00
  0.630684940695E+01  0.583337123515E+01 -0.436282847598E+00
  0.630684940695E+01  0.583337123515E+01  0.436282847598E+00
  0.636319987860E+01  0.478677160653E+01 -0.760507120199E+00
  0.636319987860E+01  0.478677160653E+01  0.760507120199E+00
  0.639696619211E+01  0.172823956313E+01 -0.111145225217E+01
  0.639696619211E+01  0.172823956313E+01  0.111145225217E+01
  0.645271674047E+01  0.339639661210E+00 -0.114006685712E+01
  0.645271674047E+01  0.339639661210E+00  0.114006685712E+01
  0.647650435555E+01  0.305185410393E+01 -0.102347458652E+01
  0.647650435555E+01  0.305185410393E+01  0.102347458652E+01
  0.677744762352E+01  0.583337266991E+01 -0.604280572342E+00
  0.677744762352E+01  0.583337266991E+01  0.604280572342E+00
  0.684844294097E+01  0.735365004281E+00 -0.114006640392E+01
  0.684844294097E+01  0.735365004281E+00  0.114006640392E+01
  0.701105922061E+01  0.701103836697E+01 -0.149294341255E-21
  0.701248623121E+01  0.234375857127E+01 -0.111145163580E+01
  0.701248623121E+01  0.234375857127E+01  0.111145163580E+01
  0.715872320950E+01  0.701104035556E+01 -0.234912358162E+00
  0.715872320950E+01  0.701104035556E+01  0.234912358162E+00
  0.718313593776E+01  0.478677229970E+01 -0.902046324878E+00
  0.718313593776E+01  0.478677229970E+01  0.902046324878E+00
  0.728745235124E+01  0.386280094467E+01 -0.102347387693E+01
  0.728745235124E+01  0.386280094467E+01  0.102347387693E+01
  0.730835952869E+01  0.119528064618E+01 -0.114006598452E+01
  0.730835952869E+01  0.119528064618E+01  0.114006598452E+01
  0.740980286412E+01  0.583337359616E+01 -0.760506118674E+00
  0.740980286412E+01  0.583337359616E+01  0.760506118674E+00
  0.748452186274E+01  0.701104259801E+01 -0.436281879461E+00
  0.748452186274E+01  0.701104259801E+01  0.436281879461E+00
  0.771254505256E+01  0.000000000000E+00 -0.108924206628E+01
  0.771254505256E+01  0.000000000000E+00  0.108924206628E+01
  0.772058373250E+01  0.305185479366E+01 -0.111145091404E+01
  0.772058373250E+01  0.305185479366E+01  0.111145091404E+01
  0.784131993909E+01  0.172824035030E+01 -0.114006535249E+01
  0.784131993909E+01  0.172824035030E+01  0.114006535249E+01
  0.795511991424E+01  0.701104419785E+01 -0.604279541528E+00
  0.795511991424E+01  0.701104419785E+01  0.604279541528E+00
  0.805218527188E+01  0.339640314685E+00 -0.108924208871E+01
  0.805218527188E+01  0.339640314685E+00  0.108924208871E+01
  0.821142554516E+01  0.478677296405E+01 -0.102347294427E+01
  0.821142554516E+01  0.478677296405E+01  0.102347294427E+01
[...]
POINT_DATA                1848
SCALARS phi float 1
LOOKUP_TABLE default
 -0.550515231160E-05
 -0.102836565618E+00
 -0.187650292329E+00
 -0.334063645151E+00
 -0.386931945290E+00
 -0.544448533238E+00
 -0.436895795281E+00
 -0.521709893745E+00
 -0.723288233996E+00
 -0.720991662868E+00
 -0.878508466436E+00
 -0.826120375399E+00
 -0.910934355523E+00
 -0.819471816693E+00
 -0.103764222457E+01
 -0.117564863289E+01
 -0.111021627663E+01
 -0.126773292174E+01
 -0.115353161193E+01
 -0.137170215583E+01
 -0.127848072943E+01
 -0.136329457738E+01
 -0.141323624482E+01
 -0.168781006205E+01
 -0.156257653793E+01
 -0.172009299789E+01
 -0.154275616359E+01
 -0.176092653070E+01
 -0.169985315577E+01
 -0.180268532058E+01
 -0.188749901558E+01
 -0.174729612944E+01
 -0.202187005669E+01
 -0.199511646017E+01
 -0.221328664253E+01
 -0.208678090104E+01
 -0.224429715769E+01
 -0.213652074507E+01
 -0.241109451074E+01
 -0.230526076982E+01
 -0.219415050359E+01
 -0.251982537074E+01
 -0.240809276450E+01
 -0.249290628444E+01
 -0.251932097140E+01
 -0.273749093699E+01
 -0.252821062458E+01
 -0.285388560982E+01
 -0.258888111019E+01
 -0.286345468376E+01
 -0.269218857254E+01
 -0.284970459507E+01
 -0.300172477022E+01
 -0.291743532382E+01
 -0.324311014513E+01
 -0.310455694298E+01
 -0.318937026496E+01
 -0.312472854615E+01
 -0.334289826082E+01
 -0.311308556604E+01
 -0.338765891428E+01
 -0.318362589513E+01
 -0.355314037835E+01
 -0.338865237852E+01
 -0.354616813495E+01
 -0.336979565032E+01
 -0.369547027675E+01
 -0.351768603678E+01
 -0.388720062484E+01
 -0.379934983556E+01
 -0.371849306761E+01
 -0.399306617655E+01
 -0.382119247920E+01
 -0.403936190744E+01
 -0.390218194636E+01
 -0.398699505266E+01
 -0.389400053122E+01
 -0.421967492902E+01
 -0.390691094229E+01
 -0.427642536582E+01
 -0.418627722736E+01
 -0.434379269619E+01
 -0.435927147086E+01
 -0.472878569883E+01
 -0.441495715474E+01
 -0.468952998739E+01
 -0.439138422309E+01
 -0.479266150834E+01
 -0.449940821768E+01
 -0.482508237228E+01
 -0.470814332308E+01
 -0.461881720450E+01
 -0.483698633198E+01
 -0.481097536733E+01
 -0.489578824104E+01
 -0.472544464128E+01
 -0.512672200833E+01
 -0.488347629323E+01
 -0.525299033479E+01
 -0.509507095217E+01
 -0.525258610218E+01
 -0.511466928444E+01
 -0.551594648711E+01
 -0.521258227211E+01
 -0.548715479110E+01
 -0.519587200409E+01
 -0.552154589931E+01
 -0.552761079542E+01
 -0.574577958744E+01
 -0.548888394860E+01
 -0.585839772440E+01
 -0.573755236133E+01
 -0.556703022846E+01
 -0.596830727880E+01
 -0.584038433851E+01
 -0.592519695926E+01
 -0.580684374886E+01
 -0.621845148985E+01
 -0.599349704943E+01
 -0.631917064713E+01
 -0.612447974065E+01
 -0.628199455412E+01
 -0.612137576838E+01
 -0.639594795897E+01
 -0.609123503577E+01
 -0.649251185686E+01
 -0.614090420059E+01
 -0.655251198975E+01
 -0.618534815717E+01
 -0.655486167226E+01
 -0.655701991502E+01
 -0.677518833984E+01
 -0.653012928347E+01
 -0.694173690900E+01
 -0.689587782957E+01
 -0.669664309721E+01
 -0.709791969577E+01
 -0.699870973821E+01
 -0.708352209442E+01
 -0.690229094781E+01
 -0.722796421090E+01
 -0.698297359814E+01
 -0.735248685704E+01
 -0.698249019382E+01
 -0.739409766793E+01
 -0.715078478699E+01
 -0.742535661600E+01
 -0.728280494491E+01
 -0.744031940884E+01
 -0.738921023429E+01
 -0.778246832784E+01
 -0.739310772833E+01
 -0.779438406631E+01
 -0.750669496264E+01
 -0.791830220857E+01
 -0.771534496822E+01
 -0.793351302087E+01
 -0.772327066030E+01
 -0.811652876195E+01
 -0.789176743984E+01
 -0.826128036201E+01
 -0.793170082172E+01
 -0.825737373771E+01
 -0.818957648011E+01
 -0.811249665700E+01
 -0.850575459627E+01
 -0.811210344949E+01
 -0.852371047406E+01
 -0.829240832083E+01
 -0.837722040599E+01
 -0.819073264876E+01
 -0.859200873054E+01
 -0.830911020300E+01
 -0.858368166418E+01
 -0.857650426575E+01
 -0.873401836348E+01
 -0.856485709207E+01
 -0.895811483832E+01
 -0.880856803165E+01
 -0.922017479692E+01
 -0.892117771095E+01
 -0.929069030498E+01
 -0.900904366361E+01
 -0.922721132546E+01
 -0.906369857807E+01
 -0.941778109429E+01
 -0.909002615083E+01
 -0.941569871274E+01
 -0.908906227663E+01
 -0.948231983940E+01
 -0.909952735051E+01
 -0.950080313844E+01
 -0.939775963802E+01
 -0.975184131654E+01
 -0.962248802024E+01
 -0.960280972660E+01
 -0.987738080034E+01
 -0.972531979607E+01
 -0.981013161054E+01
 -0.960619383571E+01
 -0.100178003461E+02
 -0.969447072750E+01
 -0.100877280708E+02
 -0.978698465910E+01
 -0.101410662513E+02
 -0.100094145977E+02
 -0.101669283328E+02
 -0.100795029754E+02
 -0.104490152124E+02
 -0.101289375607E+02
 -0.105302130201E+02
 -0.102393459898E+02
 -0.105934274737E+02
 -0.103837255740E+02
 -0.107093977831E+02
 -0.104419547694E+02
 -0.106601220540E+02
 -0.103909362072E+02
 -0.107841932933E+02
 -0.105149884779E+02
 -0.109265946958E+02
 -0.107419590125E+02
 -0.110439006503E+02
 -0.107635511378E+02
 -0.111176325095E+02
 -0.110357207212E+02
 -0.113102914205E+02
 -0.111950256127E+02
 -0.110760197832E+02
 -0.113779614906E+02
 -0.112978582699E+02
 -0.113826698172E+02
 -0.111885629259E+02
 -0.115818197164E+02
 -0.112872636986E+02
 -0.116885388002E+02
 -0.113689604855E+02
 -0.117230417158E+02
 -0.113732023206E+02
 -0.117427142228E+02
 -0.114652457192E+02
 -0.117671874086E+02
 -0.115819528684E+02
 -0.117394662459E+02
 -0.115443995615E+02
 -0.119560054522E+02
 -0.118166364777E+02
 -0.121423083250E+02
 -0.119176070243E+02
 -0.122195486797E+02
 -0.120144928779E+02
 -0.122326597905E+02
 -0.120654259091E+02
 -0.124195069862E+02
 -0.120973575188E+02
 -0.124906140192E+02
 -0.123365300828E+02
 -0.125813286979E+02
 -0.124418130824E+02
 -0.127437547045E+02
 -0.126082587091E+02
 -0.128828290607E+02
 -0.125809639145E+02
 -0.129822386805E+02
 -0.126705908612E+02
 -0.129153895907E+02
 -0.129034306301E+02
 -0.127027256094E+02
 -0.131143311867E+02
 -0.128061150214E+02
 -0.131756265796E+02
 -0.128630525687E+02
 -0.132171334552E+02
 -0.130062623005E+02
 -0.130910735998E+02
 -0.130598167963E+02
 -0.133046155048E+02
 -0.130472224108E+02
 -0.133491639514E+02
 -0.131267685491E+02
 -0.135200247249E+02
 -0.132903576342E+02
 -0.134478706947E+02
 -0.133891753137E+02
 -0.137148468260E+02
 -0.135121781111E+02
 -0.137569767596E+02
 -0.137228974882E+02
 -0.139410640713E+02
 -0.137770540568E+02
 -0.139671583240E+02
 -0.137436878031E+02
 -0.140456292716E+02
 -0.137718480491E+02
 -0.141259287262E+02
 -0.140363841787E+02
 -0.142811827662E+02
 -0.139964266920E+02
 -0.144080319348E+02
 -0.141111148395E+02
 -0.143012192432E+02
 -0.140138765256E+02
 -0.144151509894E+02
 -0.143166632139E+02
 -0.145912332396E+02
 -0.142850954998E+02
 -0.146783513218E+02
 -0.143786537902E+02
 -0.147481650094E+02
 -0.145003407859E+02
 -0.146904451412E+02
 -0.145413153790E+02
 -0.148432567126E+02
 -0.147391671730E+02
 -0.146417944330E+02
 -0.148865929518E+02
 -0.148419997456E+02
 -0.149268108217E+02
 -0.148012590181E+02
 -0.151553394653E+02
 -0.149527030287E+02
 -0.151428073371E+02
 -0.150207323779E+02
 -0.151626282596E+02
 -0.151260948970E+02
 -0.152836076644E+02
 -0.150975806703E+02
 -0.154232518694E+02
 -0.153547931700E+02
 -0.154966891767E+02
 -0.153382598453E+02
 -0.155830582370E+02
 -0.154769091084E+02
 -0.156670133223E+02
 -0.154501108380E+02
 -0.157520520104E+02
 -0.154293392520E+02
 -0.158409441505E+02
 -0.155586346017E+02
 -0.157768008937E+02
 -0.155787965233E+02
 -0.159720520134E+02
 -0.155864152268E+02
 -0.159876893503E+02
 -0.157440191181E+02
 -0.158859150665E+02
 -0.160532761514E+02
 -0.161549958254E+02
 -0.159595877845E+02
 -0.163136679614E+02
 -0.160823193756E+02
 -0.162724234825E+02
 -0.161358883573E+02
 -0.163806865990E+02
 -0.161963823123E+02
 -0.163382781780E+02
 -0.160870599990E+02
 -0.164565709442E+02
 -0.161524020953E+02
 -0.164269718563E+02
 -0.163873360052E+02
 -0.164890557945E+02
 -0.164795236617E+02
 -0.167814646431E+02
 -0.166885947088E+02
 -0.167205874577E+02
 -0.168624832089E+02
 -0.167765638381E+02
 -0.168782835422E+02
 -0.167914272570E+02
 -0.168762381517E+02
 -0.167787857284E+02
 -0.169688896865E+02
 -0.168831033487E+02
 -0.169526032985E+02
 -0.169333185339E+02
 -0.172589894817E+02
 -0.170755222398E+02
 -0.172330347864E+02
 -0.170446838136E+02
 -0.172894818761E+02
 -0.170018806738E+02
 -0.174134852759E+02
 -0.170117108775E+02
 -0.174049660690E+02
 -0.172171650918E+02
 -0.172866651094E+02
 -0.172289251663E+02
 -0.173306447546E+02
 -0.173259977351E+02
 -0.174678933422E+02
 -0.172532887608E+02
 -0.176073686544E+02
 -0.172948222876E+02
 -0.176960961785E+02
 -0.175327662431E+02
 -0.175771779253E+02
 -0.175080636887E+02
 -0.177262297673E+02
 -0.176063910564E+02
 -0.176758909593E+02
 -0.175764142544E+02
 -0.177665180141E+02
 -0.176378514693E+02
 -0.179397922093E+02
 -0.177531321938E+02
 -0.178548516378E+02
 -0.178668279984E+02
 -0.179112396947E+02
 -0.180310474210E+02
 -0.180562700427E+02
 -0.180224659755E+02
 -0.181643613901E+02
 -0.180587542672E+02
 -0.181282540229E+02
 -0.179227977930E+02
 -0.182923085047E+02
 -0.180740957065E+02
 -0.183188935367E+02
 -0.181018301585E+02
 -0.183763997133E+02
 -0.182560558457E+02
 -0.183004673960E+02
 -0.183651091883E+02
 -0.183903317705E+02
 -0.183585424840E+02
 -0.184602617370E+02
 -0.184072276184E+02
 -0.184179936817E+02
 -0.184852097249E+02
 -0.186753132537E+02
 -0.185829613053E+02
 -0.186524608744E+02
 -0.186878539902E+02
 -0.187084171906E+02
 -0.187528285534E+02
 -0.187329924618E+02
 -0.187412912703E+02
 -0.187520572544E+02
 -0.187543351673E+02
 -0.187795575708E+02
 -0.185842513233E+02
 -0.189775061777E+02
 -0.186862030822E+02
 -0.190402826896E+02
 -0.188358231217E+02
 -0.189206338878E+02
 -0.188200926322E+02
 -0.189619878115E+02
 -0.187102876659E+02
 -0.191218920362E+02
 -0.190219165822E+02
 -0.188827465158E+02
 -0.192084172933E+02
 -0.189315543015E+02
 -0.192334947781E+02
 -0.190550088618E+02
 -0.191567278716E+02
 -0.191305172543E+02
 -0.191412830379E+02
 -0.191199198434E+02
 -0.192774322353E+02
 -0.192066983956E+02
 -0.192319205809E+02
 -0.191883716091E+02
 -0.192578709372E+02
 -0.192326242402E+02
 -0.192770353735E+02
 -0.191305618985E+02
 -0.195318355545E+02
 -0.192324253960E+02
 -0.194772229434E+02
 -0.194111420968E+02
 -0.195828804867E+02
 -0.195936460344E+02
 -0.195146235075E+02
 -0.197047267513E+02
 -0.195524593064E+02
 -0.197706252450E+02
 -0.197309054518E+02
 -0.197561273805E+02
 -0.197288900015E+02
 -0.198707848795E+02
 -0.198380345511E+02
 -0.198824454113E+02
 -0.198635047843E+02
 -0.198526374136E+02
 -0.199543561261E+02
 -0.198848379978E+02
 -0.199543370393E+02
 -0.198722275786E+02
 -0.202417381595E+02
 -0.201070875478E+02
 -0.201178528215E+02
 -0.201462275710E+02
 -0.204207970171E+02
 -0.203363157697E+02
 -0.203615374000E+02
 -0.203877112203E+02
 -0.202587453543E+02
 -0.206128246654E+02
 -0.202926601343E+02
 -0.206859147592E+02
 -0.203644686033E+02
 -0.206664088068E+02
 -0.205345028259E+02
 -0.205789133642E+02
 -0.205261282326E+02
 -0.207709254767E+02
 -0.206824665570E+02
 -0.207519652675E+02
 -0.207124978695E+02
 -0.207232628316E+02
 -0.205460272138E+02
 -0.209576313496E+02
 -0.206729532097E+02
 -0.208630561199E+02
 -0.207614347905E+02
 -0.208631531646E+02
 -0.207583037956E+02
 -0.209001983420E+02
 -0.208490218547E+02
 -0.209931208344E+02
 -0.209518525170E+02
 -0.210366632112E+02
 -0.210327821733E+02
 -0.210580034633E+02
 -0.209271457458E+02
 -0.212528164304E+02
 -0.210799916329E+02
 -0.214812651568E+02
 -0.212359491356E+02
 -0.213934614520E+02
 -0.213321313940E+02
 -0.213765415712E+02
 -0.214089642767E+02
 -0.214197288870E+02
 -0.215912658242E+02
 -0.216607641518E+02
 -0.216895883249E+02
 -0.216684903915E+02
 -0.218866562779E+02
 -0.217908486019E+02
 -0.218925665908E+02
 -0.218304126231E+02
 -0.218556335341E+02
 -0.219166335084E+02
 -0.220585276788E+02
 -0.219666560579E+02
 -0.221567586173E+02
 -0.219590444243E+02
 -0.222038413363E+02
 -0.219370127324E+02
 -0.222389526483E+02
 -0.219166248705E+02
 -0.222861353988E+02
 -0.219671541428E+02
 -0.223212332083E+02
 -0.222065947307E+02
 -0.222173589503E+02
 -0.222409306669E+02
 -0.222853404408E+02
 -0.221284015058E+02
 -0.225216558983E+02
 -0.222622567276E+02
 -0.225368261349E+02
 -0.224872160261E+02
 -0.226206796435E+02
 -0.226901775577E+02
 -0.224954568936E+02
 -0.229070608976E+02
 -0.227392100262E+02
 -0.227644305164E+02
 -0.229491802013E+02
 -0.230508977770E+02
 -0.230096382541E+02
 -0.231153921361E+02
 -0.231261559279E+02
 -0.231124708075E+02
 -0.231972814936E+02
 -0.230431748369E+02
 -0.233688455432E+02
 -0.232103382472E+02
 -0.233522320189E+02
 -0.232703444963E+02
 -0.233147538295E+02
 -0.231243907385E+02
 -0.235256642518E+02
 -0.233960143509E+02
 -0.233965673614E+02
 -0.235540796914E+02
 -0.233995741359E+02
 -0.235896763200E+02
 -0.235315885554E+02
 -0.237763851452E+02
 -0.237686238589E+02
 -0.237938438981E+02
 -0.236454215135E+02
 -0.239473611689E+02
 -0.237790093792E+02
 -0.238485068459E+02
 -0.238291085643E+02
 -0.240472744970E+02
 -0.238028954879E+02
 -0.241569743137E+02
 -0.241448078492E+02
 -0.241555711793E+02
 -0.240326576746E+02
 -0.244021682442E+02
 -0.240778330162E+02
 -0.244710872787E+02
 -0.242428849551E+02
 -0.243446020894E+02
 -0.244254271598E+02
 -0.244286742388E+02
 -0.244730831058E+02
 -0.244228748575E+02
 -0.246974443499E+02
 -0.246432563386E+02
 -0.247851496922E+02
 -0.245398578315E+02
 -0.249514618252E+02
 -0.249269554845E+02
 -0.249521750407E+02
 -0.249721182763E+02
 -0.251622200992E+02
 -0.250727141447E+02
 -0.251422111396E+02
 -0.251853976158E+02
 -0.253031376017E+02
 -0.253139004417E+02
 -0.252882301951E+02
 -0.253730409403E+02
 -0.252399992250E+02
 -0.254847955008E+02
 -0.252037948148E+02
 -0.255294656257E+02
 -0.252404235140E+02
 -0.256416970677E+02
 -0.255837577022E+02
 -0.254811647072E+02
 -0.257831041505E+02
 -0.255723248434E+02
 -0.257298372918E+02
 -0.256758030607E+02
 -0.257775197387E+02
 -0.257223808867E+02
 -0.257667892654E+02
 -0.257523288555E+02
 -0.261064075329E+02
 -0.260048679061E+02
 -0.262230339894E+02
 -0.262206621376E+02
 -0.262458811930E+02
 -0.262158004970E+02
 -0.263576934402E+02
 -0.261222339394E+02
 -0.265154881498E+02
 -0.261932776165E+02
 -0.265627883327E+02
 -0.265056322584E+02
 -0.265751287752E+02
 -0.265968442587E+02
 -0.266076065892E+02
 -0.265986360430E+02
 -0.268732057506E+02
 -0.266805289545E+02
 -0.268706304282E+02
 -0.266558905552E+02
 -0.270674946325E+02
 -0.268774632352E+02
 -0.271552990091E+02
 -0.271997068896E+02
 -0.270757424310E+02
 -0.273205384438E+02
 -0.272483472324E+02
 -0.273500634655E+02
 -0.273460135779E+02
 -0.274488480664E+02
 -0.275336589381E+02
 -0.273795541137E+02
 -0.277052251612E+02
 -0.274305980711E+02
 -0.277325373508E+02
 -0.274010434197E+02
 -0.278023171627E+02
 -0.276535802653E+02
 -0.276787988107E+02
 -0.277329427311E+02
 -0.278904553810E+02
 -0.277967316446E+02
 -0.281508102416E+02
 -0.279242130683E+02
 -0.280661056170E+02
 -0.280297623901E+02
 -0.280405242028E+02
 -0.280781783166E+02
 -0.281476743638E+02
 -0.281654858039E+02
 -0.283836521421E+02
 -0.283103802307E+02
 -0.282382685352E+02
 -0.286315227871E+02
 -0.283690369045E+02
 -0.287385478789E+02
 -0.285162740558E+02
 -0.287063752127E+02
 -0.287278450757E+02
 -0.287722524680E+02
 -0.287592539407E+02
 -0.290338239504E+02
 -0.289567598110E+02
 -0.290584756288E+02
 -0.288165123427E+02
 -0.292281165663E+02
 -0.290251776843E+02
 -0.292699734845E+02
 -0.292261263382E+02
 -0.292513443818E+02
 -0.294620421200E+02
 -0.295648747699E+02
 -0.296496858318E+02
 -0.296023103436E+02
 -0.296130716448E+02
 -0.294750027355E+02
 -0.297769419203E+02
 -0.295401738830E+02
 -0.298658452777E+02
 -0.295768045838E+02
 -0.299780785849E+02
 -0.297865927866E+02
 -0.298560883849E+02
 -0.297599581809E+02
 -0.299018503814E+02
 -0.298829270695E+02
 -0.298489713652E+02
 -0.300064843057E+02
 -0.299127662288E+02
 -0.302668448524E+02
 -0.302815144781E+02
 -0.304996811696E+02
 -0.304362595539E+02
 -0.304806664799E+02
 -0.304657093173E+02
 -0.306558102324E+02
 -0.303988902883E+02
 -0.307921447300E+02
 -0.305296566776E+02
 -0.308991680216E+02
 -0.307925068171E+02
 -0.308942222469E+02
 -0.309345408212E+02
 -0.309597583882E+02
 -0.308752826352E+02
 -0.311498530494E+02
 -0.310695823528E+02
 -0.313143780324E+02
 -0.309922753613E+02
 -0.314038798861E+02
 -0.313107229562E+02
 -0.313214837695E+02
 -0.315064386534E+02
 -0.315913405024E+02
 -0.316092713416E+02
 -0.316940826505E+02
 -0.316223397996E+02
 -0.316918349942E+02
 -0.315910373231E+02
 -0.318929765202E+02
 -0.317093953401E+02
 -0.318512872485E+02
 -0.316562025892E+02
 -0.319818744355E+02
 -0.317374243500E+02
 -0.321386987642E+02
 -0.318933699017E+02
 -0.320508832121E+02
 -0.320733898882E+02
 -0.324274686157E+02
 -0.322720047001E+02
 -0.323164112032E+02
 -0.323259093294E+02
 -0.325440764622E+02
 -0.325101140051E+02
 -0.327002147511E+02
 -0.325746552043E+02
 -0.329679099042E+02
 -0.327702859748E+02
 -0.327955031037E+02
 -0.327419421121E+02
 -0.328436572226E+02
 -0.326456891533E+02
 -0.330152009725E+02
 -0.329196794115E+02
 -0.331942503000E+02
 -0.331464699897E+02
 -0.331572303571E+02
 -0.331856188331E+02
 -0.334304144792E+02
 -0.331528951431E+02
 -0.335645000810E+02
 -0.334270865801E+02
 -0.334558637240E+02
 -0.335586964509E+02
 -0.336435080488E+02
 -0.335717769826E+02
 -0.336412718326E+02
 -0.337538000440E+02
 -0.338956917458E+02
 -0.337006031437E+02
 -0.340262755131E+02
 -0.337516647321E+02
 -0.340536040395E+02
 -0.338427951312E+02
 -0.340003088667E+02
 -0.338534587302E+02
 -0.342547336203E+02
 -0.342214418908E+02
 -0.342658480336E+02
 -0.342753383945E+02
 -0.344935060419E+02
 -0.342491566879E+02
 -0.346032356476E+02
 -0.346261523814E+02
 -0.348162530474E+02
 -0.347197269248E+02
 -0.347449436786E+02
 -0.347863505796E+02
 -0.348880654581E+02
 -0.346900859749E+02
 -0.350595983629E+02
 -0.347352787512E+02
 -0.351285338637E+02
 -0.348691085408E+02
 -0.351436799798E+02
 -0.350959109447E+02
 -0.351066709269E+02
 -0.352915985034E+02
 -0.353765229688E+02
 -0.353944312648E+02
 -0.354792431881E+02
 -0.353462462611E+02
 -0.355910419731E+02
 -0.352689295322E+02
 -0.356805349889E+02
 -0.356161854644E+02
 -0.356856800529E+02
 -0.356785300871E+02
 -0.358360442986E+02
 -0.356500285700E+02
 -0.359757015185E+02
 -0.358698384363E+02
 -0.360117300226E+02
 -0.359274277936E+02
 -0.362293673159E+02
 -0.358978555711E+02
 -0.362991310742E+02
 -0.361110734619E+02
 -0.363292416585E+02
 -0.362658503828E+02
 -0.363102562436E+02
 -0.364097802730E+02
 -0.367638595735E+02
 -0.367641354226E+02
 -0.367893518827E+02
 -0.366395151933E+02
 -0.370090281853E+02
 -0.367048436734E+02
 -0.369794157212E+02
 -0.367867798300E+02
 -0.369768805172E+02
 -0.369023889885E+02
 -0.370041037168E+02
 -0.370000006575E+02
 -0.368513094350E+02
 -0.372445650225E+02
 -0.371028372021E+02
 -0.371876494702E+02
 -0.371403194485E+02
 -0.371510791251E+02
 -0.374209308387E+02
 -0.373869324266E+02
 -0.375444471488E+02
 -0.373133301902E+02
 -0.377249362167E+02
 -0.375220130963E+02
 -0.377668089801E+02
 -0.374857675021E+02
 -0.378114411105E+02
 -0.377322238820E+02
 -0.378017183024E+02
 -0.378194759357E+02
 -0.380376446983E+02
 -0.378472848191E+02
 -0.382485609707E+02
 -0.380304696477E+02
 -0.381723612321E+02
 -0.380880551508E+02
 -0.383899949926E+02
 -0.383818925622E+02
 -0.384262982351E+02
 -0.384132462202E+02
 -0.386878188951E+02
 -0.385725381116E+02
 -0.384752541841E+02
 -0.388447678399E+02
 -0.385258147446E+02
 -0.388798944681E+02
 -0.386753709310E+02
 -0.387601835523E+02
 -0.388801776091E+02
 -0.389053938673E+02
 -0.389594700785E+02
 -0.391169853090E+02
 -0.389625504388E+02
 -0.391526512547E+02
 -0.388957138813E+02
 -0.392889700373E+02
 -0.390630202163E+02
 -0.391647349092E+02
 -0.392563616395E+02
 -0.392671211052E+02
 -0.391941701137E+02
 -0.395198443795E+02
 -0.392627594928E+02
 -0.396743661673E+02
 -0.393920137068E+02
 -0.396101830781E+02
 -0.395369726086E+02
 -0.396826404776E+02
 -0.399274366388E+02
 -0.396830238691E+02
 -0.400843006859E+02
 -0.398928551235E+02
 -0.399623494809E+02
 -0.400054476141E+02
 -0.399857840797E+02
 -0.402603574034E+02
 -0.401082804561E+02
 -0.401930934287E+02
 -0.402062365205E+02
 -0.403481282015E+02
 -0.402040896381E+02
 -0.405060298974E+02
 -0.401836568385E+02
 -0.405531711985E+02
 -0.403923797738E+02
 -0.405498955174E+02