# vtk DataFile Version 3.0
TriPan results file. Generated by TriPan, USU AeroLab (c) 2021.
ASCII
DATASET POLYDATA
POINTS                  50 float
  0.190003013611E+02  0.000000000000E+00  0.000000000000E+00
  0.989763129761E+02  0.000000000000E+00  0.146783448745E+02
  0.195801982880E+02  0.579897820950E+00  0.000000000000E+00
  0.989952101711E+02  0.579897820950E+00  0.145753821564E+02
  0.203216114044E+02  0.132131123543E+01  0.000000000000E+00
  0.990193707203E+02  0.132131123543E+01  0.144437416765E+02
  0.212622661591E+02  0.226196575165E+01  0.000000000000E+00
  0.990500239889E+02  0.226196575165E+01  0.142767251502E+02
  0.224441299438E+02  0.344382953644E+01  0.000000000000E+00
  0.990885375753E+02  0.344382953644E+01  0.140668811209E+02
  0.239110069275E+02  0.491070652008E+01  0.000000000000E+00
  0.991363389329E+02  0.491070652008E+01  0.138064320060E+02
  0.257042465210E+02  0.670394468307E+01  0.000000000000E+00
  0.991947755217E+02  0.670394468307E+01  0.134880360735E+02
  0.278562793732E+02  0.885597801208E+01  0.000000000000E+00
  0.992649041645E+02  0.885597801208E+01  0.131059351490E+02
  0.303823032379E+02  0.113820018768E+02  0.000000000000E+00
  0.993472201129E+02  0.113820018768E+02  0.126574308182E+02
  0.332713356018E+02  0.142710342407E+02  0.000000000000E+00
  0.994413654780E+02  0.142710342407E+02  0.121444730646E+02
  0.364790649414E+02  0.174787635803E+02  0.000000000000E+00
  0.995458962730E+02  0.174787635803E+02  0.115749295536E+02
  0.399255523682E+02  0.209252490997E+02  0.000000000000E+00
  0.996582075164E+02  0.209252490997E+02  0.109629937131E+02
  0.435003013611E+02  0.245000000000E+02  0.000000000000E+00
  0.997746984402E+02  0.245000000000E+02  0.103282845850E+02
  0.470750503540E+02  0.280747509003E+02  0.000000000000E+00
  0.998911893641E+02  0.280747509003E+02  0.969357545685E+01
  0.505215377808E+02  0.315212364197E+02  0.000000000000E+00
  0.100003500607E+03  0.315212364197E+02  0.908163961629E+01
  0.537292671204E+02  0.347289657593E+02  0.000000000000E+00
  0.100108031402E+03  0.347289657593E+02  0.851209610529E+01
  0.566182975769E+02  0.376179962158E+02  0.000000000000E+00
  0.100202176705E+03  0.376179962158E+02  0.799913869043E+01
  0.591443214417E+02  0.401440200806E+02  0.000000000000E+00
  0.100284492654E+03  0.401440200806E+02  0.755063435963E+01
  0.612963562012E+02  0.422960548401E+02  0.000000000000E+00
  0.100354621359E+03  0.422960548401E+02  0.716853309641E+01
  0.630895957947E+02  0.440892944336E+02  0.000000000000E+00
  0.100413057948E+03  0.440892944336E+02  0.685013716395E+01
  0.645564727783E+02  0.455561714172E+02  0.000000000000E+00
  0.100460859305E+03  0.455561714172E+02  0.658968804901E+01
  0.657383346558E+02  0.467380332947E+02  0.000000000000E+00
  0.100499372829E+03  0.467380332947E+02  0.637984435836E+01
  0.666789932251E+02  0.476786880493E+02  0.000000000000E+00
  0.100530026222E+03  0.476786880493E+02  0.621282715476E+01
  0.674204025269E+02  0.484201011658E+02  0.000000000000E+00
  0.100554186647E+03  0.484201011658E+02  0.608118735223E+01
  0.680002975464E+02  0.490000000000E+02  0.000000000000E+00
  0.100573083780E+03  0.490000000000E+02  0.597822497278E+01
POLYGONS                  48                 192
3                   0                   1                   3
3                   0                   3                   2
3                   2                   3                   5
3                   2                   5                   4
3                   4                   5                   7
3                   4                   7                   6
3                   6                   7                   9
3                   6                   9                   8
3                   8                   9                  11
3                   8                  11                  10
3                  10                  11                  13
3                  10                  13                  12
3                  12                  13                  15
3                  12                  15                  14
3                  14                  15                  17
3                  14                  17                  16
3                  16                  17                  19
3                  16                  19                  18
3                  18                  19                  21
3                  18                  21                  20
3                  20                  21                  23
3                  20                  23                  22
3                  22                  23                  25
3                  22                  25                  24
3                  24                  25                  27
3                  24                  27                  26
3                  26                  27                  29
3                  26                  29                  28
3                  28                  29                  31
3                  28                  31                  30
3                  30                  31                  33
3                  30                  33                  32
3                  32                  33                  35
3                  32                  35                  34
3                  34                  35                  37
3                  34                  37                  36
3                  36                  37                  39
3                  36                  39                  38
3                  38                  39                  41
3                  38                  41                  40
3                  40                  41                  43
3                  40                  43                  42
3                  42                  43                  45
3                  42                  45                  44
3                  44                  45                  47
3                  44                  47                  46
3                  46                  47                  49
3                  46                  49                  48
POINT_DATA                  50
SCALARS mu float 1
LOOKUP_TABLE default
 -0.126043126590E-02
 -0.126043126590E-02
 -0.126179526521E-03
 -0.126179526521E-03
 -0.129068335635E-03
 -0.129068335635E-03
 -0.144773063806E-03
 -0.144773063806E-03
 -0.166494500011E-03
 -0.166494500011E-03
 -0.192753259405E-03
 -0.192753259405E-03
 -0.222337412985E-03
 -0.222337412985E-03
 -0.253422895351E-03
 -0.253422895351E-03
 -0.283622033308E-03
 -0.283622033308E-03
 -0.311031828147E-03
 -0.311031828147E-03
 -0.331646627735E-03
 -0.331646627735E-03
 -0.343653760112E-03
 -0.343653760112E-03
 -0.343858248932E-03
 -0.343858248932E-03
 -0.333113967265E-03
 -0.333113967265E-03
 -0.311132200672E-03
 -0.311132200672E-03
 -0.279771238112E-03
 -0.279771238112E-03
 -0.242058483416E-03
 -0.242058483416E-03
 -0.200189041912E-03
 -0.200189041912E-03
 -0.160497461337E-03
 -0.160497461337E-03
 -0.121538682933E-03
 -0.121538682933E-03
 -0.890887545921E-04
 -0.890887545921E-04
 -0.621399311314E-04
 -0.621399311314E-04
 -0.347098013549E-04
 -0.347098013549E-04
 -0.204113648869E-02
 -0.204113648869E-02
  0.000000000000E+00
  0.000000000000E+00
