# vtk DataFile Version 3.0
TriPan results file. Generated by TriPan, USU AeroLab (c) 2021.
ASCII
DATASET POLYDATA
POINTS                 144 float
      0.000028397499      0.000000000000      0.000000000000
      0.751004003423      0.000000000000     -0.543756807810
      0.751004003423      0.000000000000      0.543756807810
      1.923780686648      1.923726790152      0.000000000000
      2.674761043824      1.923739446366     -0.543755647857
      2.674761043824      1.923739446366      0.543755647857
      3.592467209784      0.000000000000     -1.038789913751
      3.592467209784      0.000000000000      1.038789913751
      5.470374549967      5.470288787732      0.000000000000
      5.516222831521      1.923749092299     -1.038787409669
      5.516222831521      1.923749092299      1.038787409669
      6.221346387400      5.470310202099     -0.543737902761
      6.221346387400      5.470310202099      0.543737902761
      9.062802845447      5.470325416112     -1.038767514440
      9.062802845447      5.470325416112      1.038767514440
      9.395234437212      0.000000000000     -0.980714520316
      9.395234437212      0.000000000000      0.980714520316
     11.318987578520      1.923756867280     -0.980703476062
     11.318987578520      1.923756867280      0.980703476062
     11.382062614187     11.381941139418      0.000000000000
     12.133025813643     11.381971668658     -0.543716282813
     12.133025813643     11.381971668658      0.543716282813
     14.865564285058      5.470335544792     -0.980689658068
     14.865564285058      5.470335544792      0.980689658068
     14.974474550934     11.381993649766     -1.038743066446
     14.974474550934     11.381993649766      1.038743066446
     15.176525652164      0.000000000000     -0.411027830800
     15.176525652164      0.000000000000      0.411027830800
     17.100280304065      1.923758010735     -0.411028060916
     17.100280304065      1.923758010735      0.411028060916
     18.049323275770      0.000000000000     -0.101491967928
     18.049323275770      0.000000000000      0.101491967928
     19.000279552993     -0.000000173176     -0.000001622254
     19.756266437384     19.756123699412     -0.000000000000
     19.973076305880      1.923757113920     -0.101485325227
     19.973076305880      1.923757113920      0.101485325227
     20.507223590325     19.756158367676     -0.543700224901
     20.507223590325     19.756158367676      0.543700224901
     20.646856109986      5.470337588864     -0.411012086126
     20.646856109986      5.470337588864      0.411012086126
     20.777233817560     11.382006905041     -0.980668344648
     20.777233817560     11.382006905041      0.980668344648
     20.924031459418      1.923777378485     -0.000002495144
     23.348669216043     19.756185367758     -1.038724818479
     23.348669216043     19.756185367758      1.038724818479
     23.519653546178      5.470337165072     -0.101465552106
     23.519653546178      5.470337165072      0.101465552106
     24.470593166627      5.470371055319     -0.000004157132
     26.558524417934     11.382010173665     -0.410989041801
     26.558524417934     11.382010173665      0.410989041801
     29.151425897771     19.756201208029     -0.980647787928
     29.151425897771     19.756201208029      0.980647787928
     29.243872224868     29.243737638327     -0.000000000000
     29.431319695365     11.382010001233     -0.101441046993
     29.431319695365     11.382010001233      0.101441046993
     29.994835369323     29.243768222572     -0.543700204348
     29.994835369323     29.243768222572      0.543700204348
     30.382246194698     11.382058919999     -0.000006020750
     32.836279083737     29.243795226563     -1.038724764095
     32.836279083737     29.243795226563      1.038724764095
     34.932713860144     19.756205207255     -0.410971183139
     34.932713860144     19.756205207255      0.410971183139
     37.618047947553     37.617944484047     -0.000000000000
     37.805509020754     19.756205151647     -0.101422783182
     37.805509020754     19.756205151647      0.101422783182
     38.369022086716     37.617965980881     -0.543716216531
     38.369022086716     37.617965980881      0.543716216531
     38.639035469813     29.243811362387     -0.980642402552
     38.639035469813     29.243811362387      0.980642402552
     38.756428872847     19.756262624962     -0.000007130405
     41.210468902763     37.617987975836     -1.038742906392
     41.210468902763     37.617987975836      1.038742906392
     43.529701160056     43.529632641156     -0.000000000000
     44.280684051316     43.529645385893     -0.543737784041
     44.280684051316     43.529645385893      0.543737784041
     44.420323699344     29.243815094558     -0.410970949423
     44.420323699344     29.243815094558      0.410970949423
     47.013227544969     37.618001855632     -0.980657032378
     47.013227544969     37.618001855632      0.980657032378
     47.076269259646     47.076227078154     -0.000000000000
     47.122137619367     43.529660628936     -1.038767280115
     47.122137619367     43.529660628936      1.038767280115
     47.293122693618     29.243815019984     -0.101422735367
     47.293122693618     29.243815019984      0.101422735367
     47.827254345683     47.076233813420     -0.543755490933
     47.827254345683     47.076233813420      0.543755490933
     48.244042766665     29.243868457635     -0.000006704995
     49.000008314225     48.999986825687      0.000000000000
     49.751000327723     48.999987248537     -0.543770195482
     49.751000327723     48.999987248537      0.543770195482
     50.135518504759     49.384501050361     -0.384508545247
     50.135518504759     49.384501050361      0.384508545247
     50.294788772472     49.543777719684     -0.000000000000
     50.668713465591     47.076243504610     -1.038787184479
     50.668713465591     47.076243504610      1.038787184479
     52.592467902382     48.999988091479     -1.038802353115
     52.592467902382     48.999988091479      1.038802353115
     52.794520565961     37.618004611040     -0.410988088012
     52.794520565961     37.618004611040      0.410988088012
     52.924899516098     43.529671254100     -0.980680824889
     52.924899516098     43.529671254100      0.980680824889
     53.327040570085     49.734545232153     -0.734549052689
     53.327040570085     49.734545232153      0.734549052689
     53.631312657812     50.038812258594     -0.000000000000
     55.667315921734     37.618004360266     -0.101440860275
     55.667315921734     37.618004360266      0.101440860275
     56.471478004634     47.076251487465     -0.980699967529
     56.471478004634     47.076251487465      0.980699967529
     56.618249438410     37.618044354290     -0.000005080882
     58.395234227284     48.999996041264     -0.980710857954
     58.395234227284     48.999996041264      0.980710857954
     58.706193478823     43.529673067774     -0.411009689809
     58.706193478823     43.529673067774      0.411009689809
     59.088738748868     49.693478495065     -0.693465964062
     59.088738748868     49.693478495065      0.693465964062
     59.375996599101     49.980714325856     -0.000000000000
     61.578989198221     43.529672453376     -0.101465024805
     61.578989198221     43.529672453376      0.101465024805
     62.252772532825     47.076252735674     -0.411025206224
     62.252772532825     47.076252735674      0.411025206224
     62.529937391878     43.529697770400     -0.000003258222
     64.176525343615     48.999996532423     -0.411034716490
     64.176525343615     48.999996532423      0.411034716490
     64.467197876621     49.290648559699     -0.290647259627
     64.467197876621     49.290648559699      0.290647259627
     64.587597809354     49.411043175230      0.000000000000
     65.125568677040     47.076251696458     -0.101483907665
     65.125568677040     47.076251696458      0.101483907665
     66.076527813066     47.076266071128     -0.000001889530
     67.049321810012     48.999998011376     -0.101496046413
     67.049321810012     48.999998011376      0.101496046413
     67.121107408942     49.071775036429     -0.071773676047
     67.121107408942     49.071775036429      0.071773676047
     67.150839577209     49.101506884045     -0.000000000000
     68.000293849346     48.999987215840      0.000000000000
     20.924031459418      1.923777378485      0.000002495144
     19.000279552993     -0.000000173176      0.000001622254
     24.470593166627      5.470371055319      0.000004157132
     30.382246194698     11.382058919999      0.000006020750
     38.756428872847     19.756262624962      0.000007130405
     48.244042766665     29.243868457635      0.000006704995
     56.618249438410     37.618044354290      0.000005080882
     62.529937391878     43.529697770400      0.000003258222
     66.076527813066     47.076266071128      0.000001889530
VERTICES                 144                 288
1                   0
1                   1
1                   2
1                   3
1                   4
1                   5
1                   6
1                   7
1                   8
1                   9
1                  10
1                  11
1                  12
1                  13
1                  14
1                  15
1                  16
1                  17
1                  18
1                  19
1                  20
1                  21
1                  22
1                  23
1                  24
1                  25
1                  26
1                  27
1                  28
1                  29
1                  30
1                  31
1                  32
1                  33
1                  34
1                  35
1                  36
1                  37
1                  38
1                  39
1                  40
1                  41
1                  42
1                  43
1                  44
1                  45
1                  46
1                  47
1                  48
1                  49
1                  50
1                  51
1                  52
1                  53
1                  54
1                  55
1                  56
1                  57
1                  58
1                  59
1                  60
1                  61
1                  62
1                  63
1                  64
1                  65
1                  66
1                  67
1                  68
1                  69
1                  70
1                  71
1                  72
1                  73
1                  74
1                  75
1                  76
1                  77
1                  78
1                  79
1                  80
1                  81
1                  82
1                  83
1                  84
1                  85
1                  86
1                  87
1                  88
1                  89
1                  90
1                  91
1                  92
1                  93
1                  94
1                  95
1                  96
1                  97
1                  98
1                  99
1                 100
1                 101
1                 102
1                 103
1                 104
1                 105
1                 106
1                 107
1                 108
1                 109
1                 110
1                 111
1                 112
1                 113
1                 114
1                 115
1                 116
1                 117
1                 118
1                 119
1                 120
1                 121
1                 122
1                 123
1                 124
1                 125
1                 126
1                 127
1                 128
1                 129
1                 130
1                 131
1                 132
1                 133
1                 134
1                 135
1                 136
1                 137
1                 138
1                 139
1                 140
1                 141
1                 142
1                 143
POINT_DATA                 144
SCALARS phi float 1
LOOKUP_TABLE default
     -0.000027912905
     -0.638163583116
     -0.838213181519
     -1.890952040917
     -2.529092594676
     -2.729141766329
     -3.340076203520
     -3.722249818795
     -5.377024518250
     -5.231004067880
     -5.613176761896
     -6.015159961887
     -6.215202605072
     -8.717066591910
     -9.099231966417
     -9.054504281305
     -9.415311802460
    -10.945431278540
    -11.306234736484
    -11.187831689718
    -11.825962619801
    -12.025997308948
    -14.431489433705
    -14.792287807972
    -14.527862181041
    -14.910018561065
    -14.841934416172
    -14.993152665402
    -16.732860824287
    -16.884079158177
    -17.722648291405
    -17.759987460558
    -18.676046117944
    -19.419132648521
    -19.613574369668
    -19.650911094954
    -20.057260589145
    -20.257289370543
    -20.218918490949
    -20.370130947671
    -20.242282310324
    -20.603072843326
    -20.566969709194
    -22.759157494774
    -23.141307161323
    -23.099634144939
    -23.136963595640
    -24.053010273425
    -26.029710482313
    -26.180914460966
    -28.473575507968
    -28.834358478097
    -28.744835755836
    -28.910424283094
    -28.947744718298
    -29.382969589510
    -29.582998363347
    -29.863782663808
    -32.084864622675
    -32.467014269215
    -34.261000590661
    -34.412197999064
    -36.976109093653
    -37.141714351142
    -37.179028067040
    -37.614250788953
    -37.814285453714
    -37.799283325905
    -38.160064314740
    -38.095062634274
    -40.316148478984
    -40.698304800125
    -42.786882008135
    -43.425028338808
    -43.625070938315
    -43.586707723542
    -43.737905045960
    -46.030570045967
    -46.391356417155
    -46.272929161389
    -46.126932149416
    -46.509097437715
    -46.467425218070
    -46.504738916377
    -46.911074392178
    -47.111123506099
    -47.420773787845
    -48.163840280673
    -48.801989615788
    -49.002044139551
    -49.209242520049
    -49.350704252490
    -49.436525762473
    -49.612983255675
    -49.995155866843
    -51.503906704389
    -51.886084896140
    -51.817998691811
    -51.969202319562
    -51.841357022303
    -52.202152146820
    -52.281911951536
    -52.552154532203
    -52.716113032656
    -54.698712428493
    -54.736032795003
    -55.327410865904
    -55.688213033050
    -55.652077845345
    -57.218336856984
    -57.579143030747
    -57.628786996793
    -57.779998571904
    -57.952846052233
    -58.207974053619
    -58.362765948240
    -60.509500619477
    -60.546829876183
    -61.114842063259
    -61.266059346901
    -61.462885243231
    -63.005764954584
    -63.156985737079
    -63.313622697590
    -63.420552609510
    -63.485433003468
    -63.995555484250
    -64.032891688010
    -64.948954588945
    -65.886478208746
    -65.923818878384
    -65.962506281666
    -65.988912010960
    -66.004933945510
    -66.839892577079
    -20.566970627164
    -18.676046714776
    -24.053011802845
    -29.863784878859
    -38.095065257569
    -47.420776254630
    -55.652079714616
    -61.462886441940
    -64.948955284108
SCALARS phi_mu float 1
LOOKUP_TABLE default
     -0.000027912905
     -0.638163583116
     -0.838213181519
     -1.890952040917
     -2.529092594676
     -2.729141766329
     -3.340076203520
     -3.722249818795
     -5.377024518250
     -5.231004067880
     -5.613176761896
     -6.015159961887
     -6.215202605072
     -8.717066591910
     -9.099231966417
     -9.054504281305
     -9.415311802460
    -10.945431278540
    -11.306234736484
    -11.187831689718
    -11.825962619801
    -12.025997308948
    -14.431489433705
    -14.792287807972
    -14.527862181041
    -14.910018561065
    -14.841934416172
    -14.993152665402
    -16.732860824287
    -16.884079158177
    -17.722648291405
    -17.759987460558
    -18.676046117944
    -19.419132648521
    -19.613574369668
    -19.650911094954
    -20.057260589145
    -20.257289370543
    -20.218918490949
    -20.370130947671
    -20.242282310324
    -20.603072843326
    -20.566969709194
    -22.759157494774
    -23.141307161323
    -23.099634144939
    -23.136963595640
    -24.053010273425
    -26.029710482313
    -26.180914460966
    -28.473575507968
    -28.834358478097
    -28.744835755836
    -28.910424283094
    -28.947744718298
    -29.382969589510
    -29.582998363347
    -29.863782663808
    -32.084864622675
    -32.467014269215
    -34.261000590661
    -34.412197999064
    -36.976109093653
    -37.141714351142
    -37.179028067040
    -37.614250788953
    -37.814285453714
    -37.799283325905
    -38.160064314740
    -38.095062634274
    -40.316148478984
    -40.698304800125
    -42.786882008135
    -43.425028338808
    -43.625070938315
    -43.586707723542
    -43.737905045960
    -46.030570045967
    -46.391356417155
    -46.272929161389
    -46.126932149416
    -46.509097437715
    -46.467425218070
    -46.504738916377
    -46.911074392178
    -47.111123506099
    -47.420773787845
    -48.163840280673
    -48.801989615788
    -49.002044139551
    -49.209242520049
    -49.350704252490
    -49.436525762473
    -49.612983255675
    -49.995155866843
    -51.503906704389
    -51.886084896140
    -51.817998691811
    -51.969202319562
    -51.841357022303
    -52.202152146820
    -52.281911951536
    -52.552154532203
    -52.716113032656
    -54.698712428493
    -54.736032795003
    -55.327410865904
    -55.688213033050
    -55.652077845345
    -57.218336856984
    -57.579143030747
    -57.628786996793
    -57.779998571904
    -57.952846052233
    -58.207974053619
    -58.362765948240
    -60.509500619477
    -60.546829876183
    -61.114842063259
    -61.266059346901
    -61.462885243231
    -63.005764954584
    -63.156985737079
    -63.313622697590
    -63.420552609510
    -63.485433003468
    -63.995555484250
    -64.032891688010
    -64.948954588945
    -65.886478208746
    -65.923818878384
    -65.962506281666
    -65.988912010960
    -66.004933945510
    -66.839892577079
    -20.566970627164
    -18.676046714776
    -24.053011802845
    -29.863784878859
    -38.095065257569
    -47.420776254630
    -55.652079714616
    -61.462886441940
    -64.948955284108
SCALARS phi_sigma float 1
LOOKUP_TABLE default
      0.000000000000
      0.000000000000
      0.000000000000
      0.000000000000
      0.000000000000
      0.000000000000
      0.000000000000
      0.000000000000
      0.000000000000
      0.000000000000
      0.000000000000
      0.000000000000
      0.000000000000
      0.000000000000
      0.000000000000
      0.000000000000
      0.000000000000
      0.000000000000
      0.000000000000
      0.000000000000
      0.000000000000
      0.000000000000
      0.000000000000
      0.000000000000
      0.000000000000
      0.000000000000
      0.000000000000
      0.000000000000
      0.000000000000
      0.000000000000
      0.000000000000
      0.000000000000
      0.000000000000
      0.000000000000
      0.000000000000
      0.000000000000
      0.000000000000
      0.000000000000
      0.000000000000
      0.000000000000
      0.000000000000
      0.000000000000
      0.000000000000
      0.000000000000
      0.000000000000
      0.000000000000
      0.000000000000
      0.000000000000
      0.000000000000
      0.000000000000
      0.000000000000
      0.000000000000
      0.000000000000
      0.000000000000
      0.000000000000
      0.000000000000
      0.000000000000
      0.000000000000
      0.000000000000
      0.000000000000
      0.000000000000
      0.000000000000
      0.000000000000
      0.000000000000
      0.000000000000
      0.000000000000
      0.000000000000
      0.000000000000
      0.000000000000
      0.000000000000
      0.000000000000
      0.000000000000
      0.000000000000
      0.000000000000
      0.000000000000
      0.000000000000
      0.000000000000
      0.000000000000
      0.000000000000
      0.000000000000
      0.000000000000
      0.000000000000
      0.000000000000
      0.000000000000
      0.000000000000
      0.000000000000
      0.000000000000
      0.000000000000
      0.000000000000
      0.000000000000
      0.000000000000
      0.000000000000
      0.000000000000
      0.000000000000
      0.000000000000
      0.000000000000
      0.000000000000
      0.000000000000
      0.000000000000
      0.000000000000
      0.000000000000
      0.000000000000
      0.000000000000
      0.000000000000
      0.000000000000
      0.000000000000
      0.000000000000
      0.000000000000
      0.000000000000
      0.000000000000
      0.000000000000
      0.000000000000
      0.000000000000
      0.000000000000
      0.000000000000
      0.000000000000
      0.000000000000
      0.000000000000
      0.000000000000
      0.000000000000
      0.000000000000
      0.000000000000
      0.000000000000
      0.000000000000
      0.000000000000
      0.000000000000
      0.000000000000
      0.000000000000
      0.000000000000
      0.000000000000
      0.000000000000
      0.000000000000
      0.000000000000
      0.000000000000
      0.000000000000
      0.000000000000
      0.000000000000
      0.000000000000
      0.000000000000
      0.000000000000
      0.000000000000
      0.000000000000
      0.000000000000
      0.000000000000
