# vtk DataFile Version 3.0
TriPan results file. Generated by TriPan, USU AeroLab (c) 2021.
ASCII
DATASET POLYDATA
POINTS                1187 float
      0.000007434493      0.000000000000      0.000000000000
      0.054955317282      0.000000000000     -0.132451561689
      0.054955317282      0.000000000000      0.132451561689
      0.227193546912      0.000000000000     -0.303487510220
      0.227193546912      0.000000000000      0.303487510220
      0.499542388506      0.000000000000     -0.448201985494
      0.499542388506      0.000000000000      0.448201985494
      0.579903457038      0.579892184862     -0.000000000000
      0.634852492587      0.579892790540     -0.132452594726
      0.634852492587      0.579892790540      0.132452594726
      0.807091379704      0.579893505035     -0.303488116953
      0.807091379704      0.579893505035      0.303488116953
      0.901212614079      0.000000000000     -0.591211007161
      0.901212614079      0.000000000000      0.591211007161
      1.079440325994      0.579894393186     -0.448202100712
      1.079440325994      0.579894393186      0.448202100712
      1.321318258826      1.321304212034     -0.000000000000
      1.376267090114      1.321305021976     -0.132451782277
      1.376267090114      1.321305021976      0.132451782277
      1.461724710956      0.000000000000     -0.735952128540
      1.461724710956      0.000000000000      0.735952128540
      1.481110557225      0.579894975515     -0.591210898333
      1.481110557225      0.579894975515      0.591210898333
      1.548505793006      1.321305980294     -0.303486822333
      1.548505793006      1.321305980294      0.303486822333
      1.820854489745      1.321307117995     -0.448200529152
      1.820854489745      1.321307117995      0.448200529152
      2.041622645637      0.579895429833     -0.735951928953
      2.041622645637      0.579895429833      0.735951928953
      2.219021684661      0.000000000000     -0.875936761433
      2.219021684661      0.000000000000      0.875936761433
      2.222524666971      1.321307873539     -0.591209210036
      2.222524666971      1.321307873539      0.591209210036
      2.261974463396      2.261957039904     -0.000000000000
      2.316922934474      2.261958090847     -0.132450788321
      2.316922934474      2.261958090847      0.132450788321
      2.489161459227      2.261959346513     -0.303485237170
      2.489161459227      2.261959346513      0.303485237170
      2.761509851044      2.261960789136     -0.448198603466
      2.761509851044      2.261960789136      0.448198603466
      2.783036385706      1.321308459114     -0.735950185967
      2.783036385706      1.321308459114      0.735950185967
      2.798919720140      0.579895871200     -0.875936518337
      2.798919720140      0.579895871200      0.875936518337
      3.163179578501      2.261961756039     -0.591207138404
      3.163179578501      2.261961756039      0.591207138404
      3.207496075499      0.000000000000     -1.001896625380
      3.207496075499      0.000000000000      1.001896625380
      3.443840255232      3.443818817648     -0.000000000000
      3.498788450710      3.443820144189     -0.132449599265
      3.498788450710      3.443820144189      0.132449599265
      3.540333350635      1.321309010055     -0.875934750319
      3.540333350635      1.321309010055      0.875934750319
      3.671026620562      3.443821754758     -0.303483339743
      3.671026620562      3.443821754758      0.303483339743
      3.723691375354      2.261962501906     -0.735948043747
      3.723691375354      2.261962501906      0.735948043747
      3.787394096948      0.579896340272     -1.001896350021
      3.787394096948      0.579896340272      1.001896350021
      3.943374647971      3.443823561788     -0.448196297100
      3.943374647971      3.443823561788      0.448196297100
      4.345044123127      3.443824780992     -0.591204654501
      4.345044123127      3.443824780992      0.591204654501
      4.447046034762      0.000000000000     -1.100270871018
      4.447046034762      0.000000000000      1.100270871018
      4.480988206149      2.261963186981     -0.875932573897
      4.480988206149      2.261963186981      0.875932573897
      4.528807873597      1.321309571393     -1.001894574667
      4.528807873597      1.321309571393      1.001894574667
      4.905555728573      3.443825718267     -0.735945471663
      4.905555728573      3.443825718267      0.735945471663
      4.910719554293      4.910693485867      0.000000000000
      4.965667686036      4.910695114563     -0.132448216661
      4.965667686036      4.910695114563      0.132448216661
      5.026944070149      0.579896957591     -1.100270536674
      5.026944070149      0.579896957591      1.100270536674
      5.137905443872      4.910697137147     -0.303481132582
      5.137905443872      4.910697137147      0.303481132582
      5.410253047895      4.910699367574     -0.448193613114
      5.410253047895      4.910699367574      0.448193613114
      5.469462377414      2.261963861606     -1.001892386378
      5.469462377414      2.261963861606      1.001892386378
      5.662852398918      3.443826563792     -0.875929956880
      5.662852398918      3.443826563792      0.875929956880
      5.768357281239      1.321310277431     -1.100268762444
      5.768357281239      1.321310277431      1.100268762444
      5.811922468574      4.910700879665     -0.591201761536
      5.811922468574      4.910700879665      0.591201761536
      5.930397345413      0.000000000000     -1.141004609347
      5.930397345413      0.000000000000      1.141004609347
      6.372433851815      4.910702039144     -0.735942472732
      6.372433851815      4.910702039144      0.735942472732
      6.510295386293      0.579897825737     -1.141004170601
      6.510295386293      0.579897825737      1.141004170601
      6.651326434334      3.443827374266     -1.001889751517
      6.651326434334      3.443827374266      1.001889751517
      6.703960287409      6.703929078731     -0.000000000000
      6.709012152635      2.261964676895     -1.100266573611
      6.709012152635      2.261964676895      1.100266573611
      6.758908106423      6.703931020158     -0.132446666410
      6.758908106423      6.703931020158      0.132446666410
      6.931145402778      6.703933504233     -0.303478657104
      6.931145402778      6.703933504233      0.303478657104
      7.129729858844      4.910703071146     -0.875926901714
      7.129729858844      4.910703071146      0.875926901714
      7.203492532320      6.703936209130     -0.448190601958
      7.203492532320      6.703936209130      0.448190601958
      7.251708979118      1.321311240692     -1.141002403314
      7.251708979118      1.321311240692      1.141002403314
      7.605161148152      6.703938049229     -0.591198514023
      7.605161148152      6.703938049229      0.591198514023
      7.609122763691      0.000000000000     -1.093998744305
      7.609122763691      0.000000000000      1.093998744305
      7.890876078156      3.443828320954     -1.100263935303
      7.890876078156      3.443828320954      1.100263935303
      8.118203736065      4.910704039814     -1.001886671642
      8.118203736065      4.910704039814      1.001886671642
      8.165672759399      6.703939457542     -0.735939103512
      8.165672759399      6.703939457542      0.735939103512
      8.189020249261      0.579898682219     -1.093998172836
      8.189020249261      0.579898682219      1.093998172836
      8.192362779492      2.261965757498     -1.141000221932
      8.192362779492      2.261965757498      1.141000221932
      8.855996329986      8.855959694174      0.000000000000
      8.910943850546      8.855961934054     -0.132445007859
      8.910943850546      8.855961934054      0.132445007859
      8.922968080633      6.703940698507     -0.875923465886
      8.922968080633      6.703940698507      0.875923465886
      8.930434239198      1.321312176893     -1.093996417135
      8.930434239198      1.321312176893      1.093996417135
      9.083180176675      8.855964911516     -0.303476008204
      9.083180176675      8.855964911516      0.303476008204
      9.355527275623      8.855968123847     -0.448187379183
      9.355527275623      8.855968123847      0.448187379183
      9.357753226473      4.910705139917     -1.100260848079
      9.357753226473      4.910705139917      1.100260848079
      9.374226563574      3.443829542996     -1.140997590742
      9.374226563574      3.443829542996      1.140997590742
      9.395235896783      0.000000000000     -0.980747035457
      9.395235896783      0.000000000000      0.980747035457
      9.757195540840      8.855970314560     -0.591195036870
      9.757195540840      8.855970314560      0.591195036870
      9.871087941158      2.261966792121     -1.093994249492
      9.871087941158      2.261966792121      1.093994249492
      9.911442734001      6.703941844699     -1.001883204326
      9.911442734001      6.703941844699      1.001883204326
      9.975133588890      0.579899081610     -0.980744519637
      9.975133588890      0.579899081610      0.980744519637
     10.317706409244      8.855971988837     -0.735935493923
     10.317706409244      8.855971988837      0.735935493923
     10.716546616392      1.321312585038     -0.980743332211
     10.716546616392      1.321312585038      0.980743332211
     10.841104500015      4.910706527465     -1.140994509419
     10.841104500015      4.910706527465      1.140994509419
     11.052951606455      3.443830696385     -1.093991633836
     11.052951606455      3.443830696385      1.093991633836
     11.075002460736      8.855973453244     -0.875919782166
     11.075002460736      8.855973453244      0.875919782166
     11.150991098239      6.703943117331     -1.100257369085
     11.150991098239      6.703943117331      1.100257369085
     11.178267136232      0.000000000000     -0.826612480667
[...]
POINT_DATA                1187
SCALARS phi float 1
LOOKUP_TABLE default
     -0.000007307626
     -0.029652880317
     -0.078382167644
     -0.167489630960
     -0.279143505758
     -0.408570511482
     -0.573465232640
     -0.570007607017
     -0.599654122767
     -0.648383790151
     -0.737491598096
     -0.849145696113
     -0.777079672213
     -0.994587798742
     -0.978572671943
     -1.143467435490
     -1.298770424077
     -1.328416888503
     -1.377146256985
     -1.301401501093
     -1.572160277155
     -1.347081879449
     -1.564589965940
     -1.466254271447
     -1.577907893169
     -1.707335150945
     -1.872229336311
     -1.871403716704
     -2.142162419338
     -2.020025104066
     -2.342284604700
     -2.075844326842
     -2.293351792203
     -2.223374658945
     -2.253020952148
     -2.301749954951
     -2.390858268747
     -2.502511307284
     -2.631938911165
     -2.796832388066
     -2.600165810788
     -2.870923872172
     -2.590027426758
     -2.912286837957
     -3.000447671816
     -3.217954375018
     -2.968461037454
     -3.337061512280
     -3.385072323691
     -3.414718564726
     -3.463447130072
     -3.318789417743
     -3.641048178482
     -3.552555662785
     -3.664208003253
     -3.524769245531
     -3.795526518787
     -3.538463352290
     -3.907063725810
     -3.793636022240
     -3.958528650622
     -4.162144567552
     -4.379650356920
     -4.168762434099
     -4.573555059627
     -4.243392726932
     -4.565650686960
     -4.267225488284
     -4.635825208647
     -4.686465969348
     -4.957222296327
     -4.826919839675
     -4.856566272393
     -4.905294329075
     -4.738764773487
     -5.143557276008
     -4.994403117146
     -5.106054645594
     -5.235483148152
     -5.400374789089
     -5.191828453961
     -5.560427369247
     -5.405089301303
     -5.727346298523
     -5.467526353366
     -5.872318203143
     -5.603991678359
     -5.821496403397
     -5.619307846364
     -6.039086524254
     -6.128312881234
     -6.399068104899
     -6.189310210356
     -6.609088726830
     -6.353524898083
     -6.722122843996
     -6.589559545789
     -6.392129680449
     -6.796920724949
     -6.619205956286
     -6.667933442627
     -6.757042517629
     -6.868693135342
     -6.846935571536
     -7.169191444753
     -6.998122180790
     -7.163012713914
     -6.918072164178
     -7.337850030462
     -7.366629963363
     -7.584133493632
     -7.278033193867
     -7.680518287034
     -7.553825996049
     -7.958616069908
     -7.795371017367
     -8.163967830186
     -7.890951412741
     -8.161705396860
     -7.848035036439
     -8.250519919361
     -7.842674437146
     -8.262451500893
     -8.704871844682
     -8.734518266911
     -8.783245143066
     -8.609573441204
     -8.931828050371
     -8.576797378465
     -8.979281615460
     -8.872354056761
     -8.984003699936
     -9.113433795415
     -9.278323142871
     -8.995671965888
     -9.400460903949
     -9.004370612411
     -9.424146708136
     -9.054499734766
     -9.415319218329
     -9.481941280148
     -9.699443531164
     -9.501399552172
     -9.903882991685
     -9.558009655729
     -9.926605192913
     -9.624502138015
     -9.985320696002
    -10.006262023722
    -10.277014679864
    -10.353263429497
    -10.714081550626
    -10.446217355840
    -10.865992317938
    -10.663095607821
    -11.065578085027
    -10.724884783618
    -11.047138037534
    -10.758309499446
    -11.163097157576
    -10.835457428187
    -11.139570392691
    -11.187792629700
    -11.217439111355
    -11.266165373685
    -11.355274596902
    -11.466923259618
    -11.277866411588
    -11.638683957631
    -11.405458590711
    -11.709571529280
    -11.596353940153
    -11.761242094573
    -11.673319880784
    -12.041914049138
    -11.964861125733
    -12.182362089185
    -12.134220763689
    -12.438333402458
    -12.104941274098
    -12.507422623835
    -12.208854705347
    -12.628628388980
    -12.439562328207
    -12.800379125056
    -12.489181631327
    -12.759932950315
    -12.508560351141
    -12.751023896730
    -12.873620482910
    -13.278406766472
    -13.078562461027
    -13.321026023288
    -13.058822751207
    -13.362934930200
    -13.207804184490
    -13.530056073045
    -13.807323694824
    -14.049786930915
    -14.027527041515
    -13.881407852287
    -14.242223702225
    -13.867579403443
    -14.270059481043
    -13.987739970230
    -14.172739983549
    -14.057173639766
    -14.105899334249
    -14.195008843861
    -14.306656599487
    -14.156239100924
    -14.524831889358
    -14.220518611583
    -14.524630118428
    -14.436087821643
    -14.600974872203
    -14.324165491703
    -14.743937801417
    -14.557742088655
    -14.742742118224
    -14.731926616701
    -14.974389353140
    -14.804594730658
    -15.022094502566
    -15.227425451111
    -15.363412927715
    -15.286504267328
    -15.471503920854
    -15.328915016381
    -15.599665097585
    -15.356539523325
    -15.761324420291
    -15.662364078905
    -15.966474678653
    -15.644045841765
    -16.004860554679
    -15.797426644932
    -15.933414092201
    -15.893621533022
    -16.136083549208
    -15.982889083354
    -16.385367793230
    -16.047538315941
    -16.369788940119
    -16.220846914655
    -16.317410687120
    -16.211106261369
    -16.396105347333
    -16.526189775379
    -16.662176772785
    -16.790848127208
    -16.887411788093
    -16.807083396041
    -17.226854319053
    -16.988738988243
    -17.054949832782
    -16.995972128235
    -17.364563638222
    -17.180519464604
    -17.210165299608
    -17.258890529722
    -17.348000273787
    -17.459647287557
    -17.335468861814
    -17.577929925715
    -17.372802123280
    -17.557800417469
    -17.450790848082
    -17.586777194005
    -17.519611275432
    -17.616174402492
    -17.425002945114
    -17.729112426336
    -17.565950266575
    -17.609450726304
    -17.558740220477
    -17.624950861659
    -17.589078952687
    -17.753965100409
    -17.759355388783
    -18.120168820933
    -17.990793965703
    -18.017618430340
    -17.957585635564
    -18.175084432795
    -18.135951512842
    -18.179451702494
    -18.298666685361
    -18.313427738591
    -18.287501509186
    -18.353711548124
    -18.196273321753
    -18.601056933474
    -18.444212364197
    -18.540774763957
    -18.519271389138
    -18.525399507228
    -18.560795219061
    -18.587619381364
    -18.481905741643
    -18.752654810156
    -18.465807754719
    -18.868285083634
    -18.676061288573
    -18.612486723178
    -18.748472203364
    -18.868669815705
    -18.883430556539
    -18.864714685772
    -18.908214232248
    -18.814647580648
    -18.999644862771
    -19.089274519670
    -19.095402325194
    -19.098105832061
    -19.340565742683
    -19.212104484438
    -19.278313745255
    -19.246063807939
    -19.289558396622
    -19.316381895495
    -19.200527947914
    -19.522777537374
    -19.597431120807
    -19.612191188907
    -19.605908251225
    -19.702469728519
    -19.540312424959
    -19.844420641489
    -19.789315792861
    -19.832814533664
    -19.818035825793
    -19.824162954365
    -19.646816073372
    -20.066585710504
    -19.974823592624
    -20.054332188910
    -20.190316602165
    -20.214159507172
    -20.240982186962
    -20.148963498698
    -20.517553962121
    -20.373800380090
    -20.440008683849
    -20.242273940563
    -20.603086030885
    -20.522034107824
    -20.536793350556
    -20.568193035453
    -20.597840964145
    -20.646565888453
    -20.577284548554
    -20.762280634242
    -20.742638813797
    -20.748765114075
    -20.735675786925
    -20.847322312231
    -20.899424728212
    -20.951011693408
    -20.994509458854
    -20.976754269065
    -21.141639822287
    -21.047753725311
    -21.144314096813
    -21.213415284319
    -21.455873906586
    -21.375855410242
    -21.402677105649
    -21.345260803177
    -21.562758958553
    -21.305540274178
    -21.708016322172
    -21.349262681630
    -21.754045240874
    -21.683730012262
    -21.698488266271
    -21.815645860386
    -21.881853035278
    -21.816971035886
    -21.952954215184
    -21.904334718995
    -21.910460028472
    -21.869580791149
    -22.140329192688
    -22.061118430099
    -22.023230903212
    -22.327337807334
    -22.392859052339
    -22.436355676612
    -22.588202894712
    -22.910451802572
    -22.692595869043
    -22.877590637320
    -22.817700896341
    -22.844521444370
    -22.810392577820
    -22.906951689393
    -22.799807157665
    -23.219575741491
    -23.125575499526
    -23.140332603095
    -23.082006362454
    -23.442817163620
    -23.346180206946
    -23.352304364488
    -23.502961374695
    -23.578284717786
    -23.644490617241
    -23.536636481097
    -23.905226254970
    -23.696333732013
    -23.938791026796
    -23.932280482811
    -24.068262319716
    -24.081942290898
    -24.111588582904
    -24.160313400352
    -24.155496038094
    -24.198991378502
    -24.249425227483
    -24.361071582057
    -24.490501766072
    -24.655387111504
    -24.580339758554
    -24.607159018373
    -24.458531229229
    -24.861006227778
    -24.888212488026
    -24.902968301198
    -24.736937449377
    -25.141719315025
    -24.859010123039
    -25.076508054036
    -24.925702028466
    -25.022259780271
    -24.862963248111
    -25.167068916685
    -25.108817196096
    -25.114940062149
    -25.265597412741
    -25.175514307566
    -25.360507729365
    -25.383330069647
    -25.654078237994
    -25.693594172392
    -25.759798701527
    -26.101950262727
    -26.424198932231
    -26.270805495357
    -26.314299459597
    -26.187479951647
    -26.607247841212
    -26.234997251461
    -26.595806950108
    -26.415198920541
    -26.551179394471
    -26.536066046927
    -26.778522096973
    -26.695649217305
    -26.722467097886
    -27.003523822471
    -27.018278254831
    -27.224126656305
    -27.230248140751
    -27.050385692551
    -27.418975225237
    -27.380903885715
    -27.408620468703
    -27.505176845892
    -27.595690621963
    -27.625337138041
    -27.674062062374
    -27.763171960730
    -27.874818486007
    -27.846203938050
    -28.248678244815
    -28.004250442971
    -28.169135996120
    -28.015246612662
    -28.200238777595
    -28.015954062209
    -28.320058710284
    -28.176512615899
    -28.242715763208
    -28.250684754831
    -28.655466377843
    -28.372756977122
    -28.590255132356
    -28.753723941149
    -28.797216519495
    -28.897076965160
    -29.167825366473
    -29.178567664491
    -29.205384157015
    -29.254931224001
    -29.390910430337
    -29.486440395665
    -29.501193438840
    -29.707045104925
    -29.713165199603
    -29.615699068782
    -29.937947976311
    -29.622669933345
    -29.983478849863
    -29.689056835748
    -29.931511859979
    -29.863819377160
    -29.701229097218
    -30.120996743909
    -30.248352773830
    -30.344907875728
    -30.564134530038
    -30.932724303491
    -30.983361547791
    -31.013010117901
    -31.061735347946
    -31.016244923672
    -31.082446790832
    -31.150845091971
    -31.262492105711
    -31.168237392833
    -31.353228524555
    -31.391921896176
    -31.556808043740
    -31.403624804100
    -31.707728776530
    -31.359953053816
    -31.762427118610
    -31.593456250826
    -31.636947546244
    -31.760430454004
    -31.977929250941
    -31.764435498284
    -32.169217363482
    -32.018299975265
    -32.045115183365
    -32.326174581937
    -32.340926339900
    -32.284750560220
    -32.555499628270
    -32.407922002369
    -32.543900168839
    -32.546779291658
    -32.552898100724
    -32.703549015851
    -33.003372766599
    -33.325622355392
    -33.076729435488
    -33.319183781294
    -33.136419064400
    -33.497227624943
    -33.214979875214
    -33.634747764383
    -33.401341678506
    -33.497895735691
    -33.951808317421
    -34.320398780005
    -34.136349953586
    -34.165998637553
    -34.214724331940
    -34.169235705078
    -34.235436524427
    -34.303831966722
    -34.415479722301
    -34.544910944748
    -34.709797995063
    -34.555908111810
    -34.740898561137
    -34.746447033691
    -34.789937279510
    -34.913419728670
    -35.130919500125
    -34.917375762537
    -35.221479497997
    -34.873700111906
    -35.276174418434
    -35.171290758970
    -35.198104916500
    -35.152105625431
    -35.556888183773
    -35.479165366185
    -35.493916073070
    -35.437740014601
    -35.708490095092
    -35.699766326733
    -35.705884084445
    -35.856537693776
    -35.795596469682
    -35.931573950171
    -36.156362376993
    -36.478613000153
    -36.590476638404
    -36.832930746230
    -36.602650101380
    -37.022418684412
    -36.650166177375
    -37.010974859586
    -36.789016146290
    -36.885569514880
    -36.976077578109
    -37.005726305066
    -37.054452567232
    -37.143563665184
    -37.255212327802
    -37.104794314489
    -37.473385823199
    -37.384643008817
    -37.549531162895
    -37.556906424597
    -37.623106553660
    -37.753148319781
    -37.970649282608
    -38.134121503630
    -38.177611058182
    -38.069659062317
    -38.254649272424
    -38.277468825723
    -38.548220143722
    -38.261374172729
    -38.663849170798
    -38.305095507893
    -38.709879118249
    -38.558965229418
    -38.585778695159
    -38.431122852857
    -38.735226824343
    -38.866836087514
    -38.881586102318
    -39.087440797954
    -39.093557863428
    -38.996091378987
    -39.318343266143
    -39.244210882996
    -39.309343669959
    -39.445320910196
    -39.458993052773
    -39.488641759822
    -39.537368635789
    -39.626479424018
    -39.738129067052
    -39.867559163194
    -40.032448510184
    -39.755640134080
    -40.175409770018
    -39.944527233008
    -40.313120019712
    -40.037840324919
    -40.398649589576
    -40.104227484336
    -40.346681828690
    -40.236064773472
    -40.453567023659
    -40.302763346738
    -40.399316474348
    -40.760385517369
    -41.031138172214
    -41.070657375041
    -41.136857262677
    -41.144828592563
    -41.549613487707
    -41.574301478387
    -41.414364334559
    -41.816840381840
    -41.603950118774
    -41.652677604894
    -41.479008277497
    -41.801261529613
    -41.647868704862
    -41.691358017738
    -41.583406160727
    -41.768396608632
    -41.741784336041
    -41.853434953601
    -41.818797006037
    -42.122901652089
    -41.982864468531
    -42.147755001045
    -42.072712430745
    -42.099525654664
    -42.380587038586
    -42.395336811495
    -42.351374126312
    -42.568877655522
    -42.601191749051
    -42.607308572602
    -42.427444312034
    -42.796038478208
    -42.757957799382
    -42.595373402321
    -43.015144323759
    -42.823090768831
    -42.959068248225
    -42.875695107336
    -43.146449089840
    -43.336937655449
    -43.190830594612
    -43.551640822040
    -43.366582451346
    -43.415310507764
    -43.504420701440
    -43.616072229686
    -43.491901654514
    -43.734356675642
    -43.594318073470
    -43.916572680443
    -43.745501201947
    -43.910392842126
    -43.627745851341
    -44.032532132651
    -43.816514194971
    -43.913067562836
    -44.114007389121
    -44.331512112860
    -44.254097760565
    -44.656575088545
    -44.584404473195
    -44.650604601834
    -44.542754288041
    -44.911349822629
    -44.638328592369
    -44.909083814098
    -44.778780769228
    -44.808425458555
    -44.857154023577
    -44.946263961724
    -45.057916301952
    -44.971080336706
    -45.156071465388
    -44.971787309073
    -45.275892974254
    -45.161615802686
    -45.205105357005
    -45.187344790864
    -45.352237418322
    -45.078290859645
    -45.498063167441
    -45.356951751630
    -45.679207622293
    -45.586459528476
    -45.613272994088
    -45.555854977041
    -45.773360764864
    -45.894334136075
    -45.909084150812
    -45.940472772347
    -45.743052256512
    -46.147839912016
    -45.970121105013
    -46.018850107383
    -46.114938846433
    -46.121055911882
    -46.107959826441
    -46.219612864706
    -46.030560389120
    -46.391371836934
    -46.080176379315
    -46.350932704069
    -46.271705647959
    -46.210764946185
    -46.346743110323
    -46.349037189142
    -46.513930664959
    -46.305388134836
    -46.673984944715
    -46.644888233358
    -46.887344278200
    -46.717547590755
    -46.935054292185
    -46.865074074744
    -46.894722309587
    -46.943451677536
    -46.737011638492
    -47.139490347231
    -46.798795961773
    -47.121052956153
    -47.032557464689
    -47.144211086116
    -47.204188371649
    -47.300742427311
    -47.273638814149
    -47.438532998271
    -47.241869164803
    -47.512626435602
    -47.193597461924
    -47.613371143353
    -47.593834008910
    -47.623482158257
    -47.672211825001
    -47.505690020354
    -47.910478955521
    -47.642149396647
    -47.859656860058
    -47.761321213406
    -47.872975311114
    -47.747232495831
    -48.115830438586
    -47.811517160429
    -48.115624059258
    -47.972078648585
    -48.038279467036
    -48.002399007884
    -48.167293770075
    -47.960492646312
    -48.282750603333
    -48.163834125149
    -48.124070673767
    -48.309062833621
    -48.193482886080
    -48.242213094265
    -48.166471115265
    -48.437229174069
    -48.292677834549
    -48.327135563351
    -48.348039898453
    -48.331318736167
    -48.442973579247
    -48.370909739089
    -48.588417823540
    -48.549289977013
    -48.592780222335
    -48.558610249885
    -48.637562525445
    -48.572400829637
    -48.737296341541
    -48.685459448732
    -48.513478136326
    -48.874290925738
    -48.908072655381
    -49.024671786381
    -48.974133702247
    -49.000947859515
    -48.895231576424
    -49.165990276499
    -48.885094722094
    -49.207353479825
    -48.940911971709
    -49.158420692823
    -48.852322159410
    -49.254802235711
    -48.908929310409
    -49.277528222489
    -49.095410780273
    -48.947534530695
    -49.352324601545
    -48.956235409645
    -49.376010369361
    -49.282008309562
    -49.296759016306
    -49.363755284930
    -49.499734487403
    -49.383687269985
    -49.537489510096
    -49.502613019651
    -49.508730777295
    -49.465234120548
    -49.735993302817
    -49.484621864478
    -49.727079151158
    -49.630797561681
    -49.659381504574
    -49.613855286309
    -49.936114694679
    -49.833531495348
    -50.202131212649
    -50.016409769398
    -50.207865710413
    -50.109227724114
    -50.514018765669
    -50.324016250658
    -50.183858064797
    -50.506117790014
    -50.357174959624
    -50.453730059013
    -50.294434981768
    -50.598543190317
    -50.398080083697
    -50.817856177006
    -50.562292148724
    -50.930892519502
    -50.628788772867
    -50.989602900104
    -50.614960264565
    -51.017441612915
    -50.839870618672
    -51.067742832839
    -50.963800565145
    -51.148793979068
    -51.125068984098
    -51.191270849788
    -51.205989739677
    -51.033830016299
    -51.438621863371
    -51.132295090652
    -51.500895624203
    -51.702280311012
    -51.745771605628
    -51.559773417536
    -51.979550478973
    -51.762590757092
    -52.167383257285
    -51.882643655143
    -52.143283676574
    -51.967539716728
    -52.209998326748
    -52.127124035373
    -52.153939243053
    -52.056805078456
    -52.459287554272
    -52.203485177693
    -52.339465645669
    -52.301405381876
    -52.434998642075
    -52.449750399831
    -52.332593797248
    -52.737386341022
    -52.409745703498
    -52.713855173119
    -52.391426988300
    -52.752242351125
    -52.655599602201
    -52.661718411160
    -52.484375826368
    -52.904153690579
    -52.812374233812
    -53.196908600157
    -53.293464973521
    -53.156620359133
    -53.442851914144
    -53.218498531916
    -53.620981970113
    -53.213136662107
    -53.632915176836
    -53.446718426405
    -53.631713182767
    -53.616502442197
    -53.783139733537
    -54.202918239699
    -53.964798872257
    -54.031002017353
    -53.833271908363
    -54.194088338229
    -54.082850466349
    -54.325310358903
    -54.172384010185
    -54.476494594318
    -54.143101040082
    -54.545585275905
    -54.542010197296